<event>
 9    1  0.2073852E-002  0.2752873E+03  0.7818608E-02  0.1098291E+00
         -2   -1    0    0    0  501 -0.00000000000E+00  0.00000000000E+00  0.15861993806E+02  0.15861993806E+02  0.00000000000E+00 0.  1.
          2   -1    0    0  501    0  0.00000000000E+00 -0.00000000000E+00 -0.11944135913E+04  0.11944135913E+04  0.00000000000E+00 0.  1.
         36    2    1    2    0    0  0.71054273576E-14  0.71054273576E-14 -0.11785515974E+04  0.12102755851E+04  0.27528734795E+03 0.  0.
         25    2    3    3    0    0  0.28875610014E+02 -0.34442323055E+02 -0.46941003932E+03  0.48822699130E+03  0.12649006110E+03 0.  0.
         25    2    3    3    0    0 -0.28875610014E+02  0.34442323055E+02 -0.70914155813E+03  0.72204859376E+03  0.12826670574E+03 0.  0.
          5    1    4    4  502    0  0.11098391778E+02  0.32654008752E+02 -0.39179607734E+02  0.52407921633E+02  0.47000000000E+01 0. -1.
         -5    1    4    4    0  502  0.17777218235E+02 -0.67096331807E+02 -0.43023043158E+03  0.43581906967E+03  0.47000000000E+01 0. -1.
          5    1    5    5  503    0  0.43553095835E+02  0.21638681329E+02 -0.14270598207E+03  0.15083829754E+03  0.47000000000E+01 0. -1.
         -5    1    5    5    0  503 -0.72428705849E+02  0.12803641726E+02 -0.56643557606E+03  0.57121029621E+03  0.47000000000E+01 0. -1.
<mgrwt>
<rscale>  0 0.27528735E+03</rscale>
<asrwt>0</asrwt>
<pdfrwt beam="1">  1        2 0.18375591E+00 0.27528735E+03</pdfrwt>
<pdfrwt beam="2">  1       -2 0.24403071E-02 0.27528735E+03</pdfrwt>
<totfact> 0.11579578E+04</totfact>
</mgrwt>
</event>
<event>
 8    1  0.2073852E-002  0.2586453E+03  0.7818608E-02  0.1107960E+00
         -2   -1    0    0    0  501 -0.00000000000E+00  0.00000000000E+00  0.13199124891E+02  0.13199124891E+02  0.00000000000E+00 0. -1.
          2   -1    0    0  501    0  0.00000000000E+00 -0.00000000000E+00 -0.12670801750E+04  0.12670801750E+04  0.00000000000E+00 0. -1.
         25    2    1    2    0    0  0.30321149907E+02  0.16627158652E+02 -0.48429699873E+03  0.49934412008E+03  0.11664104228E+03 0.  0.
         25    2    1    2    0    0 -0.30321149907E+02 -0.16627158652E+02 -0.76958405138E+03  0.78093517981E+03  0.12807930509E+03 0.  0.
          5    1    3    3  502    0  0.23937165103E+02 -0.78206170268E+01 -0.46845082766E+03  0.46915074108E+03  0.47000000000E+01 0.  1.
         -5    1    3    3    0  502  0.63839848042E+01  0.24447775679E+02 -0.15846171066E+02  0.30193378994E+02  0.47000000000E+01 0.  1.
          5    1    4    4  503    0  0.16731085448E+02  0.17873603835E+02 -0.29859287925E+02  0.38898097765E+02  0.47000000000E+01 0.  1.
         -5    1    4    4    0  503 -0.47052235355E+02 -0.34500762487E+02 -0.73972476346E+03  0.74203708205E+03  0.47000000000E+01 0.  1.
<mgrwt>
<rscale>  0 0.25864531E+03</rscale>
<asrwt>0</asrwt>
<pdfrwt beam="1">  1        2 0.19493547E+00 0.25864531E+03</pdfrwt>
<pdfrwt beam="2">  1       -2 0.20306339E-02 0.25864531E+03</pdfrwt>
<totfact> 0.13792996E+04</totfact>
</mgrwt>
</event>
<event>
 9    1  0.2073852E-002  0.2754012E+03  0.7818608E-02  0.1098228E+00
         -1   -1    0    0    0  501 -0.00000000000E+00  0.00000000000E+00  0.54292984515E+03  0.54292984515E+03  0.00000000000E+00 0. -1.
          1   -1    0    0  501    0  0.00000000000E+00 -0.00000000000E+00 -0.34924321461E+02  0.34924321461E+02  0.00000000000E+00 0. -1.
         36    2    1    2    0    0  0.71054273576E-14 -0.71054273576E-14  0.50800552369E+03  0.57785416661E+03  0.27540120873E+03 0.  0.
         25    2    3    3    0    0  0.20390935279E+01 -0.57317304478E+02  0.29284180484E+03  0.32408538369E+03  0.12643410126E+03 0.  0.
         25    2    3    3    0    0 -0.20390935279E+01  0.57317304478E+02  0.21516371884E+03  0.25376878292E+03  0.12171170027E+03 0.  0.
          5    1    4    4  502    0  0.42736577688E+02 -0.38942210475E+02  0.26495316106E+03  0.27122901465E+03  0.47000000000E+01 0. -1.
         -5    1    4    4    0  502 -0.40697484160E+02 -0.18375094003E+02  0.27888643782E+02  0.52856369045E+02  0.47000000000E+01 0. -1.
          5    1    5    5  503    0 -0.53997527153E+02  0.50211163228E+02  0.16613583142E+03  0.18182436122E+03  0.47000000000E+01 0. -1.
         -5    1    5    5    0  503  0.51958433626E+02  0.71061412509E+01  0.49027887424E+02  0.71944421699E+02  0.47000000000E+01 0. -1.
<mgrwt>
<rscale>  0 0.27540121E+03</rscale>
<asrwt>0</asrwt>
<pdfrwt beam="1">  1        1 0.53729729E-02 0.27540121E+03</pdfrwt>
<pdfrwt beam="2">  1       -1 0.83527662E-01 0.27540121E+03</pdfrwt>
<totfact> 0.22403517E+03</totfact>
</mgrwt>
</event>
<event>
 9    1  0.2073852E-002  0.2756360E+03  0.7818608E-02  0.1098097E+00
          2   -1    0    0  501    0  0.00000000000E+00  0.00000000000E+00  0.76270954787E+03  0.76270954787E+03  0.00000000000E+00 0.  1.
         -2   -1    0    0    0  501 -0.00000000000E+00 -0.00000000000E+00 -0.24903058729E+02  0.24903058729E+02  0.00000000000E+00 0.  1.
         36    2    1    2    0    0  0.35527136788E-14  0.35527136788E-14  0.73780648915E+03  0.78761260660E+03  0.27563599666E+03 0.  0.
         25    2    3    3    0    0 -0.30380965489E+02  0.11760229186E+02  0.25469662396E+03  0.28765348860E+03  0.12966438677E+03 0.  0.
         25    2    3    3    0    0  0.30380965489E+02 -0.11760229186E+02  0.48310986519E+03  0.49995911800E+03  0.12450972563E+03 0.  0.
          5    1    4    4  502    0  0.31009211682E+02 -0.29113643698E+02  0.33225048850E+02  0.54177203044E+02  0.47000000000E+01 0. -1.
         -5    1    4    4    0  502 -0.61390177172E+02  0.40873872884E+02  0.22147157511E+03  0.23347628556E+03  0.47000000000E+01 0. -1.
          5    1    5    5  503    0 -0.89818165498E+01 -0.37164804464E+02  0.41711342964E+03  0.41888852802E+03  0.47000000000E+01 0.  1.
         -5    1    5    5    0  503  0.39362782039E+02  0.25404575278E+02  0.65996435545E+02  0.81070589979E+02  0.47000000000E+01 0.  1.
<mgrwt>
<rscale>  0 0.27563600E+03</rscale>
<asrwt>0</asrwt>
<pdfrwt beam="1">  1        2 0.11733991E+00 0.27563600E+03</pdfrwt>
<pdfrwt beam="2">  1       -2 0.38312404E-02 0.27563600E+03</pdfrwt>
<totfact> 0.11019292E+04</totfact>
</mgrwt>
</event>
<event>
 9    1  0.2073852E-002  0.2771219E+03  0.7818608E-02  0.1097271E+00
         -1   -1    0    0    0  501 -0.00000000000E+00  0.00000000000E+00  0.37623177076E+02  0.37623177076E+02  0.00000000000E+00 0. -1.
          1   -1    0    0  501    0  0.00000000000E+00 -0.00000000000E+00 -0.51030067549E+03  0.51030067549E+03  0.00000000000E+00 0. -1.
         36    2    1    2    0    0 -0.35527136788E-14  0.00000000000E+00 -0.47267749841E+03  0.54792385256E+03  0.27712186977E+03 0.  0.
         25    2    3    3    0    0 -0.17834770463E+02 -0.20602787063E+02 -0.12916113069E+03  0.18218940933E+03  0.12557001759E+03 0.  0.
         25    2    3    3    0    0  0.17834770463E+02  0.20602787063E+02 -0.34351636772E+03  0.36573444323E+03  0.12253829688E+03 0.  0.
          5    1    4    4  502    0 -0.56179381549E+02 -0.41778526202E+02 -0.35396709737E+02  0.78591254113E+02  0.47000000000E+01 0.  1.
         -5    1    4    4    0  502  0.38344611086E+02  0.21175739139E+02 -0.93764420957E+02  0.10359815522E+03  0.47000000000E+01 0.  1.
          5    1    5    5  503    0 -0.82053972942E+00  0.37837974218E+02 -0.23753363665E+02  0.44929921698E+02  0.47000000000E+01 0.  1.
         -5    1    5    5    0  503  0.18655310193E+02 -0.17235187155E+02 -0.31976300405E+03  0.32080452153E+03  0.47000000000E+01 0.  1.
<mgrwt>
<rscale>  0 0.27712187E+03</rscale>
<asrwt>0</asrwt>
<pdfrwt beam="1">  1        1 0.78507795E-01 0.27712187E+03</pdfrwt>
<pdfrwt beam="2">  1       -1 0.57881812E-02 0.27712187E+03</pdfrwt>
<totfact> 0.61722986E+03</totfact>
</mgrwt>
</event>
<event>
 9    1  0.2073852E-002  0.2773901E+03  0.7818608E-02  0.1097123E+00
         -1   -1    0    0    0  501 -0.00000000000E+00  0.00000000000E+00  0.24593602029E+02  0.24593602029E+02  0.00000000000E+00 0.  1.
          1   -1    0    0  501    0  0.00000000000E+00 -0.00000000000E+00 -0.78216755821E+03  0.78216755821E+03  0.00000000000E+00 0.  1.
         36    2    1    2    0    0  0.00000000000E+00  0.00000000000E+00 -0.75757395618E+03  0.80676116024E+03  0.27739010542E+03 0.  0.
         25    2    3    3    0    0 -0.55607729594E+02  0.15924335007E+02 -0.46416438071E+03  0.48376511240E+03  0.12342733741E+03 0.  0.
         25    2    3    3    0    0  0.55607729594E+02 -0.15924335007E+02 -0.29340957547E+03  0.32299604784E+03  0.12203058594E+03 0.  0.
          5    1    4    4  502    0 -0.37011914815E+02 -0.24028257506E+02 -0.41581860858E+03  0.41817991850E+03  0.47000000000E+01 0. -1.
         -5    1    4    4    0  502 -0.18595814779E+02  0.39952592513E+02 -0.48345772130E+02  0.65585193898E+02  0.47000000000E+01 0. -1.
          5    1    5    5  503    0 -0.24729081327E+02  0.16067193094E+02 -0.16774079935E+03  0.17037824956E+03  0.47000000000E+01 0. -1.
         -5    1    5    5    0  503  0.80336810921E+02 -0.31991528101E+02 -0.12566877612E+03  0.15261779828E+03  0.47000000000E+01 0. -1.
<mgrwt>
<rscale>  0 0.27739011E+03</rscale>
<asrwt>0</asrwt>
<pdfrwt beam="1">  1        1 0.12033348E+00 0.27739011E+03</pdfrwt>
<pdfrwt beam="2">  1       -1 0.37836309E-02 0.27739011E+03</pdfrwt>
<totfact> 0.63638973E+03</totfact>
</mgrwt>
</event>
<event>
 9    1  0.2073852E-002  0.2738195E+03  0.7818608E-02  0.1099113E+00
         -2   -1    0    0    0  501 -0.00000000000E+00  0.00000000000E+00  0.10753071091E+03  0.10753071091E+03  0.00000000000E+00 0.  1.
          2   -1    0    0  501    0  0.00000000000E+00 -0.00000000000E+00 -0.17431553153E+03  0.17431553153E+03  0.00000000000E+00 0.  1.
         36    2    1    2    0    0  0.14210854715E-13  0.00000000000E+00 -0.66784820619E+02  0.28184624244E+03  0.27381945166E+03 0.  0.
         25    2    3    3    0    0  0.66373557327E+02 -0.23946632831E+01 -0.34924496883E+02  0.14632740231E+03  0.12562167273E+03 0.  0.
         25    2    3    3    0    0 -0.66373557327E+02  0.23946632831E+01 -0.31860323737E+02  0.13551884012E+03  0.11375013088E+03 0.  0.
          5    1    4    4  502    0  0.26192903180E+02 -0.51971170320E+02  0.20287838864E+02  0.61812273273E+02  0.47000000000E+01 0. -1.
         -5    1    4    4    0  502  0.40180654147E+02  0.49576507037E+02 -0.55212335746E+02  0.84515129037E+02  0.47000000000E+01 0. -1.
          5    1    5    5  503    0 -0.26806955443E+02  0.57124139914E+02 -0.22600685279E+02  0.67191228566E+02  0.47000000000E+01 0. -1.
         -5    1    5    5    0  503 -0.39566601884E+02 -0.54729476631E+02 -0.92596384581E+01  0.68327611559E+02  0.47000000000E+01 0. -1.
<mgrwt>
<rscale>  0 0.27381945E+03</rscale>
<asrwt>0</asrwt>
<pdfrwt beam="1">  1        2 0.26817774E-01 0.27381945E+03</pdfrwt>
<pdfrwt beam="2">  1       -2 0.16543187E-01 0.27381945E+03</pdfrwt>
<totfact> 0.57301855E+03</totfact>
</mgrwt>
</event>
<event>
 9    1  0.2073852E-002  0.2758265E+03  0.7818608E-02  0.1097990E+00
         -2   -1    0    0    0  501 -0.00000000000E+00  0.00000000000E+00  0.42196408853E+02  0.42196408853E+02  0.00000000000E+00 0. -1.
          2   -1    0    0  501    0  0.00000000000E+00 -0.00000000000E+00 -0.45075093178E+03  0.45075093178E+03  0.00000000000E+00 0. -1.
         36    2    1    2    0    0  0.00000000000E+00  0.00000000000E+00 -0.40855452293E+03  0.49294734064E+03  0.27582654411E+03 0.  0.
         25    2    3    3    0    0 -0.25735110009E+02 -0.42133863055E+02 -0.18301924841E+03  0.23136071334E+03  0.13264304009E+03 0.  0.
         25    2    3    3    0    0  0.25735110009E+02  0.42133863055E+02 -0.22553527453E+03  0.26158662730E+03  0.12297904384E+03 0.  0.
          5    1    4    4  502    0 -0.21568181734E+02  0.20668810547E+02  0.70795817748E+01  0.31057956643E+02  0.47000000000E+01 0.  1.
         -5    1    4    4    0  502 -0.41669282750E+01 -0.62802673601E+02 -0.19009883018E+03  0.20030275669E+03  0.47000000000E+01 0.  1.
          5    1    5    5  503    0  0.87108314902E+01  0.50295060213E+02 -0.23459151442E+03  0.24012650896E+03  0.47000000000E+01 0.  1.
         -5    1    5    5    0  503  0.17024278519E+02 -0.81611971588E+01  0.90562398956E+01  0.21460118341E+02  0.47000000000E+01 0.  1.
<mgrwt>
<rscale>  0 0.27582654E+03</rscale>
<asrwt>0</asrwt>
<pdfrwt beam="1">  1        2 0.69346295E-01 0.27582654E+03</pdfrwt>
<pdfrwt beam="2">  1       -2 0.64917554E-02 0.27582654E+03</pdfrwt>
<totfact> 0.91086005E+03</totfact>
</mgrwt>
</event>
<event>
 9    1  0.2073852E-002  0.2746009E+03  0.7818608E-02  0.1098675E+00
          3   -1    0    0  501    0  0.00000000000E+00  0.00000000000E+00  0.63457083607E+03  0.63457083607E+03  0.00000000000E+00 0. -1.
         -3   -1    0    0    0  501 -0.00000000000E+00 -0.00000000000E+00 -0.29707348083E+02  0.29707348083E+02  0.00000000000E+00 0. -1.
         36    2    1    2    0    0  0.00000000000E+00  0.17763568394E-14  0.60486348799E+03  0.66427818415E+03  0.27460092287E+03 0.  0.
         25    2    3    3    0    0 -0.37103886770E+02 -0.34244188260E+01  0.18755002282E+03  0.22715660817E+03  0.12262417591E+03 0.  0.
         25    2    3    3    0    0  0.37103886770E+02  0.34244188260E+01  0.41731346517E+03  0.43712157598E+03  0.12464477094E+03 0.  0.
          5    1    4    4  502    0 -0.65609986367E+02  0.16971099910E+02  0.17800402397E+03  0.19052614280E+03  0.47000000000E+01 0. -1.
         -5    1    4    4    0  502  0.28506099597E+02 -0.20395518736E+02  0.95459988523E+01  0.36630465365E+02  0.47000000000E+01 0. -1.
          5    1    5    5  503    0  0.82151883299E+02  0.24756263864E+01  0.30753529816E+03  0.31836317354E+03  0.47000000000E+01 0. -1.
         -5    1    5    5    0  503 -0.45047996529E+02  0.94879243959E+00  0.10977816701E+03  0.11875840244E+03  0.47000000000E+01 0. -1.
<mgrwt>
<rscale>  0 0.27460092E+03</rscale>
<asrwt>0</asrwt>
<pdfrwt beam="1">  1        3 0.97626272E-01 0.27460092E+03</pdfrwt>
<pdfrwt beam="2">  1       -3 0.45703617E-02 0.27460092E+03</pdfrwt>
<totfact> 0.63926989E+02</totfact>
</mgrwt>
</event>
<event>
 9    1  0.2073852E-002  0.2744564E+03  0.7818608E-02  0.1098756E+00
         -2   -1    0    0    0  501 -0.00000000000E+00  0.00000000000E+00  0.45822287739E+02  0.45822287739E+02  0.00000000000E+00 0. -1.
          2   -1    0    0  501    0  0.00000000000E+00 -0.00000000000E+00 -0.41096980812E+03  0.41096980812E+03  0.00000000000E+00 0. -1.
         36    2    1    2    0    0 -0.71054273576E-14  0.35527136788E-14 -0.36514752039E+03  0.45679209586E+03  0.27445638488E+03 0.  0.
         25    2    3    3    0    0  0.49381924733E+02 -0.17360194000E+02 -0.17759365516E+03  0.22414650741E+03  0.12634159886E+03 0.  0.
         25    2    3    3    0    0 -0.49381924733E+02  0.17360194000E+02 -0.18755386522E+03  0.23264558846E+03  0.12730894172E+03 0.  0.
          5    1    4    4  502    0 -0.20297658586E+02  0.17362428131E+02 -0.12995506185E+03  0.13275487545E+03  0.47000000000E+01 0. -1.
         -5    1    4    4    0  502  0.69679583319E+02 -0.34722622131E+02 -0.47638593310E+02  0.91391631957E+02  0.47000000000E+01 0. -1.
          5    1    5    5  503    0 -0.35614077255E+02  0.44174986784E+02 -0.19337937658E+03  0.20158736380E+03  0.47000000000E+01 0. -1.
         -5    1    5    5    0  503 -0.13767847479E+02 -0.26814792784E+02  0.58255113600E+01  0.31058224657E+02  0.47000000000E+01 0. -1.
<mgrwt>
<rscale>  0 0.27445638E+03</rscale>
<asrwt>0</asrwt>
<pdfrwt beam="1">  1        2 0.63226123E-01 0.27445638E+03</pdfrwt>
<pdfrwt beam="2">  1       -2 0.70495829E-02 0.27445638E+03</pdfrwt>
<totfact> 0.88713937E+03</totfact>
</mgrwt>
</event>
<event>
 9    1  0.2073852E-002  0.2760879E+03  0.7818608E-02  0.1097845E+00
          1   -1    0    0  501    0  0.00000000000E+00  0.00000000000E+00  0.40156829410E+03  0.40156829410E+03  0.00000000000E+00 0.  1.
         -1   -1    0    0    0  501 -0.00000000000E+00 -0.00000000000E+00 -0.47454268606E+02  0.47454268606E+02  0.00000000000E+00 0.  1.
         36    2    1    2    0    0  0.00000000000E+00  0.00000000000E+00  0.35411402550E+03  0.44902256271E+03  0.27608788233E+03 0.  0.
         25    2    3    3    0    0  0.82314493615E+01 -0.26978439718E+02  0.26215595183E+03  0.29212160037E+03  0.12575250835E+03 0.  0.
         25    2    3    3    0    0 -0.82314493615E+01  0.26978439718E+02  0.91958073672E+02  0.15690096234E+03  0.12395979873E+03 0.  0.
          5    1    4    4  502    0  0.59511003990E+02 -0.28308145252E+02  0.85166153412E+02  0.10778809939E+03  0.47000000000E+01 0.  1.
         -5    1    4    4    0  502 -0.51279554628E+02  0.13297055338E+01  0.17698979841E+03  0.18433350098E+03  0.47000000000E+01 0.  1.
          5    1    5    5  503    0  0.49176046402E+02 -0.19289816449E+02  0.42942272516E+02  0.68238620496E+02  0.47000000000E+01 0.  1.
         -5    1    5    5    0  503 -0.57407495763E+02  0.46268256167E+02  0.49015801155E+02  0.88662341845E+02  0.47000000000E+01 0.  1.
<mgrwt>
<rscale>  0 0.27608788E+03</rscale>
<asrwt>0</asrwt>
<pdfrwt beam="1">  1        1 0.61779735E-01 0.27608788E+03</pdfrwt>
<pdfrwt beam="2">  1       -1 0.73006570E-02 0.27608788E+03</pdfrwt>
<totfact> 0.59395016E+03</totfact>
</mgrwt>
</event>
<event>
 9    1  0.2073852E-002  0.2755199E+03  0.7818608E-02  0.1098161E+00
          4   -1    0    0  501    0  0.00000000000E+00  0.00000000000E+00  0.32734390265E+02  0.32734390265E+02  0.00000000000E+00 0.  1.
         -4   -1    0    0    0  501 -0.00000000000E+00 -0.00000000000E+00 -0.57975120695E+03  0.57975120695E+03  0.00000000000E+00 0.  1.
         36    2    1    2    0    0  0.14210854715E-13  0.00000000000E+00 -0.54701681668E+03  0.61248559721E+03  0.27551988868E+03 0.  0.
         25    2    3    3    0    0 -0.32554591684E+02  0.43558016091E+02 -0.24418749915E+03  0.28061840231E+03  0.12713005454E+03 0.  0.
         25    2    3    3    0    0  0.32554591684E+02 -0.43558016091E+02 -0.30282931753E+03  0.33186719490E+03  0.12439106596E+03 0.  0.
          5    1    4    4  502    0 -0.17573955290E+02  0.88496512088E+02 -0.15063635145E+03  0.17565271684E+03  0.47000000000E+01 0. -1.
         -5    1    4    4    0  502 -0.14980636394E+02 -0.44938495998E+02 -0.93551147704E+02  0.10496568547E+03  0.47000000000E+01 0. -1.
          5    1    5    5  503    0  0.44872646169E+02  0.33684548083E+02 -0.14774928957E+03  0.15811434382E+03  0.47000000000E+01 0. -1.
         -5    1    5    5    0  503 -0.12318054485E+02 -0.77242564173E+02 -0.15508002796E+03  0.17375285108E+03  0.47000000000E+01 0. -1.
<mgrwt>
<rscale>  0 0.27551989E+03</rscale>
<asrwt>0</asrwt>
<pdfrwt beam="1">  1        4 0.50360604E-02 0.27551989E+03</pdfrwt>
<pdfrwt beam="2">  1       -4 0.89192487E-01 0.27551989E+03</pdfrwt>
<totfact> 0.49157455E+02</totfact>
</mgrwt>
</event>
<event>
 9    1  0.2073852E-002  0.2750224E+03  0.7818608E-02  0.1098439E+00
         -1   -1    0    0    0  501 -0.00000000000E+00  0.00000000000E+00  0.14758936650E+03  0.14758936650E+03  0.00000000000E+00 0. -1.
          1   -1    0    0  501    0  0.00000000000E+00 -0.00000000000E+00 -0.12812120757E+03  0.12812120757E+03  0.00000000000E+00 0. -1.
         36    2    1    2    0    0  0.00000000000E+00  0.00000000000E+00  0.19468158926E+02  0.27571057407E+03  0.27502238353E+03 0.  0.
         25    2    3    3    0    0 -0.46127209363E+02 -0.35112788376E+02  0.50322542575E+02  0.14445153733E+03  0.12236527692E+03 0.  0.
         25    2    3    3    0    0  0.46127209363E+02  0.35112788376E+02 -0.30854383649E+02  0.13125903674E+03  0.11364996429E+03 0.  0.
          5    1    4    4  502    0  0.50217071889E+01  0.71182662476E+01  0.73400078669E+02  0.74064490858E+02  0.47000000000E+01 0.  1.
         -5    1    4    4    0  502 -0.51148916552E+02 -0.42231054624E+02 -0.23077536094E+02  0.70387046474E+02  0.47000000000E+01 0.  1.
          5    1    5    5  503    0 -0.29601255064E+02  0.45167231935E+01 -0.38604559646E+02  0.49081942864E+02  0.47000000000E+01 0.  1.
         -5    1    5    5    0  503  0.75728464427E+02  0.30596065182E+02  0.77501759971E+01  0.82177093871E+02  0.47000000000E+01 0.  1.
<mgrwt>
<rscale>  0 0.27502238E+03</rscale>
<asrwt>0</asrwt>
<pdfrwt beam="1">  1        1 0.19710955E-01 0.27502238E+03</pdfrwt>
<pdfrwt beam="2">  1       -1 0.22706056E-01 0.27502238E+03</pdfrwt>
<totfact> 0.42295862E+03</totfact>
</mgrwt>
</event>
<event>
 9    1  0.2073852E-002  0.2755121E+03  0.7818608E-02  0.1098166E+00
          2   -1    0    0  501    0  0.00000000000E+00  0.00000000000E+00  0.27604504126E+03  0.27604504126E+03  0.00000000000E+00 0. -1.
         -2   -1    0    0    0  501 -0.00000000000E+00 -0.00000000000E+00 -0.68745062852E+02  0.68745062852E+02  0.00000000000E+00 0. -1.
         36    2    1    2    0    0  0.00000000000E+00  0.00000000000E+00  0.20729997841E+03  0.34479010411E+03  0.27551213194E+03 0.  0.
         25    2    3    3    0    0 -0.26000550137E+02  0.55384572640E+02  0.12034296199E+03  0.18196903098E+03  0.12201155782E+03 0.  0.
         25    2    3    3    0    0  0.26000550137E+02 -0.55384572640E+02  0.86957016420E+02  0.16282107313E+03  0.12331139306E+03 0.  0.
          5    1    4    4  502    0 -0.48788440416E+02  0.11194687431E+02  0.12204889797E+03  0.13199869863E+03  0.47000000000E+01 0.  1.
         -5    1    4    4    0  502  0.22787890279E+02  0.44189885209E+02 -0.17059359751E+01  0.49970332355E+02  0.47000000000E+01 0.  1.
          5    1    5    5  503    0 -0.14653857809E+02  0.36271606252E+01 -0.25136931308E+02  0.29695911477E+02  0.47000000000E+01 0. -1.
         -5    1    5    5    0  503  0.40654407946E+02 -0.59011733265E+02  0.11209394773E+03  0.13312516165E+03  0.47000000000E+01 0. -1.
<mgrwt>
<rscale>  0 0.27551213E+03</rscale>
<asrwt>0</asrwt>
<pdfrwt beam="1">  1        2 0.42468467E-01 0.27551213E+03</pdfrwt>
<pdfrwt beam="2">  1       -2 0.10576164E-01 0.27551213E+03</pdfrwt>
<totfact> 0.72061584E+03</totfact>
</mgrwt>
</event>
<event>
 9    1  0.2073852E-002  0.2751904E+03  0.7818608E-02  0.1098345E+00
          2   -1    0    0  501    0  0.00000000000E+00  0.00000000000E+00  0.10064196627E+04  0.10064196627E+04  0.00000000000E+00 0.  1.
         -2   -1    0    0    0  501 -0.00000000000E+00 -0.00000000000E+00 -0.18811669835E+02  0.18811669835E+02  0.00000000000E+00 0.  1.
         36    2    1    2    0    0  0.00000000000E+00 -0.71054273576E-14  0.98760799287E+03  0.10252313325E+04  0.27519036619E+03 0.  0.
         25    2    3    3    0    0  0.55243468436E+02  0.14413894684E+02  0.48600996448E+03  0.50577526078E+03  0.12784102504E+03 0.  0.
         25    2    3    3    0    0 -0.55243468436E+02 -0.14413894684E+02  0.50159802839E+03  0.51945607176E+03  0.12237004223E+03 0.  0.
          5    1    4    4  502    0  0.37947692063E+02 -0.55130943368E+02  0.26648605139E+03  0.27480239052E+03  0.47000000000E+01 0.  1.
         -5    1    4    4    0  502  0.17295776373E+02  0.69544838052E+02  0.21952391309E+03  0.23097287027E+03  0.47000000000E+01 0.  1.
          5    1    5    5  503    0 -0.17568517378E+01  0.48966475560E+02  0.13878385941E+03  0.14725437817E+03  0.47000000000E+01 0. -1.
         -5    1    5    5    0  503 -0.53486616698E+02 -0.63380370243E+02  0.36281416898E+03  0.37220169359E+03  0.47000000000E+01 0. -1.
<mgrwt>
<rscale>  0 0.27519037E+03</rscale>
<asrwt>0</asrwt>
<pdfrwt beam="1">  1        2 0.15483375E+00 0.27519037E+03</pdfrwt>
<pdfrwt beam="2">  1       -2 0.28941038E-02 0.27519037E+03</pdfrwt>
<totfact> 0.11599809E+04</totfact>
</mgrwt>
</event>
<event>
 9    1  0.2073852E-002  0.2743762E+03  0.7818608E-02  0.1098801E+00
         -2   -1    0    0    0  501 -0.00000000000E+00  0.00000000000E+00  0.99212293819E+01  0.99212293819E+01  0.00000000000E+00 0. -1.
          2   -1    0    0  501    0  0.00000000000E+00 -0.00000000000E+00 -0.18969998464E+04  0.18969998464E+04  0.00000000000E+00 0. -1.
         36    2    1    2    0    0  0.00000000000E+00  0.00000000000E+00 -0.18870786170E+04  0.19069210758E+04  0.27437616962E+03 0.  0.
         25    2    3    3    0    0  0.10808401210E+02  0.23538247497E+02 -0.12782607249E+04  0.12845868764E+04  0.12466792544E+03 0.  0.
         25    2    3    3    0    0 -0.10808401210E+02 -0.23538247497E+02 -0.60881789213E+03  0.62233419937E+03  0.12637151298E+03 0.  0.
          5    1    4    4  502    0 -0.23761357549E+02 -0.21757590384E+02 -0.10496055633E+03  0.10989450959E+03  0.47000000000E+01 0. -1.
         -5    1    4    4    0  502  0.34569758759E+02  0.45295837881E+02 -0.11733001685E+04  0.11746923668E+04  0.47000000000E+01 0. -1.
          5    1    5    5  503    0  0.42784324265E+02 -0.18203808958E+02 -0.97017689178E+02  0.10768657798E+03  0.47000000000E+01 0. -1.
         -5    1    5    5    0  503 -0.53592725475E+02 -0.53344385389E+01 -0.51180020295E+03  0.51464762139E+03  0.47000000000E+01 0. -1.
<mgrwt>
<rscale>  0 0.27437617E+03</rscale>
<asrwt>0</asrwt>
<pdfrwt beam="1">  1        2 0.29184594E+00 0.27437617E+03</pdfrwt>
<pdfrwt beam="2">  1       -2 0.15263440E-02 0.27437617E+03</pdfrwt>
<totfact> 0.96790047E+03</totfact>
</mgrwt>
</event>
<event>
 9    1  0.2073852E-002  0.2756446E+03  0.7818608E-02  0.1098092E+00
          2   -1    0    0  501    0  0.00000000000E+00  0.00000000000E+00  0.57813841939E+03  0.57813841939E+03  0.00000000000E+00 0. -1.
         -2   -1    0    0    0  501 -0.00000000000E+00 -0.00000000000E+00 -0.32855420973E+02  0.32855420973E+02  0.00000000000E+00 0. -1.
         36    2    1    2    0    0 -0.35527136788E-14  0.00000000000E+00  0.54528299841E+03  0.61099384036E+03  0.27564456207E+03 0.  0.
         25    2    3    3    0    0 -0.22400844051E+02 -0.45668021496E+02  0.27821318892E+03  0.31078292698E+03  0.12882578627E+03 0.  0.
         25    2    3    3    0    0  0.22400844051E+02  0.45668021496E+02  0.26706980949E+03  0.30021091338E+03  0.12733005683E+03 0.  0.
          5    1    4    4  502    0  0.10164541021E+02  0.42719018399E+02  0.91727892399E+02  0.10180534697E+03  0.47000000000E+01 0.  1.
         -5    1    4    4    0  502 -0.32565385072E+02 -0.88387039895E+02  0.18648529652E+03  0.20897758001E+03  0.47000000000E+01 0.  1.
          5    1    5    5  503    0  0.59686235634E+02  0.45525866464E+02  0.81616811602E+02  0.11098849119E+03  0.47000000000E+01 0.  1.
         -5    1    5    5    0  503 -0.37285391583E+02  0.14215503160E+00  0.18545299789E+03  0.18922242219E+03  0.47000000000E+01 0.  1.
<mgrwt>
<rscale>  0 0.27564456E+03</rscale>
<asrwt>0</asrwt>
<pdfrwt beam="1">  1        2 0.88944365E-01 0.27564456E+03</pdfrwt>
<pdfrwt beam="2">  1       -2 0.50546806E-02 0.27564456E+03</pdfrwt>
<totfact> 0.10098724E+04</totfact>
</mgrwt>
</event>
<event>
 9    1  0.2073852E-002  0.2753306E+03  0.7818608E-02  0.1098267E+00
          2   -1    0    0  501    0  0.00000000000E+00  0.00000000000E+00  0.39055737060E+04  0.39055737060E+04  0.00000000000E+00 0. -1.
         -2   -1    0    0    0  501 -0.00000000000E+00 -0.00000000000E+00 -0.48524834293E+01  0.48524834293E+01  0.00000000000E+00 0. -1.
         36    2    1    2    0    0  0.35527136788E-14 -0.71054273576E-14  0.39007212225E+04  0.39104261894E+04  0.27533057724E+03 0.  0.
         25    2    3    3    0    0 -0.11824139650E+02  0.29043118673E+02  0.11459632478E+04  0.11528075022E+04  0.12144982035E+03 0.  0.
         25    2    3    3    0    0  0.11824139650E+02 -0.29043118673E+02  0.27547579748E+04  0.27576186872E+04  0.12159774432E+03 0.  0.
          5    1    4    4  502    0  0.92378425752E+01 -0.44311203543E+02  0.56582054007E+03  0.56764759671E+03  0.47000000000E+01 0. -1.
         -5    1    4    4    0  502 -0.21061982225E+02  0.73354322216E+02  0.58014270773E+03  0.58515990550E+03  0.47000000000E+01 0. -1.
          5    1    5    5  503    0  0.38096965739E+02 -0.43005556557E+00  0.28762657107E+03  0.29017701172E+03  0.47000000000E+01 0. -1.
         -5    1    5    5    0  503 -0.26272826089E+02 -0.28613063107E+02  0.24671314037E+04  0.24674416755E+04  0.47000000000E+01 0. -1.
<mgrwt>
<rscale>  0 0.27533058E+03</rscale>
<asrwt>0</asrwt>
<pdfrwt beam="1">  1        2 0.60085498E+00 0.27533058E+03</pdfrwt>
<pdfrwt beam="2">  1       -2 0.74653903E-03 0.27533058E+03</pdfrwt>
<totfact> 0.17168848E+03</totfact>
</mgrwt>
</event>
<event>
 9    1  0.2073852E-002  0.2752767E+03  0.7818608E-02  0.1098297E+00
         -2   -1    0    0    0  501 -0.00000000000E+00  0.00000000000E+00  0.52601801987E+02  0.52601801987E+02  0.00000000000E+00 0.  1.
          2   -1    0    0  501    0  0.00000000000E+00 -0.00000000000E+00 -0.36014576715E+03  0.36014576715E+03  0.00000000000E+00 0.  1.
         36    2    1    2    0    0 -0.71054273576E-14  0.71054273576E-14 -0.30754396516E+03  0.41274756914E+03  0.27527670683E+03 0.  0.
         25    2    3    3    0    0 -0.54039506796E+02 -0.29019540897E+01 -0.17250685734E+03  0.22021930012E+03  0.12573477913E+03 0.  0.
         25    2    3    3    0    0  0.54039506796E+02  0.29019540897E+01 -0.13503710782E+03  0.19252826902E+03  0.12610877943E+03 0.  0.
          5    1    4    4  502    0 -0.43459634005E+02  0.29935942843E+02 -0.98643716953E+01  0.53891523366E+02  0.47000000000E+01 0.  1.
         -5    1    4    4    0  502 -0.10579872791E+02 -0.32837896933E+02 -0.16264248564E+03  0.16632777675E+03  0.47000000000E+01 0.  1.
          5    1    5    5  503    0  0.79174624820E+02  0.40958706849E+02 -0.10452172306E+03  0.13745223707E+03  0.47000000000E+01 0. -1.
         -5    1    5    5    0  503 -0.25135118024E+02 -0.38056752759E+02 -0.30515384760E+02  0.55076031953E+02  0.47000000000E+01 0. -1.
<mgrwt>
<rscale>  0 0.27527671E+03</rscale>
<asrwt>0</asrwt>
<pdfrwt beam="1">  1        2 0.55407040E-01 0.27527671E+03</pdfrwt>
<pdfrwt beam="2">  1       -2 0.80925851E-02 0.27527671E+03</pdfrwt>
<totfact> 0.82594021E+03</totfact>
</mgrwt>
</event>
<event>
 9    1  0.2073852E-002  0.2785835E+03  0.7818608E-02  0.1096465E+00
         -1   -1    0    0    0  501 -0.00000000000E+00  0.00000000000E+00  0.60653976534E+02  0.60653976534E+02  0.00000000000E+00 0. -1.
          1   -1    0    0  501    0  0.00000000000E+00 -0.00000000000E+00 -0.31988315862E+03  0.31988315862E+03  0.00000000000E+00 0. -1.
         36    2    1    2    0    0  0.00000000000E+00  0.00000000000E+00 -0.25922918208E+03  0.38053713515E+03  0.27858345677E+03 0.  0.
         25    2    3    3    0    0 -0.41443016607E+02  0.32226130197E+02 -0.10769279776E+03  0.17365198911E+03  0.12570293369E+03 0.  0.
         25    2    3    3    0    0  0.41443016607E+02 -0.32226130197E+02 -0.15153638432E+03  0.20688514604E+03  0.13069866406E+03 0.  0.
          5    1    4    4  502    0 -0.82647021786E+02  0.16229265893E+02 -0.95784519647E+02  0.12763496185E+03  0.47000000000E+01 0. -1.
         -5    1    4    4    0  502  0.41204005179E+02  0.15996864304E+02 -0.11908278110E+02  0.46017027261E+02  0.47000000000E+01 0. -1.
          5    1    5    5  503    0  0.25127308575E+02  0.53657549264E+01  0.18441320016E+02  0.31974134016E+02  0.47000000000E+01 0. -1.
         -5    1    5    5    0  503  0.16315708033E+02 -0.37591885124E+02 -0.16997770434E+03  0.17491101203E+03  0.47000000000E+01 0. -1.
<mgrwt>
<rscale>  0 0.27858346E+03</rscale>
<asrwt>0</asrwt>
<pdfrwt beam="1">  1        1 0.49212792E-01 0.27858346E+03</pdfrwt>
<pdfrwt beam="2">  1       -1 0.93313813E-02 0.27858346E+03</pdfrwt>
<totfact> 0.54491312E+03</totfact>
</mgrwt>
</event>
<event>
 9    1  0.2073852E-002  0.2753385E+03  0.7818608E-02  0.1098263E+00
         -4   -1    0    0    0  501 -0.00000000000E+00  0.00000000000E+00  0.17000502182E+03  0.17000502182E+03  0.00000000000E+00 0. -1.
          4   -1    0    0  501    0  0.00000000000E+00 -0.00000000000E+00 -0.11148390445E+03  0.11148390445E+03  0.00000000000E+00 0. -1.
         36    2    1    2    0    0  0.71054273576E-14 -0.17763568394E-14  0.58521117373E+02  0.28148892627E+03  0.27533850881E+03 0.  0.
         25    2    3    3    0    0  0.64655275397E+01  0.15788986222E+02 -0.24761314620E+02  0.12962041965E+03  0.12608423912E+03 0.  0.
         25    2    3    3    0    0 -0.64655275397E+01 -0.15788986222E+02  0.83282431993E+02  0.15186850663E+03  0.12584508212E+03 0.  0.
          5    1    4    4  502    0  0.61653268274E+02  0.29114561746E+02 -0.24647334941E+02  0.72652352434E+02  0.47000000000E+01 0. -1.
         -5    1    4    4    0  502 -0.55187740734E+02 -0.13325575524E+02 -0.11397967869E+00  0.56968067211E+02  0.47000000000E+01 0. -1.
          5    1    5    5  503    0 -0.33645386375E+02 -0.29506685308E+02 -0.16123424261E+02  0.47798653874E+02  0.47000000000E+01 0.  1.
         -5    1    5    5    0  503  0.27179858835E+02  0.13717699087E+02  0.99405856254E+02  0.10406985275E+03  0.47000000000E+01 0.  1.
<mgrwt>
<rscale>  0 0.27533851E+03</rscale>
<asrwt>0</asrwt>
<pdfrwt beam="1">  1        4 0.17151370E-01 0.27533851E+03</pdfrwt>
<pdfrwt beam="2">  1       -4 0.26154619E-01 0.27533851E+03</pdfrwt>
<totfact> 0.76810872E+02</totfact>
</mgrwt>
</event>
<event>
 9    1  0.2073852E-002  0.2747931E+03  0.7818608E-02  0.1098567E+00
         -3   -1    0    0    0  501 -0.00000000000E+00  0.00000000000E+00  0.21251046770E+04  0.21251046770E+04  0.00000000000E+00 0.  1.
          3   -1    0    0  501    0  0.00000000000E+00 -0.00000000000E+00 -0.88832387209E+01  0.88832387209E+01  0.00000000000E+00 0.  1.
         36    2    1    2    0    0  0.00000000000E+00 -0.14210854715E-13  0.21162214383E+04  0.21339879157E+04  0.27479310146E+03 0.  0.
         25    2    3    3    0    0  0.12452601689E+02 -0.61418847951E+02  0.13729248749E+04  0.13798922980E+04  0.12350182126E+03 0.  0.
         25    2    3    3    0    0 -0.12452601689E+02  0.61418847951E+02  0.74329656338E+03  0.75409561770E+03  0.11064844023E+03 0.  0.
          5    1    4    4  502    0 -0.47618104569E+02 -0.83312703814E+01  0.29417769112E+03  0.29816018832E+03  0.47000000000E+01 0.  1.
         -5    1    4    4    0  502  0.60070706259E+02 -0.53087577570E+02  0.10787471838E+04  0.10817321097E+04  0.47000000000E+01 0.  1.
          5    1    5    5  503    0  0.17551587717E+02  0.79016031991E+02  0.35148944112E+03  0.36071943219E+03  0.47000000000E+01 0. -1.
         -5    1    5    5    0  503 -0.30004189406E+02 -0.17597184039E+02  0.39180712226E+03  0.39337618551E+03  0.47000000000E+01 0. -1.
<mgrwt>
<rscale>  0 0.27479310E+03</rscale>
<asrwt>0</asrwt>
<pdfrwt beam="1">  1        3 0.13666538E-02 0.27479310E+03</pdfrwt>
<pdfrwt beam="2">  1       -3 0.32693878E+00 0.27479310E+03</pdfrwt>
<totfact> 0.13577270E+02</totfact>
</mgrwt>
</event>
<event>
 9    1  0.2073852E-002  0.2751744E+03  0.7818608E-02  0.1098354E+00
         -4   -1    0    0    0  501 -0.00000000000E+00  0.00000000000E+00  0.91810507046E+02  0.91810507046E+02  0.00000000000E+00 0.  1.
          4   -1    0    0  501    0  0.00000000000E+00 -0.00000000000E+00 -0.20618810499E+03  0.20618810499E+03  0.00000000000E+00 0.  1.
         36    2    1    2    0    0  0.00000000000E+00  0.00000000000E+00 -0.11437759795E+03  0.29799861204E+03  0.27517437720E+03 0.  0.
         25    2    3    3    0    0 -0.54830095481E+02  0.66549862004E+02 -0.21045644968E+02  0.11989245014E+03  0.80598119859E+02 0.  0.
         25    2    3    3    0    0  0.54830095481E+02 -0.66549862004E+02 -0.93331952977E+02  0.17810616190E+03  0.12480275621E+03 0.  0.
          5    1    4    4  502    0  0.44299642721E+01  0.52068760184E+02 -0.25906562631E+02  0.58515129307E+02  0.47000000000E+01 0. -1.
         -5    1    4    4    0  502 -0.59260059753E+02  0.14481101820E+02  0.48609176624E+01  0.61377320831E+02  0.47000000000E+01 0. -1.
          5    1    5    5  503    0 -0.27635401329E+02 -0.59346980568E+02 -0.59387179951E+02  0.88513878299E+02  0.47000000000E+01 0.  1.
         -5    1    5    5    0  503  0.82465496809E+02 -0.72028814360E+01 -0.33944773026E+02  0.89592283601E+02  0.47000000000E+01 0.  1.
<mgrwt>
<rscale>  0 0.27517438E+03</rscale>
<asrwt>0</asrwt>
<pdfrwt beam="1">  1        4 0.31721247E-01 0.27517438E+03</pdfrwt>
<pdfrwt beam="2">  1       -4 0.14124694E-01 0.27517438E+03</pdfrwt>
<totfact> 0.75070744E+02</totfact>
</mgrwt>
</event>
<event>
 9    1  0.2073852E-002  0.2749214E+03  0.7818608E-02  0.1098496E+00
          1   -1    0    0  501    0  0.00000000000E+00  0.00000000000E+00  0.27336916361E+03  0.27336916361E+03  0.00000000000E+00 0. -1.
         -1   -1    0    0    0  501 -0.00000000000E+00 -0.00000000000E+00 -0.69120597421E+02  0.69120597421E+02  0.00000000000E+00 0. -1.
         36    2    1    2    0    0  0.00000000000E+00 -0.10658141036E-13  0.20424856619E+03  0.34248976103E+03  0.27492136989E+03 0.  0.
         25    2    3    3    0    0  0.55195153342E+02 -0.31190041118E+02  0.14072324386E+03  0.19165953997E+03  0.11362668825E+03 0.  0.
         25    2    3    3    0    0 -0.55195153342E+02  0.31190041118E+02  0.63525322328E+02  0.15083022106E+03  0.12122279237E+03 0.  0.
          5    1    4    4  502    0  0.25391372835E+02 -0.73551372135E+02  0.88970972808E+02  0.11828968746E+03  0.47000000000E+01 0. -1.
         -5    1    4    4    0  502  0.29803780506E+02  0.42361331018E+02  0.51752271054E+02  0.73369852510E+02  0.47000000000E+01 0. -1.
          5    1    5    5  503    0 -0.80079429114E+02 -0.49622455012E+01  0.69544604015E+02  0.10628208125E+03  0.47000000000E+01 0. -1.
         -5    1    5    5    0  503  0.24884275772E+02  0.36152286619E+02 -0.60192816867E+01  0.44548139810E+02  0.47000000000E+01 0. -1.
<mgrwt>
<rscale>  0 0.27492137E+03</rscale>
<asrwt>0</asrwt>
<pdfrwt beam="1">  1        1 0.42056794E-01 0.27492137E+03</pdfrwt>
<pdfrwt beam="2">  1       -1 0.10633938E-01 0.27492137E+03</pdfrwt>
<totfact> 0.54233182E+03</totfact>
</mgrwt>
</event>
<event>
 9    1  0.2073852E-002  0.2710882E+03  0.7818608E-02  0.1100658E+00
         -2   -1    0    0    0  501 -0.00000000000E+00  0.00000000000E+00  0.44107343053E+02  0.44107343053E+02  0.00000000000E+00 0. -1.
          2   -1    0    0  501    0  0.00000000000E+00 -0.00000000000E+00 -0.41653380098E+03  0.41653380098E+03  0.00000000000E+00 0. -1.
         36    2    1    2    0    0  0.00000000000E+00  0.71054273576E-14 -0.37242645793E+03  0.46064114404E+03  0.27108817203E+03 0.  0.
         25    2    3    3    0    0 -0.10073361781E+02 -0.58672395043E+02 -0.19731975111E+03  0.23961004936E+03  0.12220461948E+03 0.  0.
         25    2    3    3    0    0  0.10073361781E+02  0.58672395043E+02 -0.17510670682E+03  0.22103109467E+03  0.12103083689E+03 0.  0.
          5    1    4    4  502    0  0.55741181193E+02 -0.34161662930E+02 -0.94836958332E+02  0.11528329090E+03  0.47000000000E+01 0. -1.
         -5    1    4    4    0  502 -0.65814542974E+02 -0.24510732114E+02 -0.10248279277E+03  0.12432675846E+03  0.47000000000E+01 0. -1.
          5    1    5    5  503    0  0.18773512071E+02 -0.77103181736E+00 -0.15688506184E+03  0.15807609521E+03  0.47000000000E+01 0.  1.
         -5    1    5    5    0  503 -0.87001502900E+01  0.59443426861E+02 -0.18221644980E+02  0.62954999466E+02  0.47000000000E+01 0.  1.
<mgrwt>
<rscale>  0 0.27108817E+03</rscale>
<asrwt>0</asrwt>
<pdfrwt beam="1">  1        2 0.64082123E-01 0.27108817E+03</pdfrwt>
<pdfrwt beam="2">  1       -2 0.67857452E-02 0.27108817E+03</pdfrwt>
<totfact> 0.92692403E+03</totfact>
</mgrwt>
</event>
<event>
 9    1  0.2073852E-002  0.2746876E+03  0.7818608E-02  0.1098626E+00
         -2   -1    0    0    0  501 -0.00000000000E+00  0.00000000000E+00  0.55213794109E+01  0.55213794109E+01  0.00000000000E+00 0.  1.
          2   -1    0    0  501    0  0.00000000000E+00 -0.00000000000E+00 -0.34164150632E+04  0.34164150632E+04  0.00000000000E+00 0.  1.
         36    2    1    2    0    0  0.00000000000E+00  0.00000000000E+00 -0.34108936837E+04  0.34219364426E+04  0.27468763197E+03 0.  0.
         25    2    3    3    0    0 -0.42122807253E+02  0.16139619820E+02 -0.19727531174E+04  0.19771452274E+04  0.12374800949E+03 0.  0.
         25    2    3    3    0    0  0.42122807253E+02 -0.16139619820E+02 -0.14381405663E+04  0.14447912151E+04  0.13091427959E+03 0.  0.
          5    1    4    4  502    0 -0.20346815675E+02 -0.30842410792E+02 -0.16340322657E+04  0.16344567240E+04  0.47000000000E+01 0.  1.
         -5    1    4    4    0  502 -0.21775991578E+02  0.46982030612E+02 -0.33872085173E+03  0.34268850346E+03  0.47000000000E+01 0.  1.
          5    1    5    5  503    0  0.81342302574E+02 -0.41436754799E+02 -0.98199444503E+03  0.98623970458E+03  0.47000000000E+01 0. -1.
         -5    1    5    5    0  503 -0.39219495320E+02  0.25297134978E+02 -0.45614612129E+03  0.45855151054E+03  0.47000000000E+01 0. -1.
<mgrwt>
<rscale>  0 0.27468763E+03</rscale>
<asrwt>0</asrwt>
<pdfrwt beam="1">  1        2 0.52560182E+00 0.27468763E+03</pdfrwt>
<pdfrwt beam="2">  1       -2 0.84944380E-03 0.27468763E+03</pdfrwt>
<totfact> 0.31089033E+03</totfact>
</mgrwt>
</event>
<event>
 9    1  0.2073852E-002  0.2752423E+03  0.7818608E-02  0.1098316E+00
          1   -1    0    0  501    0  0.00000000000E+00  0.00000000000E+00  0.49980529441E+02  0.49980529441E+02  0.00000000000E+00 0. -1.
         -1   -1    0    0    0  501 -0.00000000000E+00 -0.00000000000E+00 -0.37893914096E+03  0.37893914096E+03  0.00000000000E+00 0. -1.
         36    2    1    2    0    0 -0.17763568394E-14  0.71054273576E-14 -0.32895861152E+03  0.42891967041E+03  0.27524228521E+03 0.  0.
         25    2    3    3    0    0 -0.14249172008E+02  0.37401284964E+02 -0.18347334897E+03  0.23114187382E+03  0.13476721053E+03 0.  0.
         25    2    3    3    0    0  0.14249172008E+02 -0.37401284964E+02 -0.14548526256E+03  0.19777779658E+03  0.12786008048E+03 0.  0.
          5    1    4    4  502    0 -0.46307972386E+01  0.52245474299E+02 -0.63116508572E+01  0.53037352916E+02  0.47000000000E+01 0.  1.
         -5    1    4    4    0  502 -0.96183747694E+01 -0.14844189334E+02 -0.17716169811E+03  0.17810452091E+03  0.47000000000E+01 0.  1.
          5    1    5    5  503    0  0.26907541690E+02 -0.24175842033E+02 -0.16595501462E+03  0.16991657957E+03  0.47000000000E+01 0.  1.
         -5    1    5    5    0  503 -0.12658369682E+02 -0.13225442931E+02  0.20469752061E+02  0.27861217008E+02  0.47000000000E+01 0.  1.
<mgrwt>
<rscale>  0 0.27524229E+03</rscale>
<asrwt>0</asrwt>
<pdfrwt beam="1">  1        1 0.76893122E-02 0.27524229E+03</pdfrwt>
<pdfrwt beam="2">  1       -1 0.58298330E-01 0.27524229E+03</pdfrwt>
<totfact> 0.28115840E+03</totfact>
</mgrwt>
</event>
<event>
 9    1  0.2073852E-002  0.2750968E+03  0.7818608E-02  0.1098397E+00
         -1   -1    0    0    0  501 -0.00000000000E+00  0.00000000000E+00  0.90319400143E+02  0.90319400143E+02  0.00000000000E+00 0. -1.
          1   -1    0    0  501    0  0.00000000000E+00 -0.00000000000E+00 -0.20947399709E+03  0.20947399709E+03  0.00000000000E+00 0. -1.
         36    2    1    2    0    0 -0.14210854715E-13  0.17763568394E-14 -0.11915459694E+03  0.29979339723E+03  0.27509682486E+03 0.  0.
         25    2    3    3    0    0  0.51770467173E+02 -0.45536776789E+01 -0.84828019673E+02  0.16121089497E+03  0.12685520283E+03 0.  0.
         25    2    3    3    0    0 -0.51770467173E+02  0.45536776789E+01 -0.34326577270E+02  0.13858250225E+03  0.12379773331E+03 0.  0.
          5    1    4    4  502    0 -0.14547634372E+02  0.10875079572E+02  0.25391426867E+02  0.31570802648E+02  0.47000000000E+01 0. -1.
         -5    1    4    4    0  502  0.66318101544E+02 -0.15428757251E+02 -0.11021944654E+03  0.12964009233E+03  0.47000000000E+01 0. -1.
          5    1    5    5  503    0  0.14334281027E+02 -0.39265970005E+02 -0.41145736116E+02  0.58841733604E+02  0.47000000000E+01 0. -1.
         -5    1    5    5    0  503 -0.66104748199E+02  0.43819647684E+02  0.68191588459E+01  0.79740768651E+02  0.47000000000E+01 0. -1.
<mgrwt>
<rscale>  0 0.27509682E+03</rscale>
<asrwt>0</asrwt>
<pdfrwt beam="1">  1        1 0.32226768E-01 0.27509682E+03</pdfrwt>
<pdfrwt beam="2">  1       -1 0.13895293E-01 0.27509682E+03</pdfrwt>
<totfact> 0.49869746E+03</totfact>
</mgrwt>
</event>
<event>
 9    1  0.2073852E-002  0.2750964E+03  0.7818608E-02  0.1098398E+00
          2   -1    0    0  501    0  0.00000000000E+00  0.00000000000E+00  0.22171318484E+02  0.22171318484E+02  0.00000000000E+00 0. -1.
         -2   -1    0    0    0  501 -0.00000000000E+00 -0.00000000000E+00 -0.85333239833E+03  0.85333239833E+03  0.00000000000E+00 0. -1.
         36    2    1    2    0    0 -0.17763568394E-14 -0.14210854715E-13 -0.83116107984E+03  0.87550371681E+03  0.27509637858E+03 0.  0.
         25    2    3    3    0    0 -0.15916598458E+02 -0.48313393687E+02 -0.49689700810E+03  0.51447852606E+03  0.12326392415E+03 0.  0.
         25    2    3    3    0    0  0.15916598458E+02  0.48313393687E+02 -0.33426407174E+03  0.36102519075E+03  0.12656696483E+03 0.  0.
          5    1    4    4  502    0 -0.28763615297E+02  0.28618449880E+01 -0.42046989011E+03  0.42148849831E+03  0.47000000000E+01 0.  1.
         -5    1    4    4    0  502  0.12847016839E+02 -0.51175238675E+02 -0.76427117994E+02  0.92990027745E+02  0.47000000000E+01 0.  1.
          5    1    5    5  503    0  0.33801978903E+02  0.18685297049E+02 -0.32149151298E+03  0.32383730023E+03  0.47000000000E+01 0. -1.
         -5    1    5    5    0  503 -0.17885380445E+02  0.29628096638E+02 -0.12772558756E+02  0.37187890519E+02  0.47000000000E+01 0. -1.
<mgrwt>
<rscale>  0 0.27509638E+03</rscale>
<asrwt>0</asrwt>
<pdfrwt beam="1">  1        2 0.34109725E-02 0.27509638E+03</pdfrwt>
<pdfrwt beam="2">  1       -2 0.13128189E+00 0.27509638E+03</pdfrwt>
<totfact> 0.11701755E+03</totfact>
</mgrwt>
</event>
<event>
 9    1  0.2073852E-002  0.2743295E+03  0.7818608E-02  0.1098827E+00
         -1   -1    0    0    0  501 -0.00000000000E+00  0.00000000000E+00  0.56041070569E+02  0.56041070569E+02  0.00000000000E+00 0.  1.
          1   -1    0    0  501    0  0.00000000000E+00 -0.00000000000E+00 -0.33572102117E+03  0.33572102117E+03  0.00000000000E+00 0.  1.
         36    2    1    2    0    0  0.00000000000E+00  0.00000000000E+00 -0.27967995061E+03  0.39176209174E+03  0.27432947665E+03 0.  0.
         25    2    3    3    0    0  0.46002769203E+02  0.36888004850E+01 -0.84607235262E+02  0.15653136651E+03  0.12334432463E+03 0.  0.
         25    2    3    3    0    0 -0.46002769203E+02 -0.36888004850E+01 -0.19507271534E+03  0.23523072524E+03  0.12308642411E+03 0.  0.
          5    1    4    4  502    0  0.46166641426E+01  0.56710778410E+02 -0.13758486342E+02  0.58726586161E+02  0.47000000000E+01 0.  1.
         -5    1    4    4    0  502  0.41386105060E+02 -0.53021977925E+02 -0.70848748919E+02  0.97804780346E+02  0.47000000000E+01 0.  1.
          5    1    5    5  503    0  0.27690831492E+02 -0.40225686533E+02 -0.71821331400E+02  0.86978627546E+02  0.47000000000E+01 0.  1.
         -5    1    5    5    0  503 -0.73693600695E+02  0.36536886048E+02 -0.12325138394E+03  0.14825209769E+03  0.47000000000E+01 0.  1.
<mgrwt>
<rscale>  0 0.27432948E+03</rscale>
<asrwt>0</asrwt>
<pdfrwt beam="1">  1        1 0.51649386E-01 0.27432948E+03</pdfrwt>
<pdfrwt beam="2">  1       -1 0.86217034E-02 0.27432948E+03</pdfrwt>
<totfact> 0.57861582E+03</totfact>
</mgrwt>
</event>
<event>
 9    1  0.2073852E-002  0.2744514E+03  0.7818608E-02  0.1098759E+00
         -2   -1    0    0    0  501 -0.00000000000E+00  0.00000000000E+00  0.23152478948E+02  0.23152478948E+02  0.00000000000E+00 0.  1.
          2   -1    0    0  501    0  0.00000000000E+00 -0.00000000000E+00 -0.81334231058E+03  0.81334231058E+03  0.00000000000E+00 0.  1.
         36    2    1    2    0    0  0.00000000000E+00  0.35527136788E-14 -0.79018983164E+03  0.83649478953E+03  0.27445138530E+03 0.  0.
         25    2    3    3    0    0 -0.34996996021E+02  0.28484372998E+02 -0.28954645346E+03  0.31895494257E+03  0.12593235266E+03 0.  0.
         25    2    3    3    0    0  0.34996996021E+02 -0.28484372998E+02 -0.50064337818E+03  0.51753984696E+03  0.12315661509E+03 0.  0.
          5    1    4    4  502    0  0.26627750535E+02  0.45212723766E+02 -0.21171858230E+03  0.21817441550E+03  0.47000000000E+01 0.  1.
         -5    1    4    4    0  502 -0.61624746556E+02 -0.16728350768E+02 -0.77827871157E+02  0.10078052707E+03  0.47000000000E+01 0.  1.
          5    1    5    5  503    0  0.29099103909E+02  0.24341485954E+02 -0.46158071542E+02  0.59932656835E+02  0.47000000000E+01 0. -1.
         -5    1    5    5    0  503  0.58978921126E+01 -0.52825858952E+02 -0.45448530663E+03  0.45760719012E+03  0.47000000000E+01 0. -1.
<mgrwt>
<rscale>  0 0.27445139E+03</rscale>
<asrwt>0</asrwt>
<pdfrwt beam="1">  1        2 0.12512960E+00 0.27445139E+03</pdfrwt>
<pdfrwt beam="2">  1       -2 0.35619195E-02 0.27445139E+03</pdfrwt>
<totfact> 0.11330030E+04</totfact>
</mgrwt>
</event>
<event>
 9    1  0.2073852E-002  0.2753065E+03  0.7818608E-02  0.1098280E+00
          2   -1    0    0  501    0  0.00000000000E+00  0.00000000000E+00  0.36049903366E+02  0.36049903366E+02  0.00000000000E+00 0.  1.
         -2   -1    0    0    0  501 -0.00000000000E+00 -0.00000000000E+00 -0.52561613954E+03  0.52561613954E+03  0.00000000000E+00 0.  1.
         36    2    1    2    0    0  0.71054273576E-14  0.00000000000E+00 -0.48956623617E+03  0.56166604290E+03  0.27530645498E+03 0.  0.
         25    2    3    3    0    0  0.36515724456E+02  0.41084032346E+01 -0.14554154384E+03  0.19294430169E+03  0.12122246269E+03 0.  0.
         25    2    3    3    0    0 -0.36515724456E+02 -0.41084032346E+01 -0.34402469233E+03  0.36872174121E+03  0.12748512227E+03 0.  0.
          5    1    4    4  502    0  0.31242307197E+02 -0.56628228457E+02 -0.84848928755E+02  0.10679077080E+03  0.47000000000E+01 0.  1.
         -5    1    4    4    0  502  0.52734172594E+01  0.60736631691E+02 -0.60692615087E+02  0.86153530891E+02  0.47000000000E+01 0.  1.
          5    1    5    5  503    0 -0.56911563427E+02  0.48555357429E+02 -0.17263758189E+03  0.18820832465E+03  0.47000000000E+01 0. -1.
         -5    1    5    5    0  503  0.20395838971E+02 -0.52663760663E+02 -0.17138711044E+03  0.18051341656E+03  0.47000000000E+01 0. -1.
<mgrwt>
<rscale>  0 0.27530645E+03</rscale>
<asrwt>0</asrwt>
<pdfrwt beam="1">  1        2 0.55461386E-02 0.27530645E+03</pdfrwt>
<pdfrwt beam="2">  1       -2 0.80864027E-01 0.27530645E+03</pdfrwt>
<totfact> 0.19024583E+03</totfact>
</mgrwt>
</event>
<event>
 9    1  0.2073852E-002  0.2747932E+03  0.7818608E-02  0.1098567E+00
         -2   -1    0    0    0  501 -0.00000000000E+00  0.00000000000E+00  0.19296239760E+02  0.19296239760E+02  0.00000000000E+00 0.  1.
          2   -1    0    0  501    0  0.00000000000E+00 -0.00000000000E+00 -0.97831651414E+03  0.97831651414E+03  0.00000000000E+00 0.  1.
         36    2    1    2    0    0 -0.71054273576E-14  0.00000000000E+00 -0.95902027438E+03  0.99761275390E+03  0.27479323149E+03 0.  0.
         25    2    3    3    0    0  0.41367356941E+02 -0.37965168472E+02 -0.52415596068E+03  0.54188448037E+03  0.12548588252E+03 0.  0.
         25    2    3    3    0    0 -0.41367356941E+02  0.37965168472E+02 -0.43486431369E+03  0.45572827352E+03  0.12421222053E+03 0.  0.
          5    1    4    4  502    0  0.15705888875E+02  0.45460710195E+02 -0.22969376254E+03  0.23472252910E+03  0.47000000000E+01 0.  1.
         -5    1    4    4    0  502  0.25661468066E+02 -0.83425878667E+02 -0.29446219814E+03  0.30716195127E+03  0.47000000000E+01 0.  1.
          5    1    5    5  503    0 -0.32884074864E+02 -0.43162305865E+02 -0.16379988201E+03  0.17261760737E+03  0.47000000000E+01 0.  1.
         -5    1    5    5    0  503 -0.84832820772E+01  0.81127474338E+02 -0.27106443169E+03  0.28311066616E+03  0.47000000000E+01 0.  1.
<mgrwt>
<rscale>  0 0.27479323E+03</rscale>
<asrwt>0</asrwt>
<pdfrwt beam="1">  1        2 0.15051020E+00 0.27479323E+03</pdfrwt>
<pdfrwt beam="2">  1       -2 0.29686529E-02 0.27479323E+03</pdfrwt>
<totfact> 0.11622066E+04</totfact>
</mgrwt>
</event>
<event>
 9    1  0.2073852E-002  0.2753086E+03  0.7818608E-02  0.1098279E+00
         -1   -1    0    0    0  501 -0.00000000000E+00  0.00000000000E+00  0.11297761113E+03  0.11297761113E+03  0.00000000000E+00 0. -1.
          1   -1    0    0  501    0  0.00000000000E+00 -0.00000000000E+00 -0.16772084169E+03  0.16772084169E+03  0.00000000000E+00 0. -1.
         36    2    1    2    0    0  0.00000000000E+00 -0.35527136788E-14 -0.54743230565E+02  0.28069845282E+03  0.27530855439E+03 0.  0.
         25    2    3    3    0    0 -0.45196277421E+02  0.89659683527E+01 -0.74059160948E+02  0.14592661266E+03  0.11699027686E+03 0.  0.
         25    2    3    3    0    0  0.45196277421E+02 -0.89659683527E+01  0.19315930383E+02  0.13477184016E+03  0.12516889251E+03 0.  0.
          5    1    4    4  502    0  0.16623916374E+02  0.26513598159E+02 -0.75088506452E+02  0.81484349934E+02  0.47000000000E+01 0. -1.
         -5    1    4    4    0  502 -0.61820193795E+02 -0.17547629807E+02  0.10293455047E+01  0.64442262722E+02  0.47000000000E+01 0. -1.
          5    1    5    5  503    0 -0.23975221160E+02  0.22069945826E+02 -0.29724014158E+02  0.44356518755E+02  0.47000000000E+01 0. -1.
         -5    1    5    5    0  503  0.69171498581E+02 -0.31035914178E+02  0.49039944540E+02  0.90415321408E+02  0.47000000000E+01 0. -1.
<mgrwt>
<rscale>  0 0.27530855E+03</rscale>
<asrwt>0</asrwt>
<pdfrwt beam="1">  1        1 0.25803206E-01 0.27530855E+03</pdfrwt>
<pdfrwt beam="2">  1       -1 0.17381171E-01 0.27530855E+03</pdfrwt>
<totfact> 0.46260785E+03</totfact>
</mgrwt>
</event>
<event>
 9    1  0.2073852E-002  0.2736736E+03  0.7818608E-02  0.1099195E+00
          2   -1    0    0  501    0  0.00000000000E+00  0.00000000000E+00  0.23235446893E+04  0.23235446893E+04  0.00000000000E+00 0.  1.
         -2   -1    0    0    0  501 -0.00000000000E+00 -0.00000000000E+00 -0.80585133900E+01  0.80585133900E+01  0.00000000000E+00 0.  1.
         36    2    1    2    0    0  0.71054273576E-14  0.17763568394E-14  0.23154861759E+04  0.23316032026E+04  0.27367364499E+03 0.  0.
         25    2    3    3    0    0 -0.51016702127E+02 -0.19325954659E+01  0.94806722748E+03  0.95772007576E+03  0.12565761764E+03 0.  0.
         25    2    3    3    0    0  0.51016702127E+02  0.19325954659E+01  0.13674189484E+04  0.13738831269E+04  0.12293830613E+03 0.  0.
          5    1    4    4  502    0  0.63166715566E+01  0.10051430299E+02  0.65114379480E+01  0.14332495064E+02  0.47000000000E+01 0. -1.
         -5    1    4    4    0  502 -0.57333373683E+02 -0.11984025764E+02  0.94155578953E+03  0.94338758069E+03  0.47000000000E+01 0. -1.
          5    1    5    5  503    0  0.13130839541E+01 -0.56210291052E+02  0.60020905776E+03  0.60285514349E+03  0.47000000000E+01 0. -1.
         -5    1    5    5    0  503  0.49703618173E+02  0.58142886517E+02  0.76720989063E+03  0.77102798340E+03  0.47000000000E+01 0. -1.
<mgrwt>
<rscale>  0 0.27367364E+03</rscale>
<asrwt>0</asrwt>
<pdfrwt beam="1">  1        2 0.35746788E+00 0.27367364E+03</pdfrwt>
<pdfrwt beam="2">  1       -2 0.12397731E-02 0.27367364E+03</pdfrwt>
<totfact> 0.77952835E+03</totfact>
</mgrwt>
</event>
<event>
 9    1  0.2073852E-002  0.2765404E+03  0.7818608E-02  0.1097594E+00
         -2   -1    0    0    0  501 -0.00000000000E+00  0.00000000000E+00  0.20534335798E+03  0.20534335798E+03  0.00000000000E+00 0. -1.
          2   -1    0    0  501    0  0.00000000000E+00 -0.00000000000E+00 -0.93105725681E+02  0.93105725681E+02  0.00000000000E+00 0. -1.
         36    2    1    2    0    0  0.00000000000E+00  0.17763568394E-14  0.11223763230E+03  0.29844908366E+03  0.27654035770E+03 0.  0.
         25    2    3    3    0    0 -0.69868096527E+02  0.20287371128E+01  0.44643815940E+02  0.14691288772E+03  0.12126277083E+03 0.  0.
         25    2    3    3    0    0  0.69868096527E+02 -0.20287371128E+01  0.67593816361E+02  0.15153619594E+03  0.11622662339E+03 0.  0.
          5    1    4    4  502    0 -0.35930025392E+02 -0.36249754382E+02 -0.27640279871E+02  0.58233036060E+02  0.47000000000E+01 0.  1.
         -5    1    4    4    0  502 -0.33938071135E+02  0.38278491495E+02  0.72284095811E+02  0.88679851662E+02  0.47000000000E+01 0.  1.
          5    1    5    5  503    0  0.82084288243E+02  0.47080792045E+01  0.91724312807E+02  0.12326976899E+03  0.47000000000E+01 0.  1.
         -5    1    5    5    0  503 -0.12216191716E+02 -0.67368163173E+01 -0.24130496446E+02  0.28266426956E+02  0.47000000000E+01 0.  1.
<mgrwt>
<rscale>  0 0.27654036E+03</rscale>
<asrwt>0</asrwt>
<pdfrwt beam="1">  1        2 0.14323958E-01 0.27654036E+03</pdfrwt>
<pdfrwt beam="2">  1       -2 0.31591286E-01 0.27654036E+03</pdfrwt>
<totfact> 0.38108285E+03</totfact>
</mgrwt>
</event>
<event>
 9    1  0.2073852E-002  0.2746940E+03  0.7818608E-02  0.1098623E+00
         -1   -1    0    0    0  501 -0.00000000000E+00  0.00000000000E+00  0.95365122800E+01  0.95365122800E+01  0.00000000000E+00 0. -1.
          1   -1    0    0  501    0  0.00000000000E+00 -0.00000000000E+00 -0.19781028256E+04  0.19781028256E+04  0.00000000000E+00 0. -1.
         36    2    1    2    0    0  0.00000000000E+00  0.00000000000E+00 -0.19685663134E+04  0.19876393379E+04  0.27469402533E+03 0.  0.
         25    2    3    3    0    0  0.39096942565E+02 -0.15111680174E+02 -0.98138465742E+03  0.99100872883E+03  0.13124603237E+03 0.  0.
         25    2    3    3    0    0 -0.39096942565E+02  0.15111680174E+02 -0.98718165595E+03  0.99663060909E+03  0.13033808095E+03 0.  0.
          5    1    4    4  502    0  0.24348742997E+02 -0.34344090004E+02 -0.95061924774E+03  0.95156262115E+03  0.47000000000E+01 0.  1.
         -5    1    4    4    0  502  0.14748199568E+02  0.19232409831E+02 -0.30765409678E+02  0.39446107680E+02  0.47000000000E+01 0.  1.
          5    1    5    5  503    0  0.19080835570E+02 -0.41657390382E+02 -0.55046564889E+03  0.55238929848E+03  0.47000000000E+01 0.  1.
         -5    1    5    5    0  503 -0.58177778135E+02  0.56769070556E+02 -0.43671600705E+03  0.44424131062E+03  0.47000000000E+01 0.  1.
<mgrwt>
<rscale>  0 0.27469403E+03</rscale>
<asrwt>0</asrwt>
<pdfrwt beam="1">  1        1 0.30432349E+00 0.27469403E+03</pdfrwt>
<pdfrwt beam="2">  1       -1 0.14671558E-02 0.27469403E+03</pdfrwt>
<totfact> 0.37577679E+03</totfact>
</mgrwt>
</event>
<event>
 9    1  0.2073852E-002  0.2754060E+03  0.7818608E-02  0.1098225E+00
         -2   -1    0    0    0  501 -0.00000000000E+00  0.00000000000E+00  0.88897589350E+02  0.88897589350E+02  0.00000000000E+00 0.  1.
          2   -1    0    0  501    0  0.00000000000E+00 -0.00000000000E+00 -0.21330293590E+03  0.21330293590E+03  0.00000000000E+00 0.  1.
         36    2    1    2    0    0  0.00000000000E+00  0.17763568394E-14 -0.12440534655E+03  0.30220052525E+03  0.27540600431E+03 0.  0.
         25    2    3    3    0    0  0.65697667110E+02  0.95887051384E+01 -0.44100392923E+02  0.14873915618E+03  0.12558011464E+03 0.  0.
         25    2    3    3    0    0 -0.65697667110E+02 -0.95887051384E+01 -0.80304953625E+02  0.15346136907E+03  0.11266489911E+03 0.  0.
          5    1    4    4  502    0  0.14738156706E+02  0.75550968742E+01  0.43769010586E+02  0.47033063260E+02  0.47000000000E+01 0. -1.
         -5    1    4    4    0  502  0.50959510404E+02  0.20336082642E+01 -0.87869403510E+02  0.10170609292E+03  0.47000000000E+01 0. -1.
          5    1    5    5  503    0 -0.24656274918E+02  0.11905434220E+02 -0.99342097854E+02  0.10315335023E+03  0.47000000000E+01 0. -1.
         -5    1    5    5    0  503 -0.41041392192E+02 -0.21494139359E+02  0.19037144229E+02  0.50308018846E+02  0.47000000000E+01 0. -1.
<mgrwt>
<rscale>  0 0.27540600E+03</rscale>
<asrwt>0</asrwt>
<pdfrwt beam="1">  1        2 0.32815836E-01 0.27540600E+03</pdfrwt>
<pdfrwt beam="2">  1       -2 0.13676552E-01 0.27540600E+03</pdfrwt>
<totfact> 0.62881390E+03</totfact>
</mgrwt>
</event>
<event>
 9    1  0.2073852E-002  0.2754657E+03  0.7818608E-02  0.1098192E+00
         -3   -1    0    0    0  501 -0.00000000000E+00  0.00000000000E+00  0.91666391889E+03  0.91666391889E+03  0.00000000000E+00 0. -1.
          3   -1    0    0  501    0  0.00000000000E+00 -0.00000000000E+00 -0.20694969659E+02  0.20694969659E+02  0.00000000000E+00 0. -1.
         36    2    1    2    0    0 -0.35527136788E-14  0.00000000000E+00  0.89596894923E+03  0.93735888854E+03  0.27546565658E+03 0.  0.
         25    2    3    3    0    0 -0.13452528626E+02 -0.45113103149E+02  0.32693762913E+03  0.35353484651E+03  0.12602583766E+03 0.  0.
         25    2    3    3    0    0  0.13452528626E+02  0.45113103149E+02  0.56903132010E+03  0.58382404203E+03  0.12181012354E+03 0.  0.
          5    1    4    4  502    0  0.88144744278E+00 -0.37524460046E+02  0.14298563185E+02  0.40440091005E+02  0.47000000000E+01 0.  1.
         -5    1    4    4    0  502 -0.14333976068E+02 -0.75886431033E+01  0.31263906594E+03  0.31309475551E+03  0.47000000000E+01 0.  1.
          5    1    5    5  503    0  0.23051719638E+01 -0.30944950489E+02  0.49468321665E+02  0.58584201171E+02  0.47000000000E+01 0.  1.
         -5    1    5    5    0  503  0.11147356662E+02  0.76058053638E+02  0.51956299844E+03  0.52523984086E+03  0.47000000000E+01 0.  1.
<mgrwt>
<rscale>  0 0.27546566E+03</rscale>
<asrwt>0</asrwt>
<pdfrwt beam="1">  1        3 0.31838422E-02 0.27546566E+03</pdfrwt>
<pdfrwt beam="2">  1       -3 0.14102519E+00 0.27546566E+03</pdfrwt>
<totfact> 0.47001071E+02</totfact>
</mgrwt>
</event>
<event>
 9    1  0.2073852E-002  0.2741329E+03  0.7818608E-02  0.1098937E+00
          2   -1    0    0  501    0  0.00000000000E+00  0.00000000000E+00  0.21773478099E+04  0.21773478099E+04  0.00000000000E+00 0. -1.
         -2   -1    0    0    0  501 -0.00000000000E+00 -0.00000000000E+00 -0.86284857591E+01  0.86284857591E+01  0.00000000000E+00 0. -1.
         36    2    1    2    0    0  0.35527136788E-14  0.00000000000E+00  0.21687193242E+04  0.21859762957E+04  0.27413292083E+03 0.  0.
         25    2    3    3    0    0 -0.19824266809E+02 -0.27188095220E+02  0.11761677906E+04  0.11846292741E+04  0.13727217949E+03 0.  0.
         25    2    3    3    0    0  0.19824266809E+02  0.27188095220E+02  0.99255153360E+03  0.10013470216E+04  0.12808246108E+03 0.  0.
          5    1    4    4  502    0  0.21683144837E+02 -0.74766947291E+02  0.63655201583E+03  0.64131179159E+03  0.47000000000E+01 0.  1.
         -5    1    4    4    0  502 -0.41507411646E+02  0.47578852071E+02  0.53961577476E+03  0.54331748247E+03  0.47000000000E+01 0.  1.
          5    1    5    5  503    0 -0.20681981383E+02  0.69210004287E+02  0.47312777098E+03  0.47863320687E+03  0.47000000000E+01 0.  1.
         -5    1    5    5    0  503  0.40506248192E+02 -0.42021909067E+02  0.51942376262E+03  0.52271381477E+03  0.47000000000E+01 0.  1.
<mgrwt>
<rscale>  0 0.27413292E+03</rscale>
<asrwt>0</asrwt>
<pdfrwt beam="1">  1        2 0.33497615E+00 0.27413292E+03</pdfrwt>
<pdfrwt beam="2">  1       -2 0.13274611E-02 0.27413292E+03</pdfrwt>
<totfact> 0.84455456E+03</totfact>
</mgrwt>
</event>
<event>
 9    1  0.2073852E-002  0.2747179E+03  0.7818608E-02  0.1098609E+00
         -2   -1    0    0    0  501 -0.00000000000E+00  0.00000000000E+00  0.17898033672E+02  0.17898033672E+02  0.00000000000E+00 0.  1.
          2   -1    0    0  501    0  0.00000000000E+00 -0.00000000000E+00 -0.10541648334E+04  0.10541648334E+04  0.00000000000E+00 0.  1.
         36    2    1    2    0    0  0.00000000000E+00  0.71054273576E-14 -0.10362667997E+04  0.10720628670E+04  0.27471787480E+03 0.  0.
         25    2    3    3    0    0  0.14364639042E+01  0.36784672271E+02 -0.68163580910E+03  0.69500141785E+03  0.13055427616E+03 0.  0.
         25    2    3    3    0    0 -0.14364639042E+01 -0.36784672271E+02 -0.35463099058E+03  0.37706144918E+03  0.12270705534E+03 0.  0.
          5    1    4    4  502    0  0.15498816277E+02  0.66996510755E+02 -0.18829309649E+03  0.20051215910E+03  0.47000000000E+01 0. -1.
         -5    1    4    4    0  502 -0.14062352372E+02 -0.30211838484E+02 -0.49334271260E+03  0.49448925875E+03  0.47000000000E+01 0. -1.
          5    1    5    5  503    0  0.56174405391E+02  0.49731674583E+01 -0.14619420401E+03  0.15676457349E+03  0.47000000000E+01 0.  1.
         -5    1    5    5    0  503 -0.57610869296E+02 -0.41757839730E+02 -0.20843678657E+03  0.22029687568E+03  0.47000000000E+01 0.  1.
<mgrwt>
<rscale>  0 0.27471787E+03</rscale>
<asrwt>0</asrwt>
<pdfrwt beam="1">  1        2 0.16217918E+00 0.27471787E+03</pdfrwt>
<pdfrwt beam="2">  1       -2 0.27535441E-02 0.27471787E+03</pdfrwt>
<totfact> 0.11686679E+04</totfact>
</mgrwt>
</event>
<event>
 9    1  0.2073852E-002  0.2742082E+03  0.7818608E-02  0.1098895E+00
         -2   -1    0    0    0  501 -0.00000000000E+00  0.00000000000E+00  0.18013809718E+02  0.18013809718E+02  0.00000000000E+00 0. -1.
          2   -1    0    0  501    0  0.00000000000E+00 -0.00000000000E+00 -0.10435068405E+04  0.10435068405E+04  0.00000000000E+00 0. -1.
         36    2    1    2    0    0  0.00000000000E+00  0.00000000000E+00 -0.10254930308E+04  0.10615206502E+04  0.27420819582E+03 0.  0.
         25    2    3    3    0    0 -0.13263902774E+02  0.49140719427E+02 -0.54171315057E+03  0.55884847046E+03  0.12754502736E+03 0.  0.
         25    2    3    3    0    0  0.13263902774E+02 -0.49140719427E+02 -0.48377988018E+03  0.50267217974E+03  0.12667125320E+03 0.  0.
          5    1    4    4  502    0 -0.64735928244E+02  0.42635199154E+02 -0.40841775927E+03  0.41573507995E+03  0.47000000000E+01 0. -1.
         -5    1    4    4    0  502  0.51472025470E+02  0.65055202723E+01 -0.13329539130E+03  0.14311339051E+03  0.47000000000E+01 0. -1.
          5    1    5    5  503    0 -0.55571295531E+02 -0.30925848288E+02 -0.19292091857E+03  0.20318746960E+03  0.47000000000E+01 0.  1.
         -5    1    5    5    0  503  0.68835198305E+02 -0.18214871138E+02 -0.29085896161E+03  0.29948471014E+03  0.47000000000E+01 0.  1.
<mgrwt>
<rscale>  0 0.27420820E+03</rscale>
<asrwt>0</asrwt>
<pdfrwt beam="1">  1        2 0.16053956E+00 0.27420820E+03</pdfrwt>
<pdfrwt beam="2">  1       -2 0.27713546E-02 0.27420820E+03</pdfrwt>
<totfact> 0.11746219E+04</totfact>
</mgrwt>
</event>
<event>
 9    1  0.2073852E-002  0.2755330E+03  0.7818608E-02  0.1098154E+00
          2   -1    0    0  501    0  0.00000000000E+00  0.00000000000E+00  0.18543536002E+04  0.18543536002E+04  0.00000000000E+00 0. -1.
         -2   -1    0    0    0  501 -0.00000000000E+00 -0.00000000000E+00 -0.10235158637E+02  0.10235158637E+02  0.00000000000E+00 0. -1.
         36    2    1    2    0    0 -0.35527136788E-14  0.00000000000E+00  0.18441184416E+04  0.18645887589E+04  0.27553296186E+03 0.  0.
         25    2    3    3    0    0  0.14863544424E+02  0.14125325357E+02  0.11410274584E+04  0.11474216884E+04  0.11921585685E+03 0.  0.
         25    2    3    3    0    0 -0.14863544424E+02 -0.14125325357E+02  0.70309098323E+03  0.71716707046E+03  0.13989719969E+03 0.  0.
          5    1    4    4  502    0 -0.31688333881E+02 -0.33675253349E+02  0.67757255491E+03  0.67916480353E+03  0.47000000000E+01 0. -1.
         -5    1    4    4    0  502  0.46551878305E+02  0.47800578707E+02  0.46345490346E+03  0.46825688489E+03  0.47000000000E+01 0. -1.
          5    1    5    5  503    0  0.25485056908E+01  0.53348413536E+02  0.14268851117E+03  0.15242916167E+03  0.47000000000E+01 0.  1.
         -5    1    5    5    0  503 -0.17412050115E+02 -0.67473738894E+02  0.56040247207E+03  0.56473790879E+03  0.47000000000E+01 0.  1.
<mgrwt>
<rscale>  0 0.27553296E+03</rscale>
<asrwt>0</asrwt>
<pdfrwt beam="1">  1        2 0.28528490E+00 0.27553296E+03</pdfrwt>
<pdfrwt beam="2">  1       -2 0.15746413E-02 0.27553296E+03</pdfrwt>
<totfact> 0.97371791E+03</totfact>
</mgrwt>
</event>
<event>
 9    1  0.2073852E-002  0.2751683E+03  0.7818608E-02  0.1098358E+00
          2   -1    0    0  501    0  0.00000000000E+00  0.00000000000E+00  0.92741298988E+03  0.92741298988E+03  0.00000000000E+00 0. -1.
         -2   -1    0    0    0  501 -0.00000000000E+00 -0.00000000000E+00 -0.20410972747E+02  0.20410972747E+02  0.00000000000E+00 0. -1.
         36    2    1    2    0    0  0.00000000000E+00  0.17763568394E-14  0.90700201713E+03  0.94782396262E+03  0.27516832130E+03 0.  0.
         25    2    3    3    0    0  0.47605261850E+02  0.15722175024E+02  0.47011093177E+03  0.48935481062E+03  0.12629487226E+03 0.  0.
         25    2    3    3    0    0 -0.47605261850E+02 -0.15722175024E+02  0.43689108536E+03  0.45846915201E+03  0.12964063843E+03 0.  0.
          5    1    4    4  502    0  0.19961305420E+02  0.14568696805E+02  0.80062087137E+01  0.26398674562E+02  0.47000000000E+01 0. -1.
         -5    1    4    4    0  502  0.27643956429E+02  0.11534782195E+01  0.46210472306E+03  0.46295613606E+03  0.47000000000E+01 0. -1.
          5    1    5    5  503    0  0.58649490165E+01 -0.22812337254E+02  0.67708834916E+01  0.24954663316E+02  0.47000000000E+01 0.  1.
         -5    1    5    5    0  503 -0.53470210866E+02  0.70901622301E+01  0.43012020187E+03  0.43351448869E+03  0.47000000000E+01 0.  1.
<mgrwt>
<rscale>  0 0.27516832E+03</rscale>
<asrwt>0</asrwt>
<pdfrwt beam="1">  1        2 0.14267889E+00 0.27516832E+03</pdfrwt>
<pdfrwt beam="2">  1       -2 0.31401504E-02 0.27516832E+03</pdfrwt>
<totfact> 0.11505551E+04</totfact>
</mgrwt>
</event>
<event>
 9    1  0.2073852E-002  0.2750556E+03  0.7818608E-02  0.1098421E+00
         -2   -1    0    0    0  501 -0.00000000000E+00  0.00000000000E+00  0.73455510384E+02  0.73455510384E+02  0.00000000000E+00 0. -1.
          2   -1    0    0  501    0  0.00000000000E+00 -0.00000000000E+00 -0.25748783449E+03  0.25748783449E+03  0.00000000000E+00 0. -1.
         36    2    1    2    0    0  0.35527136788E-14  0.14210854715E-13 -0.18403232411E+03  0.33094334488E+03  0.27505563292E+03 0.  0.
         25    2    3    3    0    0 -0.14360233617E+02 -0.45476756896E+02 -0.51482548586E+02  0.14310407520E+03  0.12471556359E+03 0.  0.
         25    2    3    3    0    0  0.14360233617E+02  0.45476756896E+02 -0.13254977553E+03  0.18783926968E+03  0.12425697773E+03 0.  0.
          5    1    4    4  502    0 -0.43428342839E+02 -0.62036171068E+02 -0.71149603894E+02  0.10401376648E+03  0.47000000000E+01 0. -1.
         -5    1    4    4    0  502  0.29068109222E+02  0.16559414172E+02  0.19667055308E+02  0.39090308722E+02  0.47000000000E+01 0. -1.
          5    1    5    5  503    0 -0.49259392496E+02  0.19522473019E+02 -0.96289523237E+02  0.11000625885E+03  0.47000000000E+01 0.  1.
         -5    1    5    5    0  503  0.63619626112E+02  0.25954283878E+02 -0.36260252289E+02  0.77833010827E+02  0.47000000000E+01 0.  1.
<mgrwt>
<rscale>  0 0.27505563E+03</rscale>
<asrwt>0</asrwt>
<pdfrwt beam="1">  1        2 0.39613513E-01 0.27505563E+03</pdfrwt>
<pdfrwt beam="2">  1       -2 0.11300848E-01 0.27505563E+03</pdfrwt>
<totfact> 0.69844297E+03</totfact>
</mgrwt>
</event>
<event>
 9    1  0.2073852E-002  0.2692080E+03  0.7818608E-02  0.1101734E+00
          2   -1    0    0  501    0  0.00000000000E+00  0.00000000000E+00  0.28595335265E+02  0.28595335265E+02  0.00000000000E+00 0. -1.
         -2   -1    0    0    0  501 -0.00000000000E+00 -0.00000000000E+00 -0.63360821834E+03  0.63360821834E+03  0.00000000000E+00 0. -1.
         36    2    1    2    0    0 -0.35527136788E-14  0.35527136788E-14 -0.60501288307E+03  0.66220355360E+03  0.26920801942E+03 0.  0.
         25    2    3    3    0    0 -0.25758476829E+02  0.10745838812E+02 -0.42787424519E+03  0.44635099400E+03  0.12399140278E+03 0.  0.
         25    2    3    3    0    0  0.25758476829E+02 -0.10745838812E+02 -0.17713863788E+03  0.21585255960E+03  0.12014681967E+03 0.  0.
          5    1    4    4  502    0  0.31938932395E+02 -0.19530414877E+02 -0.48781508224E+02  0.61670560663E+02  0.47000000000E+01 0.  1.
         -5    1    4    4    0  502 -0.57697409224E+02  0.30276253689E+02 -0.37909273697E+03  0.38468043334E+03  0.47000000000E+01 0.  1.
          5    1    5    5  503    0 -0.14207879355E+02 -0.57989913018E+02 -0.70836580670E+02  0.92761010175E+02  0.47000000000E+01 0. -1.
         -5    1    5    5    0  503  0.39966356184E+02  0.47244074206E+02 -0.10630205721E+03  0.12309154943E+03  0.47000000000E+01 0. -1.
<mgrwt>
<rscale>  0 0.26920802E+03</rscale>
<asrwt>0</asrwt>
<pdfrwt beam="1">  1        2 0.43992825E-02 0.26920802E+03</pdfrwt>
<pdfrwt beam="2">  1       -2 0.97478184E-01 0.26920802E+03</pdfrwt>
<totfact> 0.16942904E+03</totfact>
</mgrwt>
</event>
<event>
 9    1  0.2073852E-002  0.2749119E+03  0.7818608E-02  0.1098501E+00
         -4   -1    0    0    0  501 -0.00000000000E+00  0.00000000000E+00  0.16558058590E+04  0.16558058590E+04  0.00000000000E+00 0.  1.
          4   -1    0    0  501    0  0.00000000000E+00 -0.00000000000E+00 -0.11410845039E+02  0.11410845039E+02  0.00000000000E+00 0.  1.
         36    2    1    2    0    0  0.35527136788E-14  0.00000000000E+00  0.16443950139E+04  0.16672167040E+04  0.27491194278E+03 0.  0.
         25    2    3    3    0    0  0.68834274395E+00  0.36320882719E+02  0.62260570442E+03  0.63737920862E+03  0.13150936117E+03 0.  0.
         25    2    3    3    0    0 -0.68834274395E+00 -0.36320882719E+02  0.10217893095E+04  0.10298374954E+04  0.12325661655E+03 0.  0.
          5    1    4    4  502    0 -0.29593055871E+02  0.57718327704E+02  0.56487447214E+03  0.56860567495E+03  0.47000000000E+01 0. -1.
         -5    1    4    4    0  502  0.30281398615E+02 -0.21397444985E+02  0.57731232277E+02  0.68773533675E+02  0.47000000000E+01 0. -1.
          5    1    5    5  503    0 -0.57746963572E+02  0.65428776169E-01  0.57753213322E+03  0.58043102173E+03  0.47000000000E+01 0.  1.
         -5    1    5    5    0  503  0.57058620828E+02 -0.36386311495E+02  0.44425717630E+03  0.44940647366E+03  0.47000000000E+01 0.  1.
<mgrwt>
<rscale>  0 0.27491194E+03</rscale>
<asrwt>0</asrwt>
<pdfrwt beam="1">  1        4 0.17555159E-02 0.27491194E+03</pdfrwt>
<pdfrwt beam="2">  1       -4 0.25473917E+00 0.27491194E+03</pdfrwt>
<totfact> 0.15579874E+02</totfact>
</mgrwt>
</event>
<event>
 9    1  0.2073852E-002  0.2750959E+03  0.7818608E-02  0.1098398E+00
          2   -1    0    0  501    0  0.00000000000E+00  0.00000000000E+00  0.34460990490E+04  0.34460990490E+04  0.00000000000E+00 0. -1.
         -2   -1    0    0    0  501 -0.00000000000E+00 -0.00000000000E+00 -0.54901026127E+01  0.54901026127E+01  0.00000000000E+00 0. -1.
         36    2    1    2    0    0  0.35527136788E-14  0.35527136788E-14  0.34406089464E+04  0.34515891516E+04  0.27509589159E+03 0.  0.
         25    2    3    3    0    0  0.21367237737E+02  0.19737796639E+02  0.23445769768E+04  0.23480020403E+04  0.12339465792E+03 0.  0.
         25    2    3    3    0    0 -0.21367237737E+02 -0.19737796639E+02  0.10960319696E+04  0.11035871113E+04  0.12558779580E+03 0.  0.
          5    1    4    4  502    0  0.23517789440E+02  0.16186886361E+02  0.12082370568E+03  0.12423992742E+03  0.47000000000E+01 0. -1.
         -5    1    4    4    0  502 -0.21505517029E+01  0.35509102775E+01  0.22237532711E+04  0.22237621129E+04  0.47000000000E+01 0. -1.
          5    1    5    5  503    0 -0.60044526850E+02 -0.48198559681E+02  0.54261211572E+03  0.54806791959E+03  0.47000000000E+01 0.  1.
         -5    1    5    5    0  503  0.38677289113E+02  0.28460763042E+02  0.55341985386E+03  0.55551919172E+03  0.47000000000E+01 0.  1.
<mgrwt>
<rscale>  0 0.27509589E+03</rscale>
<asrwt>0</asrwt>
<pdfrwt beam="1">  1        2 0.53016736E+00 0.27509589E+03</pdfrwt>
<pdfrwt beam="2">  1       -2 0.84463393E-03 0.27509589E+03</pdfrwt>
<totfact> 0.29980123E+03</totfact>
</mgrwt>
</event>
<event>
 9    1  0.2073852E-002  0.2749791E+03  0.7818608E-02  0.1098463E+00
         -2   -1    0    0    0  501 -0.00000000000E+00  0.00000000000E+00  0.11856727218E+02  0.11856727218E+02  0.00000000000E+00 0. -1.
          2   -1    0    0  501    0  0.00000000000E+00 -0.00000000000E+00 -0.15943167183E+04  0.15943167183E+04  0.00000000000E+00 0. -1.
         36    2    1    2    0    0  0.00000000000E+00 -0.35527136788E-14 -0.15824599911E+04  0.16061734455E+04  0.27497911505E+03 0.  0.
         25    2    3    3    0    0  0.32310938427E+02 -0.54494108771E+01 -0.10390125734E+04  0.10472435856E+04  0.12687910458E+03 0.  0.
         25    2    3    3    0    0 -0.32310938427E+02  0.54494108771E+01 -0.54344741771E+03  0.55892985990E+03  0.12646659499E+03 0.  0.
          5    1    4    4  502    0 -0.44106876202E+02 -0.10836088052E+02 -0.22282845368E+03  0.22745867120E+03  0.47000000000E+01 0. -1.
         -5    1    4    4    0  502  0.76417814630E+02  0.53866771748E+01 -0.81618411970E+03  0.81978491444E+03  0.47000000000E+01 0. -1.
          5    1    5    5  503    0 -0.31820161471E+02 -0.36167014260E+02 -0.79352721752E+02  0.92949018531E+02  0.47000000000E+01 0. -1.
         -5    1    5    5    0  503 -0.49077695655E+00  0.41616425137E+02 -0.46409469596E+03  0.46598084137E+03  0.47000000000E+01 0. -1.
<mgrwt>
<rscale>  0 0.27497912E+03</rscale>
<asrwt>0</asrwt>
<pdfrwt beam="1">  1        2 0.24527961E+00 0.27497912E+03</pdfrwt>
<pdfrwt beam="2">  1       -2 0.18241110E-02 0.27497912E+03</pdfrwt>
<totfact> 0.10757434E+04</totfact>
</mgrwt>
</event>
<event>
 9    1  0.2073852E-002  0.2732688E+03  0.7818608E-02  0.1099423E+00
         -2   -1    0    0    0  501 -0.00000000000E+00  0.00000000000E+00  0.15449160366E+02  0.15449160366E+02  0.00000000000E+00 0. -1.
          2   -1    0    0  501    0  0.00000000000E+00 -0.00000000000E+00 -0.12084123688E+04  0.12084123688E+04  0.00000000000E+00 0. -1.
         36    2    1    2    0    0 -0.71054273576E-14 -0.14210854715E-13 -0.11929632084E+04  0.12238615292E+04  0.27326877958E+03 0.  0.
         25    2    3    3    0    0  0.47304947927E+02  0.35531905773E+02 -0.56393587153E+03  0.57978997427E+03  0.12096475785E+03 0.  0.
         25    2    3    3    0    0 -0.47304947927E+02 -0.35531905773E+02 -0.62902733691E+03  0.64407155490E+03  0.12510996293E+03 0.  0.
          5    1    4    4  502    0  0.38491060252E+02  0.69304096342E+02 -0.21707152360E+03  0.23114228485E+03  0.47000000000E+01 0. -1.
         -5    1    4    4    0  502  0.88138876749E+01 -0.33772190569E+02 -0.34686434794E+03  0.34864768942E+03  0.47000000000E+01 0. -1.
          5    1    5    5  503    0 -0.80198558703E+01  0.46442786940E+02 -0.21820094735E+03  0.22328231899E+03  0.47000000000E+01 0.  1.
         -5    1    5    5    0  503 -0.39285092056E+02 -0.81974692713E+02 -0.41082638956E+03  0.42078923592E+03  0.47000000000E+01 0.  1.
<mgrwt>
<rscale>  0 0.27326878E+03</rscale>
<asrwt>0</asrwt>
<pdfrwt beam="1">  1        2 0.18590957E+00 0.27326878E+03</pdfrwt>
<pdfrwt beam="2">  1       -2 0.23767942E-02 0.27326878E+03</pdfrwt>
<totfact> 0.11819072E+04</totfact>
</mgrwt>
</event>
<event>
 9    1  0.2073852E-002  0.2733868E+03  0.7818608E-02  0.1099357E+00
         -3   -1    0    0    0  501 -0.00000000000E+00  0.00000000000E+00  0.26597216663E+03  0.26597216663E+03  0.00000000000E+00 0. -1.
          3   -1    0    0  501    0  0.00000000000E+00 -0.00000000000E+00 -0.70252010745E+02  0.70252010745E+02  0.00000000000E+00 0. -1.
         36    2    1    2    0    0  0.35527136788E-14 -0.71054273576E-14  0.19572015589E+03  0.33622417738E+03  0.27338675541E+03 0.  0.
         25    2    3    3    0    0  0.29352250018E+02 -0.11184632496E+02  0.15860951909E+03  0.20328040074E+03  0.12320426613E+03 0.  0.
         25    2    3    3    0    0 -0.29352250018E+02  0.11184632496E+02  0.37110636796E+02  0.13294377664E+03  0.12373438406E+03 0.  0.
          5    1    4    4  502    0 -0.35121292374E+02 -0.41538641416E+02  0.55506530605E+02  0.77859031901E+02  0.47000000000E+01 0. -1.
         -5    1    4    4    0  502  0.64473542391E+02  0.30354008920E+02  0.10310298849E+03  0.12542136884E+03  0.47000000000E+01 0. -1.
          5    1    5    5  503    0 -0.76637294595E+01 -0.21487457142E+02  0.74804707358E+02  0.78347162084E+02  0.47000000000E+01 0.  1.
         -5    1    5    5    0  503 -0.21688520558E+02  0.32672089639E+02 -0.37694070562E+02  0.54596614555E+02  0.47000000000E+01 0.  1.
<mgrwt>
<rscale>  0 0.27338676E+03</rscale>
<asrwt>0</asrwt>
<pdfrwt beam="1">  1        3 0.10808002E-01 0.27338676E+03</pdfrwt>
<pdfrwt beam="2">  1       -3 0.40918794E-01 0.27338676E+03</pdfrwt>
<totfact> 0.97832509E+02</totfact>
</mgrwt>
</event>
<event>
 9    1  0.2073852E-002  0.2755675E+03  0.7818608E-02  0.1098135E+00
         -4   -1    0    0    0  501 -0.00000000000E+00  0.00000000000E+00  0.36185471959E+03  0.36185471959E+03  0.00000000000E+00 0. -1.
          4   -1    0    0  501    0  0.00000000000E+00 -0.00000000000E+00 -0.52464040259E+02  0.52464040259E+02  0.00000000000E+00 0. -1.
         36    2    1    2    0    0  0.00000000000E+00  0.71054273576E-14  0.30939067933E+03  0.41431875985E+03  0.27556749138E+03 0.  0.
         25    2    3    3    0    0  0.21109668259E+01  0.47773433471E+02  0.19784630145E+03  0.23802438199E+03  0.12339242399E+03 0.  0.
         25    2    3    3    0    0 -0.21109668259E+01 -0.47773433471E+02  0.11154437788E+03  0.17629437786E+03  0.12787025573E+03 0.  0.
          5    1    4    4  502    0  0.58280171774E+02  0.20511926862E+02  0.58312818944E+02  0.85086969736E+02  0.47000000000E+01 0.  1.
         -5    1    4    4    0  502 -0.56169204948E+02  0.27261506609E+02  0.13953348251E+03  0.15293741226E+03  0.47000000000E+01 0.  1.
          5    1    5    5  503    0  0.37500998196E+02 -0.63821884748E+02  0.11074537307E+03  0.13328985519E+03  0.47000000000E+01 0. -1.
         -5    1    5    5    0  503 -0.39611965022E+02  0.16048451278E+02  0.79900480525E+00  0.43004522669E+02  0.47000000000E+01 0. -1.
<mgrwt>
<rscale>  0 0.27556749E+03</rscale>
<asrwt>0</asrwt>
<pdfrwt beam="1">  1        4 0.80713910E-02 0.27556749E+03</pdfrwt>
<pdfrwt beam="2">  1       -4 0.55669955E-01 0.27556749E+03</pdfrwt>
<totfact> 0.63338186E+02</totfact>
</mgrwt>
</event>
<event>
 9    1  0.2073852E-002  0.2747040E+03  0.7818608E-02  0.1098617E+00
          2   -1    0    0  501    0  0.00000000000E+00  0.00000000000E+00  0.81865353555E+03  0.81865353555E+03  0.00000000000E+00 0.  1.
         -2   -1    0    0    0  501 -0.00000000000E+00 -0.00000000000E+00 -0.23044638242E+02  0.23044638242E+02  0.00000000000E+00 0.  1.
         36    2    1    2    0    0 -0.35527136788E-14  0.00000000000E+00  0.79560889731E+03  0.84169817379E+03  0.27470401942E+03 0.  0.
         25    2    3    3    0    0  0.10753314712E+02  0.45335585031E+02  0.51154359788E+03  0.52860919650E+03  0.12481939372E+03 0.  0.
         25    2    3    3    0    0 -0.10753314712E+02 -0.45335585031E+02  0.28406529943E+03  0.31308897729E+03  0.12312864944E+03 0.  0.
          5    1    4    4  502    0  0.58898225502E+01  0.31605152404E+02  0.22957269755E+02  0.39783186182E+02  0.47000000000E+01 0.  1.
         -5    1    4    4    0  502  0.48634921614E+01  0.13730432627E+02  0.48858632813E+03  0.48882601032E+03  0.47000000000E+01 0.  1.
          5    1    5    5  503    0  0.12421734665E+02  0.24320559258E+02  0.10219002830E+02  0.29534845751E+02  0.47000000000E+01 0. -1.
         -5    1    5    5    0  503 -0.23175049377E+02 -0.69656144289E+02  0.27384629660E+03  0.28355413154E+03  0.47000000000E+01 0. -1.
<mgrwt>
<rscale>  0 0.27470402E+03</rscale>
<asrwt>0</asrwt>
<pdfrwt beam="1">  1        2 0.12594668E+00 0.27470402E+03</pdfrwt>
<pdfrwt beam="2">  1       -2 0.35453296E-02 0.27470402E+03</pdfrwt>
<totfact> 0.11314984E+04</totfact>
</mgrwt>
</event>
<event>
 9    1  0.2073852E-002  0.2748083E+03  0.7818608E-02  0.1098559E+00
          2   -1    0    0  501    0  0.00000000000E+00  0.00000000000E+00  0.58297395841E+03  0.58297395841E+03  0.00000000000E+00 0. -1.
         -2   -1    0    0    0  501 -0.00000000000E+00 -0.00000000000E+00 -0.32385491640E+02  0.32385491640E+02  0.00000000000E+00 0. -1.
         36    2    1    2    0    0 -0.17763568394E-14  0.00000000000E+00  0.55058846677E+03  0.61535945005E+03  0.27480828413E+03 0.  0.
         25    2    3    3    0    0 -0.12179713572E+02 -0.52842835192E+02  0.29625580037E+03  0.32680947020E+03  0.12687087886E+03 0.  0.
         25    2    3    3    0    0  0.12179713572E+02  0.52842835192E+02  0.25433266640E+03  0.28854997985E+03  0.12504109333E+03 0.  0.
          5    1    4    4  502    0  0.10772542955E+02  0.34784429078E+02  0.36921270794E+02  0.52069899415E+02  0.47000000000E+01 0.  1.
         -5    1    4    4    0  502 -0.22952256526E+02 -0.87627264271E+02  0.25933452958E+03  0.27473957078E+03  0.47000000000E+01 0.  1.
          5    1    5    5  503    0 -0.16770065924E+02 -0.16660574894E+01  0.21390421894E+03  0.21461853540E+03  0.47000000000E+01 0. -1.
         -5    1    5    5    0  503  0.28949779496E+02  0.54508892682E+02  0.40428447460E+02  0.73931444449E+02  0.47000000000E+01 0. -1.
<mgrwt>
<rscale>  0 0.27480828E+03</rscale>
<asrwt>0</asrwt>
<pdfrwt beam="1">  1        2 0.89688293E-01 0.27480828E+03</pdfrwt>
<pdfrwt beam="2">  1       -2 0.49823838E-02 0.27480828E+03</pdfrwt>
<totfact> 0.10222511E+04</totfact>
</mgrwt>
</event>
<event>
 9    1  0.2073852E-002  0.2739948E+03  0.7818608E-02  0.1099015E+00
         -2   -1    0    0    0  501 -0.00000000000E+00  0.00000000000E+00  0.18660732756E+03  0.18660732756E+03  0.00000000000E+00 0.  1.
          2   -1    0    0  501    0  0.00000000000E+00 -0.00000000000E+00 -0.10057635216E+03  0.10057635216E+03  0.00000000000E+00 0.  1.
         36    2    1    2    0    0  0.00000000000E+00  0.00000000000E+00  0.86030975397E+02  0.28718367972E+03  0.27399477581E+03 0.  0.
         25    2    3    3    0    0 -0.51686427139E+02 -0.47166712585E+02  0.73128769567E+02  0.14582166854E+03  0.10497598083E+03 0.  0.
         25    2    3    3    0    0  0.51686427139E+02  0.47166712585E+02  0.12902205830E+02  0.14136201118E+03  0.12214976776E+03 0.  0.
          5    1    4    4  502    0 -0.56129086672E+01 -0.25089058428E+02 -0.24314639100E+02  0.35696740342E+02  0.47000000000E+01 0.  1.
         -5    1    4    4    0  502 -0.46073518472E+02 -0.22077654158E+02  0.97443408667E+02  0.11012492820E+03  0.47000000000E+01 0.  1.
          5    1    5    5  503    0 -0.68287789548E+01  0.71440358318E+02  0.26048648457E+02  0.76491693046E+02  0.47000000000E+01 0.  1.
         -5    1    5    5    0  503  0.58515206094E+02 -0.24273645733E+02 -0.13146442627E+02  0.64870318137E+02  0.47000000000E+01 0.  1.
<mgrwt>
<rscale>  0 0.27399478E+03</rscale>
<asrwt>0</asrwt>
<pdfrwt beam="1">  1        2 0.15473285E-01 0.27399478E+03</pdfrwt>
<pdfrwt beam="2">  1       -2 0.28708820E-01 0.27399478E+03</pdfrwt>
<totfact> 0.41365208E+03</totfact>
</mgrwt>
</event>
<event>
 9    1  0.2073852E-002  0.2747731E+03  0.7818608E-02  0.1098579E+00
         -2   -1    0    0    0  501 -0.00000000000E+00  0.00000000000E+00  0.33051742110E+02  0.33051742110E+02  0.00000000000E+00 0.  1.
          2   -1    0    0  501    0  0.00000000000E+00 -0.00000000000E+00 -0.57107612545E+03  0.57107612545E+03  0.00000000000E+00 0.  1.
         36    2    1    2    0    0  0.35527136788E-14 -0.14210854715E-13 -0.53802438334E+03  0.60412786756E+03  0.27477307600E+03 0.  0.
         25    2    3    3    0    0 -0.29011199302E+02  0.47384749851E+02 -0.30927304943E+03  0.33798578250E+03  0.12448938053E+03 0.  0.
         25    2    3    3    0    0  0.29011199302E+02 -0.47384749851E+02 -0.22875133390E+03  0.26614208506E+03  0.12416711510E+03 0.  0.
          5    1    4    4  502    0 -0.11524180389E+02 -0.36642361784E+02 -0.16979248510E+03  0.17414662617E+03  0.47000000000E+01 0.  1.
         -5    1    4    4    0  502 -0.17487018913E+02  0.84027111635E+02 -0.13948056434E+03  0.16383915633E+03  0.47000000000E+01 0.  1.
          5    1    5    5  503    0 -0.23978617903E+02  0.15839749487E+02 -0.14718122089E+03  0.15003424130E+03  0.47000000000E+01 0.  1.
         -5    1    5    5    0  503  0.52989817205E+02 -0.63224499337E+02 -0.81570113011E+02  0.11610784375E+03  0.47000000000E+01 0.  1.
<mgrwt>
<rscale>  0 0.27477308E+03</rscale>
<asrwt>0</asrwt>
<pdfrwt beam="1">  1        2 0.87857864E-01 0.27477308E+03</pdfrwt>
<pdfrwt beam="2">  1       -2 0.50848835E-02 0.27477308E+03</pdfrwt>
<totfact> 0.10148833E+04</totfact>
</mgrwt>
</event>
<event>
 9    1  0.2073852E-002  0.2744347E+03  0.7818608E-02  0.1098768E+00
          1   -1    0    0  501    0  0.00000000000E+00  0.00000000000E+00  0.29056771522E+02  0.29056771522E+02  0.00000000000E+00 0. -1.
         -1   -1    0    0    0  501 -0.00000000000E+00 -0.00000000000E+00 -0.64799367507E+03  0.64799367507E+03  0.00000000000E+00 0. -1.
         36    2    1    2    0    0  0.71054273576E-14  0.14210854715E-13 -0.61893690355E+03  0.67705044659E+03  0.27443472203E+03 0.  0.
         25    2    3    3    0    0  0.11471921069E+02 -0.47496745790E+02 -0.35834968237E+03  0.38259585659E+03  0.12481005083E+03 0.  0.
         25    2    3    3    0    0 -0.11471921069E+02  0.47496745790E+02 -0.26058722118E+03  0.29445459001E+03  0.12810253667E+03 0.  0.
          5    1    4    4  502    0 -0.47914309459E+02 -0.55260202504E+02 -0.21572544702E+03  0.22783553174E+03  0.47000000000E+01 0. -1.
         -5    1    4    4    0  502  0.59386230528E+02  0.77634567140E+01 -0.14262423535E+03  0.15476032484E+03  0.47000000000E+01 0. -1.
          5    1    5    5  503    0  0.45535367009E+02  0.56706678169E+02 -0.10002217815E+03  0.12375638618E+03  0.47000000000E+01 0.  1.
         -5    1    5    5    0  503 -0.57007288078E+02 -0.92099323799E+01 -0.16056504303E+03  0.17069820383E+03  0.47000000000E+01 0.  1.
<mgrwt>
<rscale>  0 0.27443472E+03</rscale>
<asrwt>0</asrwt>
<pdfrwt beam="1">  1        1 0.44702723E-02 0.27443472E+03</pdfrwt>
<pdfrwt beam="2">  1       -1 0.99691340E-01 0.27443472E+03</pdfrwt>
<totfact> 0.19729958E+03</totfact>
</mgrwt>
</event>
<event>
 9    1  0.2073852E-002  0.2753670E+03  0.7818608E-02  0.1098247E+00
          1   -1    0    0  501    0  0.00000000000E+00  0.00000000000E+00  0.13080311082E+03  0.13080311082E+03  0.00000000000E+00 0.  1.
         -1   -1    0    0    0  501 -0.00000000000E+00 -0.00000000000E+00 -0.14492577553E+03  0.14492577553E+03  0.00000000000E+00 0.  1.
         36    2    1    2    0    0  0.00000000000E+00  0.00000000000E+00 -0.14122664711E+02  0.27572888635E+03  0.27536697171E+03 0.  0.
         25    2    3    3    0    0  0.14615336963E+02  0.46149591589E+02 -0.34335100411E+02  0.13887067855E+03  0.12554988396E+03 0.  0.
         25    2    3    3    0    0 -0.14615336963E+02 -0.46149591589E+02  0.20212435701E+02  0.13685820780E+03  0.12640503790E+03 0.  0.
          5    1    4    4  502    0 -0.46909108109E+02 -0.78820539069E+01  0.47180524256E+01  0.48030627895E+02  0.47000000000E+01 0.  1.
         -5    1    4    4    0  502  0.61524445072E+02  0.54031645496E+02 -0.39053152837E+02  0.90840050654E+02  0.47000000000E+01 0.  1.
          5    1    5    5  503    0  0.37194104854E+02 -0.54786151580E+02  0.43334782857E+02  0.79277469978E+02  0.47000000000E+01 0.  1.
         -5    1    5    5    0  503 -0.51809441817E+02  0.86365599905E+01 -0.23122347156E+02  0.57580737820E+02  0.47000000000E+01 0.  1.
<mgrwt>
<rscale>  0 0.27536697E+03</rscale>
<asrwt>0</asrwt>
<pdfrwt beam="1">  1        1 0.20123556E-01 0.27536697E+03</pdfrwt>
<pdfrwt beam="2">  1       -1 0.22296273E-01 0.27536697E+03</pdfrwt>
<totfact> 0.42435220E+03</totfact>
</mgrwt>
</event>
<event>
 9    1  0.2073852E-002  0.2754286E+03  0.7818608E-02  0.1098212E+00
          2   -1    0    0  501    0  0.00000000000E+00  0.00000000000E+00  0.16732934145E+04  0.16732934145E+04  0.00000000000E+00 0.  1.
         -2   -1    0    0    0  501 -0.00000000000E+00 -0.00000000000E+00 -0.11334071027E+02  0.11334071027E+02  0.00000000000E+00 0.  1.
         36    2    1    2    0    0  0.00000000000E+00  0.14210854715E-13  0.16619593435E+04  0.16846274856E+04  0.27542858537E+03 0.  0.
         25    2    3    3    0    0  0.16838669143E+02  0.55784303967E+02  0.97319771846E+03  0.98272960523E+03  0.12348379829E+03 0.  0.
         25    2    3    3    0    0 -0.16838669143E+02 -0.55784303967E+02  0.68876162505E+03  0.70189788033E+03  0.12195338832E+03 0.  0.
          5    1    4    4  502    0 -0.43971290851E+02  0.11255767434E+01  0.54345439858E+03  0.54525179016E+03  0.47000000000E+01 0.  1.
         -5    1    4    4    0  502  0.60809959993E+02  0.54658727223E+02  0.42974331988E+03  0.43747781507E+03  0.47000000000E+01 0.  1.
          5    1    5    5  503    0 -0.42227883516E+02  0.14844717847E+02  0.11957059866E+03  0.12776062719E+03  0.47000000000E+01 0. -1.
         -5    1    5    5    0  503  0.25389214374E+02 -0.70629021813E+02  0.56919102638E+03  0.57413725314E+03  0.47000000000E+01 0. -1.
<mgrwt>
<rscale>  0 0.27542859E+03</rscale>
<asrwt>0</asrwt>
<pdfrwt beam="1">  1        2 0.25742956E+00 0.27542859E+03</pdfrwt>
<pdfrwt beam="2">  1       -2 0.17437046E-02 0.27542859E+03</pdfrwt>
<totfact> 0.10440028E+04</totfact>
</mgrwt>
</event>
<event>
 9    1  0.2073852E-002  0.2758173E+03  0.7818608E-02  0.1097996E+00
         -1   -1    0    0    0  501 -0.00000000000E+00  0.00000000000E+00  0.19163365887E+03  0.19163365887E+03  0.00000000000E+00 0. -1.
          1   -1    0    0  501    0  0.00000000000E+00 -0.00000000000E+00 -0.99245582992E+02  0.99245582992E+02  0.00000000000E+00 0. -1.
         36    2    1    2    0    0  0.00000000000E+00 -0.71054273576E-14  0.92388075881E+02  0.29087924186E+03  0.27581728877E+03 0.  0.
         25    2    3    3    0    0 -0.11306875140E+02  0.54486563752E+02  0.18704857794E+02  0.13457331250E+03  0.12109283083E+03 0.  0.
         25    2    3    3    0    0  0.11306875140E+02 -0.54486563752E+02  0.73683218087E+02  0.15630592936E+03  0.12611778570E+03 0.  0.
          5    1    4    4  502    0 -0.30917514096E+02 -0.17819460702E+01  0.55967482107E+02  0.64136706051E+02  0.47000000000E+01 0.  1.
         -5    1    4    4    0  502  0.19610638956E+02  0.56268509822E+02 -0.37262624313E+02  0.70436606453E+02  0.47000000000E+01 0.  1.
          5    1    5    5  503    0  0.24556698654E+02 -0.93260320169E+02  0.49662411758E+02  0.10857699530E+03  0.47000000000E+01 0.  1.
         -5    1    5    5    0  503 -0.13249823514E+02  0.38773756417E+02  0.24020806329E+02  0.47728934061E+02  0.47000000000E+01 0.  1.
<mgrwt>
<rscale>  0 0.27581729E+03</rscale>
<asrwt>0</asrwt>
<pdfrwt beam="1">  1        1 0.15268551E-01 0.27581729E+03</pdfrwt>
<pdfrwt beam="2">  1       -1 0.29482101E-01 0.27581729E+03</pdfrwt>
<totfact> 0.38113264E+03</totfact>
</mgrwt>
</event>
<event>
 8    1  0.2073852E-002  0.2987667E+03  0.7818608E-02  0.1085859E+00
          2   -1    0    0  501    0  0.00000000000E+00  0.00000000000E+00  0.37493004714E+03  0.37493004714E+03  0.00000000000E+00 0.  1.
         -2   -1    0    0    0  501 -0.00000000000E+00 -0.00000000000E+00 -0.59518801565E+02  0.59518801565E+02  0.00000000000E+00 0.  1.
         25    2    1    2    0    0  0.74946136603E+02 -0.25076233687E+02  0.17589000892E+03  0.23185404361E+03  0.12873717961E+03 0.  0.
         25    2    1    2    0    0 -0.74946136603E+02  0.25076233687E+02  0.13952123666E+03  0.20259480510E+03  0.12382543635E+03 0.  0.
          5    1    3    3  502    0 -0.26956856353E+02  0.23054223848E+02  0.25836270847E+02  0.44133572628E+02  0.47000000000E+01 0.  1.
         -5    1    3    3    0  502  0.10190299296E+03 -0.48130457535E+02  0.15005373808E+03  0.18772047098E+03  0.47000000000E+01 0.  1.
          5    1    4    4  503    0 -0.60931329094E+02  0.68784177263E+02  0.57539258323E+02  0.10852071763E+03  0.47000000000E+01 0. -1.
         -5    1    4    4    0  503 -0.14014807509E+02 -0.43707943576E+02  0.81981978335E+02  0.94074087467E+02  0.47000000000E+01 0. -1.
<mgrwt>
<rscale>  0 0.29876671E+03</rscale>
<asrwt>0</asrwt>
<pdfrwt beam="1">  1        2 0.57681544E-01 0.29876671E+03</pdfrwt>
<pdfrwt beam="2">  1       -2 0.91567389E-02 0.29876671E+03</pdfrwt>
<totfact> 0.65293538E+03</totfact>
</mgrwt>
</event>
<event>
 9    1  0.2073852E-002  0.2756456E+03  0.7818608E-02  0.1098091E+00
         -4   -1    0    0    0  501 -0.00000000000E+00  0.00000000000E+00  0.31077957241E+03  0.31077957241E+03  0.00000000000E+00 0. -1.
          4   -1    0    0  501    0  0.00000000000E+00 -0.00000000000E+00 -0.61120879911E+02  0.61120879911E+02  0.00000000000E+00 0. -1.
         36    2    1    2    0    0  0.35527136788E-14 -0.35527136788E-14  0.24965869250E+03  0.37190045232E+03  0.27564557623E+03 0.  0.
         25    2    3    3    0    0  0.18920524255E+02 -0.24110116486E+02  0.52617436380E+02  0.13728353640E+03  0.12304019994E+03 0.  0.
         25    2    3    3    0    0 -0.18920524255E+02  0.24110116486E+02  0.19704125612E+03  0.23461691592E+03  0.12361454877E+03 0.  0.
          5    1    4    4  502    0  0.70083339258E+02 -0.96099511635E+01  0.16384613713E+02  0.72763803978E+02  0.47000000000E+01 0.  1.
         -5    1    4    4    0  502 -0.51162815003E+02 -0.14500165323E+02  0.36232822667E+02  0.64519732422E+02  0.47000000000E+01 0.  1.
          5    1    5    5  503    0 -0.13485234556E+02  0.70956837379E+02  0.77598786933E+02  0.10611496622E+03  0.47000000000E+01 0. -1.
         -5    1    5    5    0  503 -0.54352896991E+01 -0.46846720893E+02  0.11944246919E+03  0.12850194971E+03  0.47000000000E+01 0. -1.
<mgrwt>
<rscale>  0 0.27564558E+03</rscale>
<asrwt>0</asrwt>
<pdfrwt beam="1">  1        4 0.94032124E-02 0.27564558E+03</pdfrwt>
<pdfrwt beam="2">  1       -4 0.47812241E-01 0.27564558E+03</pdfrwt>
<totfact> 0.67110157E+02</totfact>
</mgrwt>
</event>
<event>
 9    1  0.2073852E-002  0.2751796E+03  0.7818608E-02  0.1098351E+00
         -4   -1    0    0    0  501 -0.00000000000E+00  0.00000000000E+00  0.10391612999E+03  0.10391612999E+03  0.00000000000E+00 0.  1.
          4   -1    0    0  501    0  0.00000000000E+00 -0.00000000000E+00 -0.18217526050E+03  0.18217526050E+03  0.00000000000E+00 0.  1.
         36    2    1    2    0    0  0.00000000000E+00 -0.71054273576E-14 -0.78259130516E+02  0.28609139049E+03  0.27517956357E+03 0.  0.
         25    2    3    3    0    0 -0.12904757273E+02 -0.18355141338E+02 -0.94385782752E+02  0.15840798387E+03  0.12522367745E+03 0.  0.
         25    2    3    3    0    0  0.12904757273E+02  0.18355141338E+02  0.16126652236E+02  0.12768340662E+03  0.12465768905E+03 0.  0.
          5    1    4    4  502    0  0.16594047088E+02 -0.45536355909E+02 -0.10577618158E+03  0.11644575002E+03  0.47000000000E+01 0.  1.
         -5    1    4    4    0  502 -0.29498804361E+02  0.27181214571E+02  0.11390398827E+02  0.41962233851E+02  0.47000000000E+01 0.  1.
          5    1    5    5  503    0  0.56338309849E+02  0.17035250739E+02 -0.28199302810E+02  0.65433138419E+02  0.47000000000E+01 0.  1.
         -5    1    5    5    0  503 -0.43433552575E+02  0.13198905987E+01  0.44325955046E+02  0.62250268202E+02  0.47000000000E+01 0.  1.
<mgrwt>
<rscale>  0 0.27517956E+03</rscale>
<asrwt>0</asrwt>
<pdfrwt beam="1">  1        4 0.28026963E-01 0.27517956E+03</pdfrwt>
<pdfrwt beam="2">  1       -4 0.15987097E-01 0.27517956E+03</pdfrwt>
<totfact> 0.76416390E+02</totfact>
</mgrwt>
</event>
<event>
 9    1  0.2073852E-002  0.2715533E+03  0.7818608E-02  0.1100394E+00
          2   -1    0    0  501    0  0.00000000000E+00  0.00000000000E+00  0.10434167310E+04  0.10434167310E+04  0.00000000000E+00 0.  1.
         -2   -1    0    0    0  501 -0.00000000000E+00 -0.00000000000E+00 -0.17668196946E+02  0.17668196946E+02  0.00000000000E+00 0.  1.
         36    2    1    2    0    0  0.00000000000E+00  0.00000000000E+00  0.10257485341E+04  0.10610849280E+04  0.27155325298E+03 0.  0.
         25    2    3    3    0    0 -0.69394543527E+00  0.42558719862E+02  0.56809868368E+03  0.58332803831E+03  0.12539441648E+03 0.  0.
         25    2    3    3    0    0  0.69394543527E+00 -0.42558719862E+02  0.45764985040E+03  0.47775688966E+03  0.13037075535E+03 0.  0.
          5    1    4    4  502    0 -0.18837944115E+02 -0.27139543428E+02  0.38612141800E+03  0.38756065641E+03  0.47000000000E+01 0. -1.
         -5    1    4    4    0  502  0.18143998680E+02  0.69698263290E+02  0.18197726568E+03  0.19576738191E+03  0.47000000000E+01 0. -1.
          5    1    5    5  503    0  0.26355223952E+02  0.22761188315E+02  0.33121936683E+03  0.33307811169E+03  0.47000000000E+01 0. -1.
         -5    1    5    5    0  503 -0.25661278517E+02 -0.65319908177E+02  0.12643048357E+03  0.14467877797E+03  0.47000000000E+01 0. -1.
<mgrwt>
<rscale>  0 0.27155325E+03</rscale>
<asrwt>0</asrwt>
<pdfrwt beam="1">  1        2 0.16052560E+00 0.27155325E+03</pdfrwt>
<pdfrwt beam="2">  1       -2 0.27181850E-02 0.27155325E+03</pdfrwt>
<totfact> 0.12086539E+04</totfact>
</mgrwt>
</event>
<event>
 9    1  0.2073852E-002  0.2743311E+03  0.7818608E-02  0.1098826E+00
         -3   -1    0    0    0  501 -0.00000000000E+00  0.00000000000E+00  0.17357837378E+04  0.17357837378E+04  0.00000000000E+00 0. -1.
          3   -1    0    0  501    0  0.00000000000E+00 -0.00000000000E+00 -0.10839133698E+02  0.10839133698E+02  0.00000000000E+00 0. -1.
         36    2    1    2    0    0 -0.35527136788E-14  0.35527136788E-14  0.17249446041E+04  0.17466228715E+04  0.27433112842E+03 0.  0.
         25    2    3    3    0    0  0.11288500501E+02  0.23857651061E+02  0.13014532505E+04  0.13074334243E+04  0.12208594453E+03 0.  0.
         25    2    3    3    0    0 -0.11288500501E+02 -0.23857651061E+02  0.42349135360E+03  0.43918944725E+03  0.11333942933E+03 0.  0.
          5    1    4    4  502    0  0.72876859888E+01  0.32754969770E+02  0.93811057010E+02  0.99742683085E+02  0.47000000000E+01 0.  1.
         -5    1    4    4    0  502  0.40008145121E+01 -0.88973187096E+01  0.12076421935E+04  0.12076907412E+04  0.47000000000E+01 0.  1.
          5    1    5    5  503    0  0.35559344173E+02  0.15456141468E+02  0.28576398735E+03  0.28842070962E+03  0.47000000000E+01 0.  1.
         -5    1    5    5    0  503 -0.46847844673E+02 -0.39313792528E+02  0.13772736625E+03  0.15076873763E+03  0.47000000000E+01 0.  1.
<mgrwt>
<rscale>  0 0.27433113E+03</rscale>
<asrwt>0</asrwt>
<pdfrwt beam="1">  1        3 0.16675604E-02 0.27433113E+03</pdfrwt>
<pdfrwt beam="2">  1       -3 0.26704343E+00 0.27433113E+03</pdfrwt>
<totfact> 0.21031075E+02</totfact>
</mgrwt>
</event>
<event>
 9    1  0.2073852E-002  0.2739302E+03  0.7818608E-02  0.1099051E+00
          2   -1    0    0  501    0  0.00000000000E+00  0.00000000000E+00  0.15576431801E+04  0.15576431801E+04  0.00000000000E+00 0. -1.
         -2   -1    0    0    0  501 -0.00000000000E+00 -0.00000000000E+00 -0.12043480184E+02  0.12043480184E+02  0.00000000000E+00 0. -1.
         36    2    1    2    0    0 -0.71054273576E-14 -0.17763568394E-14  0.15455997000E+04  0.15696866603E+04  0.27393024495E+03 0.  0.
         25    2    3    3    0    0  0.38558509424E+02 -0.47187094007E+01  0.10178882813E+04  0.10264947799E+04  0.12683041861E+03 0.  0.
         25    2    3    3    0    0 -0.38558509424E+02  0.47187094007E+01  0.52771141867E+03  0.54319188044E+03  0.12275606997E+03 0.  0.
          5    1    4    4  502    0  0.69046214379E+01  0.51644261805E+02  0.70641127745E+03  0.70834580996E+03  0.47000000000E+01 0.  1.
         -5    1    4    4    0  502  0.31653887986E+02 -0.56362971205E+02  0.31147700384E+03  0.31814896993E+03  0.47000000000E+01 0.  1.
          5    1    5    5  503    0 -0.67854054716E+02  0.77767345729E+01  0.49164981300E+03  0.49639327047E+03  0.47000000000E+01 0. -1.
         -5    1    5    5    0  503  0.29295545292E+02 -0.30580251722E+01  0.36061605670E+02  0.46798609973E+02  0.47000000000E+01 0. -1.
<mgrwt>
<rscale>  0 0.27393024E+03</rscale>
<asrwt>0</asrwt>
<pdfrwt beam="1">  1        2 0.23963725E+00 0.27393024E+03</pdfrwt>
<pdfrwt beam="2">  1       -2 0.18528443E-02 0.27393024E+03</pdfrwt>
<totfact> 0.10994742E+04</totfact>
</mgrwt>
</event>
<event>
 9    1  0.2073852E-002  0.2754559E+03  0.7818608E-02  0.1098197E+00
         -1   -1    0    0    0  501 -0.00000000000E+00  0.00000000000E+00  0.15638784743E+04  0.15638784743E+04  0.00000000000E+00 0.  1.
          1   -1    0    0  501    0  0.00000000000E+00 -0.00000000000E+00 -0.12129455159E+02  0.12129455159E+02  0.00000000000E+00 0.  1.
         36    2    1    2    0    0  0.00000000000E+00 -0.71054273576E-14  0.15517490192E+04  0.15760079295E+04  0.27545594078E+03 0.  0.
         25    2    3    3    0    0  0.40329708400E+01  0.30793189696E+02  0.10414684538E+04  0.10497458964E+04  0.12784921355E+03 0.  0.
         25    2    3    3    0    0 -0.40329708400E+01 -0.30793189696E+02  0.51028056536E+03  0.52626203306E+03  0.12490390974E+03 0.  0.
          5    1    4    4  502    0 -0.10629690443E+02  0.69777266469E+02  0.88296641123E+03  0.88579547899E+03  0.47000000000E+01 0.  1.
         -5    1    4    4    0  502  0.14662661283E+02 -0.38984076772E+02  0.15850204259E+03  0.16395041745E+03  0.47000000000E+01 0.  1.
          5    1    5    5  503    0 -0.32564096980E+02  0.54850435516E+01  0.44460059090E+03  0.44585006622E+03  0.47000000000E+01 0. -1.
         -5    1    5    5    0  503  0.28531126140E+02 -0.36278233248E+02  0.65679974462E+02  0.80411966844E+02  0.47000000000E+01 0. -1.
<mgrwt>
<rscale>  0 0.27545594E+03</rscale>
<asrwt>0</asrwt>
<pdfrwt beam="1">  1        1 0.18660713E-02 0.27545594E+03</pdfrwt>
<pdfrwt beam="2">  1       -1 0.24059653E+00 0.27545594E+03</pdfrwt>
<totfact> 0.60727060E+02</totfact>
</mgrwt>
</event>
<event>
 9    1  0.2073852E-002  0.2759010E+03  0.7818608E-02  0.1097949E+00
          2   -1    0    0  501    0  0.00000000000E+00  0.00000000000E+00  0.61810518614E+03  0.61810518614E+03  0.00000000000E+00 0. -1.
         -2   -1    0    0    0  501 -0.00000000000E+00 -0.00000000000E+00 -0.30788194534E+02  0.30788194534E+02  0.00000000000E+00 0. -1.
         36    2    1    2    0    0  0.00000000000E+00 -0.71054273576E-14  0.58731699160E+03  0.64889338067E+03  0.27590101641E+03 0.  0.
         25    2    3    3    0    0  0.44144647975E+02 -0.13816863940E+02  0.21920892825E+03  0.25612962338E+03  0.12413772220E+03 0.  0.
         25    2    3    3    0    0 -0.44144647975E+02  0.13816863940E+02  0.36810806335E+03  0.39276375729E+03  0.12891922689E+03 0.  0.
          5    1    4    4  502    0 -0.14711767027E+02  0.21577381430E+02  0.16863330448E+03  0.17070823313E+03  0.47000000000E+01 0.  1.
         -5    1    4    4    0  502  0.58856415002E+02 -0.35394245370E+02  0.50575623768E+02  0.85421390247E+02  0.47000000000E+01 0.  1.
          5    1    5    5  503    0 -0.24792822502E+02 -0.46985728110E+02  0.27284897287E+03  0.27801258009E+03  0.47000000000E+01 0. -1.
         -5    1    5    5    0  503 -0.19351825473E+02  0.60802592050E+02  0.95259090486E+02  0.11475117720E+03  0.47000000000E+01 0. -1.
<mgrwt>
<rscale>  0 0.27590102E+03</rscale>
<asrwt>0</asrwt>
<pdfrwt beam="1">  1        2 0.95093097E-01 0.27590102E+03</pdfrwt>
<pdfrwt beam="2">  1       -2 0.47366458E-02 0.27590102E+03</pdfrwt>
<totfact> 0.10314139E+04</totfact>
</mgrwt>
</event>
<event>
 9    1  0.2073852E-002  0.2753604E+03  0.7818608E-02  0.1098250E+00
         -2   -1    0    0    0  501 -0.00000000000E+00  0.00000000000E+00  0.14259020017E+02  0.14259020017E+02  0.00000000000E+00 0. -1.
          2   -1    0    0  501    0  0.00000000000E+00 -0.00000000000E+00 -0.13293924955E+04  0.13293924955E+04  0.00000000000E+00 0. -1.
         36    2    1    2    0    0  0.00000000000E+00 -0.35527136788E-14 -0.13151334755E+04  0.13436515156E+04  0.27536037626E+03 0.  0.
         25    2    3    3    0    0  0.24504529890E+02  0.68117126708E+01 -0.93184741059E+03  0.93908026972E+03  0.11351336900E+03 0.  0.
         25    2    3    3    0    0 -0.24504529890E+02 -0.68117126708E+01 -0.38328606493E+03  0.40457124583E+03  0.12697564321E+03 0.  0.
          5    1    4    4  502    0 -0.74886449336E+01  0.55833494766E+02 -0.39361159602E+03  0.39765014455E+03  0.47000000000E+01 0. -1.
         -5    1    4    4    0  502  0.31993174823E+02 -0.49021782095E+02 -0.53823581457E+03  0.54143012517E+03  0.47000000000E+01 0. -1.
          5    1    5    5  503    0 -0.13136133416E+02  0.48295695514E+01  0.52474887667E+01  0.15668723034E+02  0.47000000000E+01 0. -1.
         -5    1    5    5    0  503 -0.11368396474E+02 -0.11641282222E+02 -0.38853355370E+03  0.38890252280E+03  0.47000000000E+01 0. -1.
<mgrwt>
<rscale>  0 0.27536038E+03</rscale>
<asrwt>0</asrwt>
<pdfrwt beam="1">  1        2 0.20452195E+00 0.27536038E+03</pdfrwt>
<pdfrwt beam="2">  1       -2 0.21936951E-02 0.27536038E+03</pdfrwt>
<totfact> 0.11390672E+04</totfact>
</mgrwt>
</event>
<event>
 9    1  0.2073852E-002  0.2746083E+03  0.7818608E-02  0.1098671E+00
         -2   -1    0    0    0  501 -0.00000000000E+00  0.00000000000E+00  0.82439280870E+02  0.82439280870E+02  0.00000000000E+00 0.  1.
          2   -1    0    0  501    0  0.00000000000E+00 -0.00000000000E+00 -0.22868261688E+03  0.22868261688E+03  0.00000000000E+00 0.  1.
         36    2    1    2    0    0 -0.71054273576E-14  0.00000000000E+00 -0.14624333601E+03  0.31112189775E+03  0.27460830638E+03 0.  0.
         25    2    3    3    0    0  0.47315181689E+02  0.26622239126E+02 -0.45097616928E+02  0.14279031961E+03  0.12412820102E+03 0.  0.
         25    2    3    3    0    0 -0.47315181689E+02 -0.26622239126E+02 -0.10114571908E+03  0.16833157814E+03  0.12311617958E+03 0.  0.
          5    1    4    4  502    0 -0.36440490904E+02  0.35281419277E+02 -0.13152810086E+02  0.52609641100E+02  0.47000000000E+01 0. -1.
         -5    1    4    4    0  502  0.83755672593E+02 -0.86591801503E+01 -0.31944806842E+02  0.90180678511E+02  0.47000000000E+01 0. -1.
          5    1    5    5  503    0 -0.23648660010E+02  0.27760140361E+02 -0.10242301673E+03  0.10882301626E+03  0.47000000000E+01 0. -1.
         -5    1    5    5    0  503 -0.23666521679E+02 -0.54382379487E+02  0.12772976458E+01  0.59508561874E+02  0.47000000000E+01 0. -1.
<mgrwt>
<rscale>  0 0.27460831E+03</rscale>
<asrwt>0</asrwt>
<pdfrwt beam="1">  1        2 0.35181941E-01 0.27460831E+03</pdfrwt>
<pdfrwt beam="2">  1       -2 0.12682966E-01 0.27460831E+03</pdfrwt>
<totfact> 0.65912807E+03</totfact>
</mgrwt>
</event>
<event>
 9    1  0.2073852E-002  0.2756810E+03  0.7818608E-02  0.1098072E+00
         -1   -1    0    0    0  501 -0.00000000000E+00  0.00000000000E+00  0.33556197924E+02  0.33556197924E+02  0.00000000000E+00 0.  1.
          1   -1    0    0  501    0  0.00000000000E+00 -0.00000000000E+00 -0.56621442514E+03  0.56621442514E+03  0.00000000000E+00 0.  1.
         36    2    1    2    0    0  0.71054273576E-14 -0.71054273576E-14 -0.53265822721E+03  0.59977062306E+03  0.27568099911E+03 0.  0.
         25    2    3    3    0    0  0.88539821898E+01  0.46566558882E+02 -0.21359203787E+03  0.25268763276E+03  0.12642248100E+03 0.  0.
         25    2    3    3    0    0 -0.88539821898E+01 -0.46566558882E+02 -0.31906618935E+03  0.34708299031E+03  0.12812701342E+03 0.  0.
          5    1    4    4  502    0  0.53629224591E+02  0.32376166140E+02 -0.18959912546E+03  0.19973539556E+03  0.47000000000E+01 0. -1.
         -5    1    4    4    0  502 -0.44775242401E+02  0.14190392742E+02 -0.23992912401E+02  0.52952237193E+02  0.47000000000E+01 0. -1.
          5    1    5    5  503    0  0.56021800449E+02 -0.46090603342E+01 -0.10096058351E+03  0.11564953517E+03  0.47000000000E+01 0.  1.
         -5    1    5    5    0  503 -0.64875782639E+02 -0.41957498548E+02 -0.21810560584E+03  0.23143345514E+03  0.47000000000E+01 0.  1.
<mgrwt>
<rscale>  0 0.27568100E+03</rscale>
<asrwt>0</asrwt>
<pdfrwt beam="1">  1        1 0.87109906E-01 0.27568100E+03</pdfrwt>
<pdfrwt beam="2">  1       -1 0.51624923E-02 0.27568100E+03</pdfrwt>
<totfact> 0.63691390E+03</totfact>
</mgrwt>
</event>
<event>
 9    1  0.2073852E-002  0.2754716E+03  0.7818608E-02  0.1098188E+00
          2   -1    0    0  501    0  0.00000000000E+00  0.00000000000E+00  0.29400295862E+03  0.29400295862E+03  0.00000000000E+00 0.  1.
         -2   -1    0    0    0  501 -0.00000000000E+00 -0.00000000000E+00 -0.64527063140E+02  0.64527063140E+02  0.00000000000E+00 0.  1.
         36    2    1    2    0    0  0.35527136788E-14  0.00000000000E+00  0.22947589548E+03  0.35853002176E+03  0.27547157729E+03 0.  0.
         25    2    3    3    0    0 -0.13069358206E+02 -0.55076462208E+02  0.12087270396E+03  0.18419798305E+03  0.12694274924E+03 0.  0.
         25    2    3    3    0    0  0.13069358206E+02  0.55076462208E+02  0.10860319152E+03  0.17433203871E+03  0.12406764969E+03 0.  0.
          5    1    4    4  502    0  0.37739469682E+02 -0.74738545984E+02  0.80325139576E+02  0.11612207316E+03  0.47000000000E+01 0.  1.
         -5    1    4    4    0  502 -0.50808827888E+02  0.19662083776E+02  0.40547564382E+02  0.68075909888E+02  0.47000000000E+01 0.  1.
          5    1    5    5  503    0  0.16080483729E+02  0.62086052752E+02  0.13333211733E+03  0.14802973828E+03  0.47000000000E+01 0. -1.
         -5    1    5    5    0  503 -0.30111255235E+01 -0.70095905440E+01 -0.24728925806E+02  0.26302300432E+02  0.47000000000E+01 0. -1.
<mgrwt>
<rscale>  0 0.27547158E+03</rscale>
<asrwt>0</asrwt>
<pdfrwt beam="1">  1        2 0.45231224E-01 0.27547158E+03</pdfrwt>
<pdfrwt beam="2">  1       -2 0.99272406E-02 0.27547158E+03</pdfrwt>
<totfact> 0.74483013E+03</totfact>
</mgrwt>
</event>
<event>
 9    1  0.2073852E-002  0.2749380E+03  0.7818608E-02  0.1098486E+00
         -4   -1    0    0    0  501 -0.00000000000E+00  0.00000000000E+00  0.66144849279E+02  0.66144849279E+02  0.00000000000E+00 0. -1.
          4   -1    0    0  501    0  0.00000000000E+00 -0.00000000000E+00 -0.28570219191E+03  0.28570219191E+03  0.00000000000E+00 0. -1.
         36    2    1    2    0    0 -0.71054273576E-14 -0.88817841970E-15 -0.21955734263E+03  0.35184704119E+03  0.27493801791E+03 0.  0.
         25    2    3    3    0    0  0.51955412741E+02 -0.41856462058E+01 -0.84710412532E+02  0.15700167922E+03  0.12147752359E+03 0.  0.
         25    2    3    3    0    0 -0.51955412741E+02  0.41856462058E+01 -0.13484693010E+03  0.19484536197E+03  0.13062976681E+03 0.  0.
          5    1    4    4  502    0  0.81407208380E+02 -0.35128520295E+02 -0.51092596589E+02  0.10243871309E+03  0.47000000000E+01 0.  1.
         -5    1    4    4    0  502 -0.29451795639E+02  0.30942874089E+02 -0.33617815943E+02  0.54562966122E+02  0.47000000000E+01 0.  1.
          5    1    5    5  503    0 -0.95162318269E+02  0.81217120336E+00 -0.10622275169E+03  0.14269509248E+03  0.47000000000E+01 0. -1.
         -5    1    5    5    0  503  0.43206905528E+02  0.33734750025E+01 -0.28624178404E+02  0.52150269493E+02  0.47000000000E+01 0. -1.
<mgrwt>
<rscale>  0 0.27493802E+03</rscale>
<asrwt>0</asrwt>
<pdfrwt beam="1">  1        4 0.43954184E-01 0.27493802E+03</pdfrwt>
<pdfrwt beam="2">  1       -4 0.10176131E-01 0.27493802E+03</pdfrwt>
<totfact> 0.69590289E+02</totfact>
</mgrwt>
</event>
<event>
 9    1  0.2073852E-002  0.2747972E+03  0.7818608E-02  0.1098565E+00
         -2   -1    0    0    0  501 -0.00000000000E+00  0.00000000000E+00  0.31452575885E+02  0.31452575885E+02  0.00000000000E+00 0.  1.
          2   -1    0    0  501    0  0.00000000000E+00 -0.00000000000E+00 -0.60021705158E+03  0.60021705158E+03  0.00000000000E+00 0.  1.
         36    2    1    2    0    0 -0.35527136788E-14  0.00000000000E+00 -0.56876447569E+03  0.63166962746E+03  0.27479717875E+03 0.  0.
         25    2    3    3    0    0  0.12991569192E+02 -0.31715088563E+02 -0.17246168141E+03  0.21434320686E+03  0.12257793871E+03 0.  0.
         25    2    3    3    0    0 -0.12991569192E+02  0.31715088563E+02 -0.39630279428E+03  0.41732642060E+03  0.12621730810E+03 0.  0.
          5    1    4    4  502    0  0.24879557642E+02 -0.71309320423E+02 -0.67371720230E+02  0.10131658430E+03  0.47000000000E+01 0. -1.
         -5    1    4    4    0  502 -0.11887988450E+02  0.39594231860E+02 -0.10508996118E+03  0.11302662256E+03  0.47000000000E+01 0. -1.
          5    1    5    5  503    0  0.45485325082E+02  0.48775781544E+02 -0.24984823295E+03  0.25863917176E+03  0.47000000000E+01 0.  1.
         -5    1    5    5    0  503 -0.58476894273E+02 -0.17060692981E+02 -0.14645456133E+03  0.15868724883E+03  0.47000000000E+01 0.  1.
<mgrwt>
<rscale>  0 0.27479718E+03</rscale>
<asrwt>0</asrwt>
<pdfrwt beam="1">  1        2 0.92341081E-01 0.27479718E+03</pdfrwt>
<pdfrwt beam="2">  1       -2 0.48388580E-02 0.27479718E+03</pdfrwt>
<totfact> 0.10331844E+04</totfact>
</mgrwt>
</event>
<event>
 9    1  0.2073852E-002  0.2770999E+03  0.7818608E-02  0.1097284E+00
          2   -1    0    0  501    0  0.00000000000E+00  0.00000000000E+00  0.87538341638E+03  0.87538341638E+03  0.00000000000E+00 0.  1.
         -2   -1    0    0    0  501 -0.00000000000E+00 -0.00000000000E+00 -0.21928776191E+02  0.21928776191E+02  0.00000000000E+00 0.  1.
         36    2    1    2    0    0  0.00000000000E+00  0.71054273576E-14  0.85345464019E+03  0.89731219257E+03  0.27709988827E+03 0.  0.
         25    2    3    3    0    0 -0.16957490877E+02 -0.34259443173E+02  0.50694687987E+03  0.52342076464E+03  0.12455076035E+03 0.  0.
         25    2    3    3    0    0  0.16957490877E+02  0.34259443173E+02  0.34650776032E+03  0.37389142793E+03  0.13515141869E+03 0.  0.
          5    1    4    4  502    0 -0.24228655963E+02 -0.98841511707E+01  0.14477106089E+02  0.30272112824E+02  0.47000000000E+01 0. -1.
         -5    1    4    4    0  502  0.72711650852E+01 -0.24375292002E+02  0.49246977378E+03  0.49314865181E+03  0.47000000000E+01 0. -1.
          5    1    5    5  503    0 -0.75903583475E+01 -0.36367275897E+02  0.28178202904E+02  0.46864628611E+02  0.47000000000E+01 0. -1.
         -5    1    5    5    0  503  0.24547849225E+02  0.70626719070E+02  0.31832955742E+03  0.32702679932E+03  0.47000000000E+01 0. -1.
<mgrwt>
<rscale>  0 0.27709989E+03</rscale>
<asrwt>0</asrwt>
<pdfrwt beam="1">  1        2 0.13467434E+00 0.27709989E+03</pdfrwt>
<pdfrwt beam="2">  1       -2 0.33736586E-02 0.27709989E+03</pdfrwt>
<totfact> 0.11171383E+04</totfact>
</mgrwt>
</event>
<event>
 9    1  0.2073852E-002  0.2747378E+03  0.7818608E-02  0.1098598E+00
         -2   -1    0    0    0  501 -0.00000000000E+00  0.00000000000E+00  0.92165897102E+01  0.92165897102E+01  0.00000000000E+00 0.  1.
          2   -1    0    0  501    0  0.00000000000E+00 -0.00000000000E+00 -0.20474175824E+04  0.20474175824E+04  0.00000000000E+00 0.  1.
         36    2    1    2    0    0  0.71054273576E-14 -0.35527136788E-14 -0.20382009927E+04  0.20566341721E+04  0.27473775003E+03 0.  0.
         25    2    3    3    0    0  0.11274274035E+02  0.24132705379E+02 -0.91953867475E+03  0.93077985432E+03  0.14174013590E+03 0.  0.
         25    2    3    3    0    0 -0.11274274035E+02 -0.24132705379E+02 -0.11186623180E+04  0.11258543178E+04  0.12422989408E+03 0.  0.
          5    1    4    4  502    0  0.73014233860E+02 -0.67738417290E+01 -0.54103877732E+03  0.54600550532E+03  0.47000000000E+01 0. -1.
         -5    1    4    4    0  502 -0.61739959825E+02  0.30906547108E+02 -0.37849989743E+03  0.38477434900E+03  0.47000000000E+01 0. -1.
          5    1    5    5  503    0 -0.31517616486E+02  0.12925538817E+02 -0.98503375976E+03  0.98563382022E+03  0.47000000000E+01 0.  1.
         -5    1    5    5    0  503  0.20243342451E+02 -0.37058244197E+02 -0.13362855821E+03  0.14022049760E+03  0.47000000000E+01 0.  1.
<mgrwt>
<rscale>  0 0.27473775E+03</rscale>
<asrwt>0</asrwt>
<pdfrwt beam="1">  1        2 0.31498705E+00 0.27473775E+03</pdfrwt>
<pdfrwt beam="2">  1       -2 0.14179381E-02 0.27473775E+03</pdfrwt>
<totfact> 0.89854136E+03</totfact>
</mgrwt>
</event>
<event>
 9    1  0.2073852E-002  0.2744959E+03  0.7818608E-02  0.1098734E+00
         -1   -1    0    0    0  501 -0.00000000000E+00  0.00000000000E+00  0.40826311771E+03  0.40826311771E+03  0.00000000000E+00 0.  1.
          1   -1    0    0  501    0  0.00000000000E+00 -0.00000000000E+00 -0.46139358705E+02  0.46139358705E+02  0.00000000000E+00 0.  1.
         36    2    1    2    0    0  0.00000000000E+00 -0.14210854715E-13  0.36212375901E+03  0.45440247642E+03  0.27449589020E+03 0.  0.
         25    2    3    3    0    0  0.14565552433E+02  0.73426595655E+02  0.16154090866E+03  0.21665617194E+03  0.12345368121E+03 0.  0.
         25    2    3    3    0    0 -0.14565552433E+02 -0.73426595655E+02  0.20058285035E+03  0.23774630448E+03  0.10337410299E+03 0.  0.
          5    1    4    4  502    0 -0.42919246161E+02 -0.85036261625E+01  0.44459180903E+02  0.62554633045E+02  0.47000000000E+01 0.  1.
         -5    1    4    4    0  502  0.57484798594E+02  0.81930221818E+02  0.11708172775E+03  0.15410153890E+03  0.47000000000E+01 0.  1.
          5    1    5    5  503    0 -0.51233563699E+02 -0.41848362700E+02  0.61635434415E+02  0.90538280774E+02  0.47000000000E+01 0.  1.
         -5    1    5    5    0  503  0.36668011266E+02 -0.31578232956E+02  0.13894741594E+03  0.14720802370E+03  0.47000000000E+01 0.  1.
<mgrwt>
<rscale>  0 0.27449589E+03</rscale>
<asrwt>0</asrwt>
<pdfrwt beam="1">  1        1 0.70983632E-02 0.27449589E+03</pdfrwt>
<pdfrwt beam="2">  1       -1 0.62809708E-01 0.27449589E+03</pdfrwt>
<totfact> 0.27157844E+03</totfact>
</mgrwt>
</event>
<event>
 9    1  0.2073852E-002  0.2753552E+03  0.7818608E-02  0.1098253E+00
          4   -1    0    0  501    0  0.00000000000E+00  0.00000000000E+00  0.34161358166E+03  0.34161358166E+03  0.00000000000E+00 0.  1.
         -4   -1    0    0    0  501 -0.00000000000E+00 -0.00000000000E+00 -0.55487008114E+02  0.55487008114E+02  0.00000000000E+00 0.  1.
         36    2    1    2    0    0  0.00000000000E+00  0.00000000000E+00  0.28612657354E+03  0.39710058977E+03  0.27535515668E+03 0.  0.
         25    2    3    3    0    0  0.29092894960E+02 -0.47465811283E+01  0.75086818190E+02  0.14940184215E+03  0.12575354310E+03 0.  0.
         25    2    3    3    0    0 -0.29092894960E+02  0.47465811283E+01  0.21103975535E+03  0.24769874762E+03  0.12628525118E+03 0.  0.
          5    1    4    4  502    0  0.78070910190E+00  0.69269441223E+00 -0.35089909889E+02  0.35418654806E+02  0.47000000000E+01 0. -1.
         -5    1    4    4    0  502  0.28312185858E+02 -0.54392755405E+01  0.11017672808E+03  0.11398318734E+03  0.47000000000E+01 0. -1.
          5    1    5    5  503    0  0.43931072842E+02 -0.24143933084E+02  0.94766590936E+02  0.10731106850E+03  0.47000000000E+01 0.  1.
         -5    1    5    5    0  503 -0.73023967802E+02  0.28890514212E+02  0.11627316442E+03  0.14038767912E+03  0.47000000000E+01 0.  1.
<mgrwt>
<rscale>  0 0.27535516E+03</rscale>
<asrwt>0</asrwt>
<pdfrwt beam="1">  1        4 0.52555935E-01 0.27535516E+03</pdfrwt>
<pdfrwt beam="2">  1       -4 0.85364630E-02 0.27535516E+03</pdfrwt>
<totfact> 0.65006105E+02</totfact>
</mgrwt>
</event>
<event>
 9    1  0.2073852E-002  0.2749170E+03  0.7818608E-02  0.1098498E+00
          2   -1    0    0  501    0  0.00000000000E+00  0.00000000000E+00  0.16485240952E+04  0.16485240952E+04  0.00000000000E+00 0.  1.
         -2   -1    0    0    0  501 -0.00000000000E+00 -0.00000000000E+00 -0.11461668702E+02  0.11461668702E+02  0.00000000000E+00 0.  1.
         36    2    1    2    0    0  0.00000000000E+00  0.71054273576E-14  0.16370624265E+04  0.16599857639E+04  0.27491698402E+03 0.  0.
         25    2    3    3    0    0 -0.32656606245E+02  0.42720651406E+02  0.75858343235E+03  0.77079467625E+03  0.12563479261E+03 0.  0.
         25    2    3    3    0    0  0.32656606245E+02 -0.42720651406E+02  0.87847899411E+03  0.88919108762E+03  0.12666467229E+03 0.  0.
          5    1    4    4  502    0 -0.29621789942E+01  0.34785577219E+02  0.72167607795E+03  0.72253530181E+03  0.47000000000E+01 0. -1.
         -5    1    4    4    0  502 -0.29694427251E+02  0.79350741868E+01  0.36907354405E+02  0.48259374439E+02  0.47000000000E+01 0. -1.
          5    1    5    5  503    0  0.70128285850E+02 -0.15028307031E+01  0.65761703098E+03  0.66136410881E+03  0.47000000000E+01 0. -1.
         -5    1    5    5    0  503 -0.37471679605E+02 -0.41217820703E+02  0.22086196313E+03  0.22782697881E+03  0.47000000000E+01 0. -1.
<mgrwt>
<rscale>  0 0.27491698E+03</rscale>
<asrwt>0</asrwt>
<pdfrwt beam="1">  1        2 0.25361890E+00 0.27491698E+03</pdfrwt>
<pdfrwt beam="2">  1       -2 0.17633350E-02 0.27491698E+03</pdfrwt>
<totfact> 0.10583430E+04</totfact>
</mgrwt>
</event>
<event>
 9    1  0.2073852E-002  0.2756127E+03  0.7818608E-02  0.1098110E+00
          2   -1    0    0  501    0  0.00000000000E+00  0.00000000000E+00  0.51916921271E+03  0.51916921271E+03  0.00000000000E+00 0.  1.
         -2   -1    0    0    0  501 -0.00000000000E+00 -0.00000000000E+00 -0.36578813970E+02  0.36578813970E+02  0.00000000000E+00 0.  1.
         36    2    1    2    0    0 -0.35527136788E-14  0.35527136788E-14  0.48259039874E+03  0.55574802668E+03  0.27561272866E+03 0.  0.
         25    2    3    3    0    0  0.18160671669E+02 -0.15481935570E+02  0.35481903210E+03  0.37554649568E+03  0.12070262861E+03 0.  0.
         25    2    3    3    0    0 -0.18160671669E+02  0.15481935570E+02  0.12777136664E+03  0.18020153100E+03  0.12481013307E+03 0.  0.
          5    1    4    4  502    0 -0.30401553128E+02 -0.36568164432E+02  0.27833737404E+03  0.28240975350E+03  0.47000000000E+01 0.  1.
         -5    1    4    4    0  502  0.48562224796E+02  0.21086228862E+02  0.76481658058E+02  0.93136742181E+02  0.47000000000E+01 0.  1.
          5    1    5    5  503    0 -0.20621985649E+02 -0.18956841312E+02 -0.15772914466E+02  0.32488504973E+02  0.47000000000E+01 0. -1.
         -5    1    5    5    0  503  0.24613139800E+01  0.34438776883E+02  0.14354428111E+03  0.14771302603E+03  0.47000000000E+01 0. -1.
<mgrwt>
<rscale>  0 0.27561273E+03</rscale>
<asrwt>0</asrwt>
<pdfrwt beam="1">  1        2 0.79872181E-01 0.27561273E+03</pdfrwt>
<pdfrwt beam="2">  1       -2 0.56275102E-02 0.27561273E+03</pdfrwt>
<totfact> 0.96908678E+03</totfact>
</mgrwt>
</event>
<event>
 9    1  0.2073852E-002  0.2750775E+03  0.7818608E-02  0.1098408E+00
         -1   -1    0    0    0  501 -0.00000000000E+00  0.00000000000E+00  0.43328415080E+02  0.43328415080E+02  0.00000000000E+00 0. -1.
          1   -1    0    0  501    0  0.00000000000E+00 -0.00000000000E+00 -0.43659365079E+03  0.43659365079E+03  0.00000000000E+00 0. -1.
         36    2    1    2    0    0 -0.35527136788E-14  0.00000000000E+00 -0.39326523571E+03  0.47992206587E+03  0.27507752306E+03 0.  0.
         25    2    3    3    0    0  0.24910547337E+02  0.41199163546E+02 -0.25862760249E+03  0.29144141571E+03  0.12542709266E+03 0.  0.
         25    2    3    3    0    0 -0.24910547337E+02 -0.41199163546E+02 -0.13463763322E+03  0.18848065016E+03  0.12279966108E+03 0.  0.
          5    1    4    4  502    0  0.27257307131E+02  0.84966029162E+02 -0.18857018958E+03  0.20866957924E+03  0.47000000000E+01 0. -1.
         -5    1    4    4    0  502 -0.23467597943E+01 -0.43766865616E+02 -0.70057412910E+02  0.82771836461E+02  0.47000000000E+01 0. -1.
          5    1    5    5  503    0 -0.69611280909E+02 -0.49391544374E+02 -0.96954029923E+02  0.12925722032E+03  0.47000000000E+01 0.  1.
         -5    1    5    5    0  503  0.44700733573E+02  0.81923808285E+01 -0.37683603292E+02  0.59223429846E+02  0.47000000000E+01 0.  1.
<mgrwt>
<rscale>  0 0.27507752E+03</rscale>
<asrwt>0</asrwt>
<pdfrwt beam="1">  1        1 0.67168257E-01 0.27507752E+03</pdfrwt>
<pdfrwt beam="2">  1       -1 0.66659097E-02 0.27507752E+03</pdfrwt>
<totfact> 0.61207409E+03</totfact>
</mgrwt>
</event>
<event>
 9    1  0.2073852E-002  0.2720856E+03  0.7818608E-02  0.1100092E+00
          2   -1    0    0  501    0  0.00000000000E+00  0.00000000000E+00  0.99338742506E+03  0.99338742506E+03  0.00000000000E+00 0. -1.
         -2   -1    0    0    0  501 -0.00000000000E+00 -0.00000000000E+00 -0.18630836039E+02  0.18630836039E+02  0.00000000000E+00 0. -1.
         36    2    1    2    0    0  0.00000000000E+00  0.00000000000E+00  0.97475658902E+03  0.10120182611E+04  0.27208556184E+03 0.  0.
         25    2    3    3    0    0  0.32969573513E+02  0.44299592726E+02  0.54334356233E+03  0.55950747185E+03  0.12156042790E+03 0.  0.
         25    2    3    3    0    0 -0.32969573513E+02 -0.44299592726E+02  0.43141302669E+03  0.45251078925E+03  0.12489743032E+03 0.  0.
          5    1    4    4  502    0  0.51190489220E+02 -0.25453576960E+02  0.17551502327E+03  0.18465092515E+03  0.47000000000E+01 0.  1.
         -5    1    4    4    0  502 -0.18220915708E+02  0.69753169686E+02  0.36782853907E+03  0.37485654670E+03  0.47000000000E+01 0.  1.
          5    1    5    5  503    0 -0.34171237950E+02  0.17883396694E+02  0.33777040054E+03  0.33999768067E+03  0.47000000000E+01 0.  1.
         -5    1    5    5    0  503  0.12016644370E+01 -0.62182989420E+02  0.93642626149E+02  0.11251310858E+03  0.47000000000E+01 0.  1.
<mgrwt>
<rscale>  0 0.27208556E+03</rscale>
<asrwt>0</asrwt>
<pdfrwt beam="1">  1        2 0.15282879E+00 0.27208556E+03</pdfrwt>
<pdfrwt beam="2">  1       -2 0.28662832E-02 0.27208556E+03</pdfrwt>
<totfact> 0.11981439E+04</totfact>
</mgrwt>
</event>
<event>
 9    1  0.2073852E-002  0.2742821E+03  0.7818608E-02  0.1098854E+00
          2   -1    0    0  501    0  0.00000000000E+00  0.00000000000E+00  0.81268413520E+03  0.81268413520E+03  0.00000000000E+00 0.  1.
         -2   -1    0    0    0  501 -0.00000000000E+00 -0.00000000000E+00 -0.23142649177E+02  0.23142649177E+02  0.00000000000E+00 0.  1.
         36    2    1    2    0    0  0.35527136788E-14  0.00000000000E+00  0.78954148603E+03  0.83582678438E+03  0.27428207256E+03 0.  0.
         25    2    3    3    0    0  0.15509102683E+02 -0.50561227337E+02  0.33277077130E+03  0.35961035170E+03  0.12564333984E+03 0.  0.
         25    2    3    3    0    0 -0.15509102683E+02  0.50561227337E+02  0.45677071473E+03  0.47621643268E+03  0.12387749974E+03 0.  0.
          5    1    4    4  502    0  0.17460613484E+02 -0.23679747563E+01 -0.45749209003E+01  0.18801601765E+02  0.47000000000E+01 0.  1.
         -5    1    4    4    0  502 -0.19515108018E+01 -0.48193252580E+02  0.33734569220E+03  0.34080874994E+03  0.47000000000E+01 0.  1.
          5    1    5    5  503    0 -0.52066962862E+02  0.63248158397E+02  0.19503783499E+03  0.21159665697E+03  0.47000000000E+01 0.  1.
         -5    1    5    5    0  503  0.36557860179E+02 -0.12686931061E+02  0.26173287974E+03  0.26461977571E+03  0.47000000000E+01 0.  1.
<mgrwt>
<rscale>  0 0.27428207E+03</rscale>
<asrwt>0</asrwt>
<pdfrwt beam="1">  1        2 0.12502831E+00 0.27428207E+03</pdfrwt>
<pdfrwt beam="2">  1       -2 0.35604082E-02 0.27428207E+03</pdfrwt>
<totfact> 0.11348754E+04</totfact>
</mgrwt>
</event>
<event>
 9    1  0.2073852E-002  0.2744476E+03  0.7818608E-02  0.1098761E+00
          2   -1    0    0  501    0  0.00000000000E+00  0.00000000000E+00  0.27326054202E+04  0.27326054202E+04  0.00000000000E+00 0. -1.
         -2   -1    0    0    0  501 -0.00000000000E+00 -0.00000000000E+00 -0.68909945475E+01  0.68909945475E+01  0.00000000000E+00 0. -1.
         36    2    1    2    0    0  0.00000000000E+00  0.00000000000E+00  0.27257144256E+04  0.27394964147E+04  0.27444758371E+03 0.  0.
         25    2    3    3    0    0 -0.49956099018E+02  0.89694899771E+01  0.11063816588E+04  0.11145470664E+04  0.12473461716E+03 0.  0.
         25    2    3    3    0    0  0.49956099018E+02 -0.89694899771E+01  0.16193327668E+04  0.16249493483E+04  0.12508281778E+03 0.  0.
          5    1    4    4  502    0 -0.40960850061E+02  0.50019845526E-01  0.10122388184E+03  0.10929848120E+03  0.47000000000E+01 0.  1.
         -5    1    4    4    0  502 -0.89952489575E+01  0.89194701316E+01  0.10051577770E+04  0.10052485852E+04  0.47000000000E+01 0.  1.
          5    1    5    5  503    0  0.54838951859E+02 -0.46848971358E+02  0.52636506635E+03  0.53130444176E+03  0.47000000000E+01 0.  1.
         -5    1    5    5    0  503 -0.48828528408E+01  0.37879481380E+02  0.10929677004E+04  0.10936449065E+04  0.47000000000E+01 0.  1.
<mgrwt>
<rscale>  0 0.27444758E+03</rscale>
<asrwt>0</asrwt>
<pdfrwt beam="1">  1        2 0.42039997E+00 0.27444758E+03</pdfrwt>
<pdfrwt beam="2">  1       -2 0.10601552E-02 0.27444758E+03</pdfrwt>
<totfact> 0.58287664E+03</totfact>
</mgrwt>
</event>
<event>
 9    1  0.2073852E-002  0.2839329E+03  0.7818608E-02  0.1093560E+00
         -2   -1    0    0    0  501 -0.00000000000E+00  0.00000000000E+00  0.59572109068E+03  0.59572109068E+03  0.00000000000E+00 0.  1.
          2   -1    0    0  501    0  0.00000000000E+00 -0.00000000000E+00 -0.33832064974E+02  0.33832064974E+02  0.00000000000E+00 0.  1.
         36    2    1    2    0    0 -0.71054273576E-14 -0.71054273576E-14  0.56188902571E+03  0.62955315566E+03  0.28393291212E+03 0.  0.
         25    2    3    3    0    0 -0.55337900409E+02  0.29894743504E+02  0.28390309308E+03  0.31746138788E+03  0.12737655836E+03 0.  0.
         25    2    3    3    0    0  0.55337900409E+02 -0.29894743504E+02  0.27798593263E+03  0.31209176778E+03  0.12715783054E+03 0.  0.
          5    1    4    4  502    0 -0.68778423298E+01  0.56216601865E+02  0.45737863431E+02  0.72949662039E+02  0.47000000000E+01 0. -1.
         -5    1    4    4    0  502 -0.48460058079E+02 -0.26321858362E+02  0.23816522965E+03  0.24451172584E+03  0.47000000000E+01 0. -1.
          5    1    5    5  503    0  0.59168127936E+02 -0.58999070989E+02  0.94572658004E+02  0.12628473931E+03  0.47000000000E+01 0. -1.
         -5    1    5    5    0  503 -0.38302275269E+01  0.29104327485E+02  0.18341327462E+03  0.18580702847E+03  0.47000000000E+01 0. -1.
<mgrwt>
<rscale>  0 0.28393291E+03</rscale>
<asrwt>0</asrwt>
<pdfrwt beam="1">  1        2 0.52049335E-02 0.28393291E+03</pdfrwt>
<pdfrwt beam="2">  1       -2 0.91649391E-01 0.28393291E+03</pdfrwt>
<totfact> 0.15633299E+03</totfact>
</mgrwt>
</event>
<event>
 9    1  0.2073852E-002  0.2746504E+03  0.7818608E-02  0.1098647E+00
         -2   -1    0    0    0  501 -0.00000000000E+00  0.00000000000E+00  0.42896104222E+02  0.42896104222E+02  0.00000000000E+00 0. -1.
          2   -1    0    0  501    0  0.00000000000E+00 -0.00000000000E+00 -0.43962510092E+03  0.43962510092E+03  0.00000000000E+00 0. -1.
         36    2    1    2    0    0  0.00000000000E+00  0.00000000000E+00 -0.39672899669E+03  0.48252120514E+03  0.27465035334E+03 0.  0.
         25    2    3    3    0    0  0.24954141110E-01  0.37370580634E+02 -0.15466314532E+03  0.20633829309E+03  0.13137062745E+03 0.  0.
         25    2    3    3    0    0 -0.24954141110E-01 -0.37370580634E+02 -0.24206585138E+03  0.27618291205E+03  0.12761098536E+03 0.  0.
          5    1    4    4  502    0 -0.15244601921E+02  0.48300171488E+02 -0.40266087407E+00  0.50868031113E+02  0.47000000000E+01 0.  1.
         -5    1    4    4    0  502  0.15269556062E+02 -0.10929590854E+02 -0.15426048444E+03  0.15547026198E+03  0.47000000000E+01 0.  1.
          5    1    5    5  503    0  0.20217492072E+02 -0.81471136281E+02 -0.14692814849E+03  0.16928161108E+03  0.47000000000E+01 0.  1.
         -5    1    5    5    0  503 -0.20242446213E+02  0.44100555648E+02 -0.95137702891E+02  0.10690130097E+03  0.47000000000E+01 0.  1.
<mgrwt>
<rscale>  0 0.27465035E+03</rscale>
<asrwt>0</asrwt>
<pdfrwt beam="1">  1        2 0.67634628E-01 0.27465035E+03</pdfrwt>
<pdfrwt beam="2">  1       -2 0.65994010E-02 0.27465035E+03</pdfrwt>
<totfact> 0.91264122E+03</totfact>
</mgrwt>
</event>
<event>
 9    1  0.2073852E-002  0.2747348E+03  0.7818608E-02  0.1098600E+00
         -2   -1    0    0    0  501 -0.00000000000E+00  0.00000000000E+00  0.36204530997E+02  0.36204530997E+02  0.00000000000E+00 0.  1.
          2   -1    0    0  501    0  0.00000000000E+00 -0.00000000000E+00 -0.52120012463E+03  0.52120012463E+03  0.00000000000E+00 0.  1.
         36    2    1    2    0    0 -0.71054273576E-14  0.00000000000E+00 -0.48499559364E+03  0.55740465563E+03  0.27473482537E+03 0.  0.
         25    2    3    3    0    0  0.47388956406E+02  0.15446688222E+02 -0.29593274663E+03  0.32524661490E+03  0.12539879032E+03 0.  0.
         25    2    3    3    0    0 -0.47388956406E+02 -0.15446688222E+02 -0.18906284701E+03  0.23215804073E+03  0.12517300983E+03 0.  0.
          5    1    4    4  502    0 -0.26541463908E+02  0.33015365441E+02 -0.19043233492E+03  0.19514360826E+03  0.47000000000E+01 0.  1.
         -5    1    4    4    0  502  0.73930420313E+02 -0.17568677218E+02 -0.10550041171E+03  0.13010300664E+03  0.47000000000E+01 0.  1.
          5    1    5    5  503    0  0.62463403236E+01  0.28717613623E+02 -0.14874125977E+03  0.15168971770E+03  0.47000000000E+01 0.  1.
         -5    1    5    5    0  503 -0.53635296730E+02 -0.44164301845E+02 -0.40321587243E+02  0.80468323025E+02  0.47000000000E+01 0.  1.
<mgrwt>
<rscale>  0 0.27473483E+03</rscale>
<asrwt>0</asrwt>
<pdfrwt beam="1">  1        2 0.80184629E-01 0.27473483E+03</pdfrwt>
<pdfrwt beam="2">  1       -2 0.55699283E-02 0.27473483E+03</pdfrwt>
<totfact> 0.97999935E+03</totfact>
</mgrwt>
</event>
<event>
 9    1  0.2073852E-002  0.2747422E+03  0.7818608E-02  0.1098596E+00
          4   -1    0    0  501    0  0.00000000000E+00  0.00000000000E+00  0.10512012533E+03  0.10512012533E+03  0.00000000000E+00 0. -1.
         -4   -1    0    0    0  501 -0.00000000000E+00 -0.00000000000E+00 -0.17951667209E+03  0.17951667209E+03  0.00000000000E+00 0. -1.
         36    2    1    2    0    0  0.00000000000E+00  0.00000000000E+00 -0.74396546763E+02  0.28463679742E+03  0.27474217054E+03 0.  0.
         25    2    3    3    0    0 -0.37375543331E+02 -0.44555315158E+02 -0.51401209797E+02  0.14635857195E+03  0.12408319735E+03 0.  0.
         25    2    3    3    0    0  0.37375543331E+02  0.44555315158E+02 -0.22995336966E+02  0.13827822547E+03  0.12332872645E+03 0.  0.
          5    1    4    4  502    0 -0.43793626127E+02  0.35494739572E+02 -0.22572468825E+02  0.60904552995E+02  0.47000000000E+01 0.  1.
         -5    1    4    4    0  502  0.64180827962E+01 -0.80050054730E+02 -0.28828740972E+02  0.85454018952E+02  0.47000000000E+01 0.  1.
          5    1    5    5  503    0  0.80305206162E+00  0.65479391445E+02  0.28503274565E+02  0.71573195106E+02  0.47000000000E+01 0.  1.
         -5    1    5    5    0  503  0.36572491269E+02 -0.20924076288E+02 -0.51498611531E+02  0.66705030363E+02  0.47000000000E+01 0.  1.
<mgrwt>
<rscale>  0 0.27474217E+03</rscale>
<asrwt>0</asrwt>
<pdfrwt beam="1">  1        4 0.16172327E-01 0.27474217E+03</pdfrwt>
<pdfrwt beam="2">  1       -4 0.27617950E-01 0.27474217E+03</pdfrwt>
<totfact> 0.76961835E+02</totfact>
</mgrwt>
</event>
<event>
 9    1  0.2073852E-002  0.2751867E+03  0.7818608E-02  0.1098347E+00
          1   -1    0    0  501    0  0.00000000000E+00  0.00000000000E+00  0.56709213267E+03  0.56709213267E+03  0.00000000000E+00 0.  1.
         -1   -1    0    0    0  501 -0.00000000000E+00 -0.00000000000E+00 -0.33384224543E+02  0.33384224543E+02  0.00000000000E+00 0.  1.
         36    2    1    2    0    0  0.00000000000E+00  0.00000000000E+00  0.53370790813E+03  0.60047635721E+03  0.27518670821E+03 0.  0.
         25    2    3    3    0    0 -0.78521669169E+01  0.59573148232E+02  0.23770788638E+03  0.27385902452E+03  0.12199635055E+03 0.  0.
         25    2    3    3    0    0  0.78521669169E+01 -0.59573148232E+02  0.29600002175E+03  0.32661733270E+03  0.12430709001E+03 0.  0.
          5    1    4    4  502    0 -0.18594185752E+02 -0.13714341964E+02  0.17532876113E+03  0.17690701343E+03  0.47000000000E+01 0. -1.
         -5    1    4    4    0  502  0.10742018835E+02  0.73287490196E+02  0.62379125247E+02  0.96952011091E+02  0.47000000000E+01 0. -1.
          5    1    5    5  503    0 -0.55966531886E+02 -0.20741440215E+02  0.16785070544E+03  0.17820889245E+03  0.47000000000E+01 0. -1.
         -5    1    5    5    0  503  0.63818698803E+02 -0.38831708017E+02  0.12814931631E+03  0.14840844024E+03  0.47000000000E+01 0. -1.
<mgrwt>
<rscale>  0 0.27518671E+03</rscale>
<asrwt>0</asrwt>
<pdfrwt beam="1">  1        1 0.87244936E-01 0.27518671E+03</pdfrwt>
<pdfrwt beam="2">  1       -1 0.51360350E-02 0.27518671E+03</pdfrwt>
<totfact> 0.64044867E+03</totfact>
</mgrwt>
</event>
<event>
 9    1  0.2073852E-002  0.2742249E+03  0.7818608E-02  0.1098886E+00
          1   -1    0    0  501    0  0.00000000000E+00  0.00000000000E+00  0.35793652727E+02  0.35793652727E+02  0.00000000000E+00 0. -1.
         -1   -1    0    0    0  501 -0.00000000000E+00 -0.00000000000E+00 -0.52522769451E+03  0.52522769451E+03  0.00000000000E+00 0. -1.
         36    2    1    2    0    0  0.71054273576E-14  0.21316282073E-13 -0.48943404179E+03  0.56102134724E+03  0.27422485446E+03 0.  0.
         25    2    3    3    0    0 -0.40594801396E+02 -0.39827349007E+02 -0.23002528151E+03  0.27091273825E+03  0.13133135948E+03 0.  0.
         25    2    3    3    0    0  0.40594801396E+02  0.39827349007E+02 -0.25940876028E+03  0.29010860899E+03  0.11677304686E+03 0.  0.
          5    1    4    4  502    0 -0.47188335791E+02 -0.82766970963E+02 -0.18514742672E+03  0.20827570703E+03  0.47000000000E+01 0.  1.
         -5    1    4    4    0  502  0.65935343944E+01  0.42939621956E+02 -0.44877854783E+02  0.62637031215E+02  0.47000000000E+01 0.  1.
          5    1    5    5  503    0  0.14340855412E+02  0.87992896322E+01 -0.24662402325E+03  0.24724195938E+03  0.47000000000E+01 0. -1.
         -5    1    5    5    0  503  0.26253945984E+02  0.31028059375E+02 -0.12784737024E+02  0.42866649613E+02  0.47000000000E+01 0. -1.
<mgrwt>
<rscale>  0 0.27422485E+03</rscale>
<asrwt>0</asrwt>
<pdfrwt beam="1">  1        1 0.55067155E-02 0.27422485E+03</pdfrwt>
<pdfrwt beam="2">  1       -1 0.80804265E-01 0.27422485E+03</pdfrwt>
<totfact> 0.23206086E+03</totfact>
</mgrwt>
</event>
<event>
 9    1  0.2073852E-002  0.2757154E+03  0.7818608E-02  0.1098052E+00
         -2   -1    0    0    0  501 -0.00000000000E+00  0.00000000000E+00  0.24181574768E+02  0.24181574768E+02  0.00000000000E+00 0. -1.
          2   -1    0    0  501    0  0.00000000000E+00 -0.00000000000E+00 -0.78591861842E+03  0.78591861842E+03  0.00000000000E+00 0. -1.
         36    2    1    2    0    0 -0.71054273576E-14  0.00000000000E+00 -0.76173704365E+03  0.81010019319E+03  0.27571543180E+03 0.  0.
         25    2    3    3    0    0  0.17795838702E+02 -0.30967092594E+02 -0.32294076208E+03  0.35204406379E+03  0.13553093498E+03 0.  0.
         25    2    3    3    0    0 -0.17795838702E+02  0.30967092594E+02 -0.43879628157E+03  0.45805612940E+03  0.12648157282E+03 0.  0.
          5    1    4    4  502    0 -0.42070638394E+01 -0.96733669815E+01  0.11425904089E+02  0.16245451645E+02  0.47000000000E+01 0.  1.
         -5    1    4    4    0  502  0.22002902542E+02 -0.21293725612E+02 -0.33436666617E+03  0.33579861214E+03  0.47000000000E+01 0.  1.
          5    1    5    5  503    0  0.45351676133E+02  0.31251920626E+02 -0.30578272494E+03  0.31073883237E+03  0.47000000000E+01 0.  1.
         -5    1    5    5    0  503 -0.63147514835E+02 -0.28482803235E+00 -0.13301355663E+03  0.14731729703E+03  0.47000000000E+01 0.  1.
<mgrwt>
<rscale>  0 0.27571543E+03</rscale>
<asrwt>0</asrwt>
<pdfrwt beam="1">  1        2 0.12091056E+00 0.27571543E+03</pdfrwt>
<pdfrwt beam="2">  1       -2 0.37202421E-02 0.27571543E+03</pdfrwt>
<totfact> 0.11090597E+04</totfact>
</mgrwt>
</event>
<event>
 9    1  0.2073852E-002  0.2743194E+03  0.7818608E-02  0.1098833E+00
          2   -1    0    0  501    0  0.00000000000E+00  0.00000000000E+00  0.33676838455E+03  0.33676838455E+03  0.00000000000E+00 0.  1.
         -2   -1    0    0    0  501 -0.00000000000E+00 -0.00000000000E+00 -0.55862666986E+02  0.55862666986E+02  0.00000000000E+00 0.  1.
         36    2    1    2    0    0  0.71054273576E-14 -0.35527136788E-14  0.28090571757E+03  0.39263105154E+03  0.27431937677E+03 0.  0.
         25    2    3    3    0    0 -0.29398400052E+02  0.66451508300E+01  0.83637276530E+02  0.15753896321E+03  0.13005732178E+03 0.  0.
         25    2    3    3    0    0  0.29398400052E+02 -0.66451508300E+01  0.19726844104E+03  0.23509208833E+03  0.12427802787E+03 0.  0.
          5    1    4    4  502    0 -0.69736148460E+02  0.39841105340E+02  0.43255415742E+02  0.91343117244E+02  0.47000000000E+01 0. -1.
         -5    1    4    4    0  502  0.40337748408E+02 -0.33195954510E+02  0.40381860789E+02  0.66195845967E+02  0.47000000000E+01 0. -1.
          5    1    5    5  503    0 -0.13472672337E+02 -0.28363843191E+02 -0.25512762852E+00  0.31751780904E+02  0.47000000000E+01 0.  1.
         -5    1    5    5    0  503  0.42871072389E+02  0.21718692361E+02  0.19752356866E+03  0.20334030742E+03  0.47000000000E+01 0.  1.
<mgrwt>
<rscale>  0 0.27431938E+03</rscale>
<asrwt>0</asrwt>
<pdfrwt beam="1">  1        2 0.51810520E-01 0.27431938E+03</pdfrwt>
<pdfrwt beam="2">  1       -2 0.85942567E-02 0.27431938E+03</pdfrwt>
<totfact> 0.80801217E+03</totfact>
</mgrwt>
</event>
<event>
 9    1  0.2073852E-002  0.2789611E+03  0.7818608E-02  0.1096258E+00
         -1   -1    0    0    0  501 -0.00000000000E+00  0.00000000000E+00  0.10906343391E+02  0.10906343391E+02  0.00000000000E+00 0. -1.
          1   -1    0    0  501    0  0.00000000000E+00 -0.00000000000E+00 -0.17838074842E+04  0.17838074842E+04  0.00000000000E+00 0. -1.
         36    2    1    2    0    0  0.00000000000E+00  0.35527136788E-14 -0.17729011408E+04  0.17947138276E+04  0.27896105080E+03 0.  0.
         25    2    3    3    0    0  0.15827747410E+00  0.21165423566E+02 -0.56824307840E+03  0.58254843136E+03  0.12654832487E+03 0.  0.
         25    2    3    3    0    0 -0.15827747410E+00 -0.21165423566E+02 -0.12046580624E+04  0.12121653963E+04  0.13302593838E+03 0.  0.
          5    1    4    4  502    0  0.54291388594E+02  0.30639256176E+02 -0.41497630842E+03  0.41965908240E+03  0.47000000000E+01 0. -1.
         -5    1    4    4    0  502 -0.54133111120E+02 -0.94738326103E+01 -0.15326676998E+03  0.16288934896E+03  0.47000000000E+01 0. -1.
          5    1    5    5  503    0 -0.64056070318E+02  0.86726529922E+00 -0.46593912599E+03  0.47034592740E+03  0.47000000000E+01 0.  1.
         -5    1    5    5    0  503  0.63897792844E+02 -0.22032688865E+02 -0.73871893644E+03  0.74181946885E+03  0.47000000000E+01 0.  1.
<mgrwt>
<rscale>  0 0.27896105E+03</rscale>
<asrwt>0</asrwt>
<pdfrwt beam="1">  1        1 0.27443172E+00 0.27896105E+03</pdfrwt>
<pdfrwt beam="2">  1       -1 0.16779002E-02 0.27896105E+03</pdfrwt>
<totfact> 0.41323995E+03</totfact>
</mgrwt>
</event>
<event>
 9    1  0.2073852E-002  0.2755329E+03  0.7818608E-02  0.1098154E+00
          1   -1    0    0  501    0  0.00000000000E+00  0.00000000000E+00  0.16218159963E+03  0.16218159963E+03  0.00000000000E+00 0. -1.
         -1   -1    0    0    0  501 -0.00000000000E+00 -0.00000000000E+00 -0.11702677078E+03  0.11702677078E+03  0.00000000000E+00 0. -1.
         36    2    1    2    0    0  0.71054273576E-14  0.00000000000E+00  0.45154828841E+02  0.27920837041E+03  0.27553285746E+03 0.  0.
         25    2    3    3    0    0 -0.46672090334E+02  0.34665117460E+02  0.37411618691E+02  0.14102797723E+03  0.12291992012E+03 0.  0.
         25    2    3    3    0    0  0.46672090334E+02 -0.34665117460E+02  0.77432101495E+01  0.13818039318E+03  0.12511558405E+03 0.  0.
          5    1    4    4  502    0 -0.84374607804E+02  0.36235341623E+02  0.67760359770E+01  0.92195873488E+02  0.47000000000E+01 0.  1.
         -5    1    4    4    0  502  0.37702517470E+02 -0.15702241631E+01  0.30635582714E+02  0.48832103741E+02  0.47000000000E+01 0.  1.
          5    1    5    5  503    0 -0.58077306237E+01 -0.72461982365E+02 -0.23744181657E+00  0.72846516745E+02  0.47000000000E+01 0. -1.
         -5    1    5    5    0  503  0.52479820958E+02  0.37796864905E+02  0.79806519660E+01  0.65333876437E+02  0.47000000000E+01 0. -1.
<mgrwt>
<rscale>  0 0.27553286E+03</rscale>
<asrwt>0</asrwt>
<pdfrwt beam="1">  1        1 0.24951015E-01 0.27553286E+03</pdfrwt>
<pdfrwt beam="2">  1       -1 0.18004119E-01 0.27553286E+03</pdfrwt>
<totfact> 0.45623616E+03</totfact>
</mgrwt>
</event>
<event>
 9    1  0.2073852E-002  0.2765294E+03  0.7818608E-02  0.1097600E+00
          2   -1    0    0  501    0  0.00000000000E+00  0.00000000000E+00  0.94727011317E+03  0.94727011317E+03  0.00000000000E+00 0. -1.
         -2   -1    0    0    0  501 -0.00000000000E+00 -0.00000000000E+00 -0.20181283500E+02  0.20181283500E+02  0.00000000000E+00 0. -1.
         36    2    1    2    0    0 -0.71054273576E-14 -0.35527136788E-14  0.92708882967E+03  0.96745139667E+03  0.27652939594E+03 0.  0.
         25    2    3    3    0    0  0.21088152482E+02 -0.27621358372E+02  0.42402278117E+03  0.44115516531E+03  0.11668295213E+03 0.  0.
         25    2    3    3    0    0 -0.21088152482E+02  0.27621358372E+02  0.50306604850E+03  0.52629623136E+03  0.15068053747E+03 0.  0.
          5    1    4    4  502    0  0.56358746114E+02 -0.27112200153E+02  0.12330060526E+03  0.13833477118E+03  0.47000000000E+01 0. -1.
         -5    1    4    4    0  502 -0.35270593631E+02 -0.50915821853E+00  0.30072217591E+03  0.30282039413E+03  0.47000000000E+01 0. -1.
          5    1    5    5  503    0 -0.65741141061E+02  0.59216989220E+02  0.20673633621E+03  0.22492343619E+03  0.47000000000E+01 0. -1.
         -5    1    5    5    0  503  0.44652988578E+02 -0.31595630848E+02  0.29632971230E+03  0.30137279517E+03  0.47000000000E+01 0. -1.
<mgrwt>
<rscale>  0 0.27652940E+03</rscale>
<asrwt>0</asrwt>
<pdfrwt beam="1">  1        2 0.14573383E+00 0.27652940E+03</pdfrwt>
<pdfrwt beam="2">  1       -2 0.31048136E-02 0.27652940E+03</pdfrwt>
<totfact> 0.11369551E+04</totfact>
</mgrwt>
</event>
<event>
 9    1  0.2073852E-002  0.2740824E+03  0.7818608E-02  0.1098966E+00
         -2   -1    0    0    0  501 -0.00000000000E+00  0.00000000000E+00  0.14759306820E+02  0.14759306820E+02  0.00000000000E+00 0. -1.
          2   -1    0    0  501    0  0.00000000000E+00 -0.00000000000E+00 -0.12724368804E+04  0.12724368804E+04  0.00000000000E+00 0. -1.
         36    2    1    2    0    0  0.35527136788E-14 -0.44408920985E-14 -0.12576775735E+04  0.12871961872E+04  0.27408236957E+03 0.  0.
         25    2    3    3    0    0 -0.28182168694E+02  0.55297734697E+01 -0.86056589882E+03  0.86997072589E+03  0.12430038079E+03 0.  0.
         25    2    3    3    0    0  0.28182168694E+02 -0.55297734697E+01 -0.39711167472E+03  0.41722546129E+03  0.12471804330E+03 0.  0.
          5    1    4    4  502    0 -0.23636414417E+02  0.12451251635E+02 -0.34673065579E+02  0.44023007966E+02  0.47000000000E+01 0. -1.
         -5    1    4    4    0  502 -0.45457542771E+01 -0.69214781656E+01 -0.82589283324E+03  0.82594771792E+03  0.47000000000E+01 0. -1.
          5    1    5    5  503    0  0.11589618335E+02 -0.41684468649E+02 -0.35999426520E+03  0.36261532670E+03  0.47000000000E+01 0. -1.
         -5    1    5    5    0  503  0.16592550359E+02  0.36154695179E+02 -0.37117409523E+02  0.54610134596E+02  0.47000000000E+01 0. -1.
<mgrwt>
<rscale>  0 0.27408237E+03</rscale>
<asrwt>0</asrwt>
<pdfrwt beam="1">  1        2 0.19575946E+00 0.27408237E+03</pdfrwt>
<pdfrwt beam="2">  1       -2 0.22706632E-02 0.27408237E+03</pdfrwt>
<totfact> 0.11639672E+04</totfact>
</mgrwt>
</event>
<event>
 9    1  0.2073852E-002  0.2737430E+03  0.7818608E-02  0.1099156E+00
         -1   -1    0    0    0  501 -0.00000000000E+00  0.00000000000E+00  0.28721296094E+02  0.28721296094E+02  0.00000000000E+00 0. -1.
          1   -1    0    0  501    0  0.00000000000E+00 -0.00000000000E+00 -0.65226171007E+03  0.65226171007E+03  0.00000000000E+00 0. -1.
         36    2    1    2    0    0  0.71054273576E-14  0.00000000000E+00 -0.62354041397E+03  0.68098300616E+03  0.27374295758E+03 0.  0.
         25    2    3    3    0    0 -0.52888997605E+02 -0.27054448745E+02 -0.31552852699E+03  0.34280613378E+03  0.12011912730E+03 0.  0.
         25    2    3    3    0    0  0.52888997605E+02  0.27054448745E+02 -0.30801188698E+03  0.33817687238E+03  0.12634510371E+03 0.  0.
          5    1    4    4  502    0 -0.97713236179E+00  0.21092972393E+02 -0.23285015691E+03  0.23385284656E+03  0.47000000000E+01 0.  1.
         -5    1    4    4    0  502 -0.51911865243E+02 -0.48147421137E+02 -0.82678370087E+02  0.10895328722E+03  0.47000000000E+01 0.  1.
          5    1    5    5  503    0  0.31926179912E+02 -0.33295266557E+02 -0.24120013138E+03  0.24561646752E+03  0.47000000000E+01 0. -1.
         -5    1    5    5    0  503  0.20962817693E+02  0.60349715302E+02 -0.66811755597E+02  0.92560404864E+02  0.47000000000E+01 0. -1.
<mgrwt>
<rscale>  0 0.27374296E+03</rscale>
<asrwt>0</asrwt>
<pdfrwt beam="1">  1        1 0.10034795E+00 0.27374296E+03</pdfrwt>
<pdfrwt beam="2">  1       -1 0.44186611E-02 0.27374296E+03</pdfrwt>
<totfact> 0.65975462E+03</totfact>
</mgrwt>
</event>
<event>
 9    1  0.2073852E-002  0.2802324E+03  0.7818608E-02  0.1095562E+00
         -2   -1    0    0    0  501 -0.00000000000E+00  0.00000000000E+00  0.22286451725E+02  0.22286451725E+02  0.00000000000E+00 0. -1.
          2   -1    0    0  501    0  0.00000000000E+00 -0.00000000000E+00 -0.88091876920E+03  0.88091876920E+03  0.00000000000E+00 0. -1.
         36    2    1    2    0    0 -0.71054273576E-14  0.71054273576E-14 -0.85863231747E+03  0.90320522092E+03  0.28023242941E+03 0.  0.
         25    2    3    3    0    0 -0.20190970903E+02  0.58557229511E+02 -0.43171210218E+03  0.45324019199E+03  0.12334791457E+03 0.  0.
         25    2    3    3    0    0  0.20190970903E+02 -0.58557229511E+02 -0.42692021529E+03  0.44996502893E+03  0.12794933609E+03 0.  0.
          5    1    4    4  502    0  0.49577275465E+02  0.42465700881E+02 -0.18133126143E+03  0.19278059645E+03  0.47000000000E+01 0.  1.
         -5    1    4    4    0  502 -0.69768246368E+02  0.16091528630E+02 -0.25038084075E+03  0.26045959554E+03  0.47000000000E+01 0.  1.
          5    1    5    5  503    0 -0.28071766713E+01 -0.93499278640E+02 -0.22520563923E+03  0.24390503334E+03  0.47000000000E+01 0.  1.
         -5    1    5    5    0  503  0.22998147574E+02  0.34942049129E+02 -0.20171457606E+03  0.20605999560E+03  0.47000000000E+01 0.  1.
<mgrwt>
<rscale>  0 0.28023243E+03</rscale>
<asrwt>0</asrwt>
<pdfrwt beam="1">  1        2 0.13552597E+00 0.28023243E+03</pdfrwt>
<pdfrwt beam="2">  1       -2 0.34286848E-02 0.28023243E+03</pdfrwt>
<totfact> 0.10817682E+04</totfact>
</mgrwt>
</event>
<event>
 9    1  0.2073852E-002  0.2750050E+03  0.7818608E-02  0.1098449E+00
          3   -1    0    0  501    0  0.00000000000E+00  0.00000000000E+00  0.78356820809E+02  0.78356820809E+02  0.00000000000E+00 0. -1.
         -3   -1    0    0    0  501 -0.00000000000E+00 -0.00000000000E+00 -0.24129282036E+03  0.24129282036E+03  0.00000000000E+00 0. -1.
         36    2    1    2    0    0 -0.14210854715E-13  0.00000000000E+00 -0.16293599956E+03  0.31964964117E+03  0.27500500568E+03 0.  0.
         25    2    3    3    0    0 -0.41641639609E+02 -0.36315320609E+02 -0.84299849437E+02  0.16081513147E+03  0.12530847232E+03 0.  0.
         25    2    3    3    0    0  0.41641639609E+02  0.36315320609E+02 -0.78636150118E+02  0.15883450970E+03  0.12645919779E+03 0.  0.
          5    1    4    4  502    0  0.36812283211E+02 -0.30061534544E+02 -0.34456659113E+01  0.47883219064E+02  0.47000000000E+01 0. -1.
         -5    1    4    4    0  502 -0.78453922820E+02 -0.62537860653E+01 -0.80854183526E+02  0.11293191241E+03  0.47000000000E+01 0. -1.
          5    1    5    5  503    0 -0.13729598532E+02  0.70416514041E+02 -0.32133540739E+02  0.78750503274E+02  0.47000000000E+01 0. -1.
         -5    1    5    5    0  503  0.55371238140E+02 -0.34101193431E+02 -0.46502609380E+02  0.80084006429E+02  0.47000000000E+01 0. -1.
<mgrwt>
<rscale>  0 0.27500501E+03</rscale>
<asrwt>0</asrwt>
<pdfrwt beam="1">  1        3 0.12054896E-01 0.27500501E+03</pdfrwt>
<pdfrwt beam="2">  1       -3 0.37121972E-01 0.27500501E+03</pdfrwt>
<totfact> 0.98351478E+02</totfact>
</mgrwt>
</event>
<event>
 9    1  0.2073852E-002  0.2752418E+03  0.7818608E-02  0.1098316E+00
         -2   -1    0    0    0  501 -0.00000000000E+00  0.00000000000E+00  0.66072891588E+01  0.66072891588E+01  0.00000000000E+00 0. -1.
          2   -1    0    0  501    0  0.00000000000E+00 -0.00000000000E+00 -0.28664581531E+04  0.28664581531E+04  0.00000000000E+00 0. -1.
         36    2    1    2    0    0  0.00000000000E+00  0.00000000000E+00 -0.28598508639E+04  0.28730654422E+04  0.27524184187E+03 0.  0.
         25    2    3    3    0    0  0.59979011136E+02 -0.30734950577E+02 -0.18653594887E+04  0.18704617893E+04  0.12049549391E+03 0.  0.
         25    2    3    3    0    0 -0.59979011136E+02  0.30734950577E+02 -0.99449137520E+03  0.10026036530E+04  0.10797625018E+03 0.  0.
          5    1    4    4  502    0  0.33411649955E+02 -0.72855891590E+02 -0.82421886444E+03  0.82812024839E+03  0.47000000000E+01 0. -1.
         -5    1    4    4    0  502  0.26567361181E+02  0.42120941013E+02 -0.10411406243E+04  0.10423415409E+04  0.47000000000E+01 0. -1.
          5    1    5    5  503    0 -0.30643054564E+02 -0.39619471210E+02 -0.44372641533E+03  0.44656905508E+03  0.47000000000E+01 0.  1.
         -5    1    5    5    0  503 -0.29335956573E+02  0.70354421787E+02 -0.55076495987E+03  0.55603459788E+03  0.47000000000E+01 0.  1.
<mgrwt>
<rscale>  0 0.27524184E+03</rscale>
<asrwt>0</asrwt>
<pdfrwt beam="1">  1        2 0.44099402E+00 0.27524184E+03</pdfrwt>
<pdfrwt beam="2">  1       -2 0.10165050E-02 0.27524184E+03</pdfrwt>
<totfact> 0.51939674E+03</totfact>
</mgrwt>
</event>
<event>
 9    1  0.2073852E-002  0.2748102E+03  0.7818608E-02  0.1098558E+00
         -2   -1    0    0    0  501 -0.00000000000E+00  0.00000000000E+00  0.12729250825E+03  0.12729250825E+03  0.00000000000E+00 0.  1.
          2   -1    0    0  501    0  0.00000000000E+00 -0.00000000000E+00 -0.14832111696E+03  0.14832111696E+03  0.00000000000E+00 0.  1.
         36    2    1    2    0    0 -0.17763568394E-14  0.00000000000E+00 -0.21028608710E+02  0.27561362522E+03  0.27481024002E+03 0.  0.
         25    2    3    3    0    0 -0.14019290158E+02 -0.33151291682E+02 -0.45757945782E+02  0.14129669303E+03  0.12874555224E+03 0.  0.
         25    2    3    3    0    0  0.14019290158E+02  0.33151291682E+02  0.24729337072E+02  0.13431693218E+03  0.12701948481E+03 0.  0.
          5    1    4    4  502    0 -0.49433590403E+02 -0.59338613887E+01 -0.73209309872E+02  0.88659932455E+02  0.47000000000E+01 0. -1.
         -5    1    4    4    0  502  0.35414300245E+02 -0.27217430293E+02  0.27451364089E+02  0.52636760576E+02  0.47000000000E+01 0. -1.
          5    1    5    5  503    0  0.20238904717E+02 -0.36580827531E+02 -0.24425024285E+02  0.48646089445E+02  0.47000000000E+01 0.  1.
         -5    1    5    5    0  503 -0.62196145583E+01  0.69732119213E+02  0.49154361357E+02  0.85670842739E+02  0.47000000000E+01 0.  1.
<mgrwt>
<rscale>  0 0.27481024E+03</rscale>
<asrwt>0</asrwt>
<pdfrwt beam="1">  1        2 0.22818633E-01 0.27481024E+03</pdfrwt>
<pdfrwt beam="2">  1       -2 0.19583463E-01 0.27481024E+03</pdfrwt>
<totfact> 0.51647400E+03</totfact>
</mgrwt>
</event>
<event>
 9    1  0.2073852E-002  0.2726359E+03  0.7818608E-02  0.1099780E+00
         -1   -1    0    0    0  501 -0.00000000000E+00  0.00000000000E+00  0.26896993429E+02  0.26896993429E+02  0.00000000000E+00 0.  1.
          1   -1    0    0  501    0  0.00000000000E+00 -0.00000000000E+00 -0.69087961155E+03  0.69087961155E+03  0.00000000000E+00 0.  1.
         36    2    1    2    0    0 -0.35527136788E-14  0.00000000000E+00 -0.66398261812E+03  0.71777660498E+03  0.27263590645E+03 0.  0.
         25    2    3    3    0    0  0.11951246921E+02  0.17691858375E+02 -0.20958417183E+03  0.24637692357E+03  0.12775065256E+03 0.  0.
         25    2    3    3    0    0 -0.11951246921E+02 -0.17691858375E+02 -0.45439844628E+03  0.47139968140E+03  0.12362798019E+03 0.  0.
          5    1    4    4  502    0 -0.16527472527E+02 -0.21854250102E+02 -0.19253836971E+03  0.19453503388E+03  0.47000000000E+01 0. -1.
         -5    1    4    4    0  502  0.28478719448E+02  0.39546108477E+02 -0.17045802124E+02  0.51841889695E+02  0.47000000000E+01 0. -1.
          5    1    5    5  503    0 -0.42851718631E+02 -0.32883219196E+02 -0.41636482607E+03  0.41988014276E+03  0.47000000000E+01 0.  1.
         -5    1    5    5    0  503  0.30900471710E+02  0.15191360821E+02 -0.38033620212E+02  0.51519538642E+02  0.47000000000E+01 0.  1.
<mgrwt>
<rscale>  0 0.27263591E+03</rscale>
<asrwt>0</asrwt>
<pdfrwt beam="1">  1        1 0.10628918E+00 0.27263591E+03</pdfrwt>
<pdfrwt beam="2">  1       -1 0.41379986E-02 0.27263591E+03</pdfrwt>
<totfact> 0.66968167E+03</totfact>
</mgrwt>
</event>
<event>
 9    1  0.2073852E-002  0.2753562E+03  0.7818608E-02  0.1098253E+00
         -2   -1    0    0    0  501 -0.00000000000E+00  0.00000000000E+00  0.13960890664E+03  0.13960890664E+03  0.00000000000E+00 0. -1.
          2   -1    0    0  501    0  0.00000000000E+00 -0.00000000000E+00 -0.13577401053E+03  0.13577401053E+03  0.00000000000E+00 0. -1.
         36    2    1    2    0    0  0.00000000000E+00  0.00000000000E+00  0.38348961056E+01  0.27538291718E+03  0.27535621410E+03 0.  0.
         25    2    3    3    0    0 -0.12429661067E+02 -0.62658256205E+02  0.39301925871E+02  0.12978081417E+03  0.10591442208E+03 0.  0.
         25    2    3    3    0    0  0.12429661067E+02  0.62658256205E+02 -0.35467029765E+02  0.14560210301E+03  0.12594248153E+03 0.  0.
          5    1    4    4  502    0 -0.19752526902E+01  0.29395244232E+02  0.17135151731E+02  0.34404729784E+02  0.47000000000E+01 0.  1.
         -5    1    4    4    0  502 -0.10454408377E+02 -0.92053500437E+02  0.22166774140E+02  0.95376084387E+02  0.47000000000E+01 0.  1.
          5    1    5    5  503    0  0.14513804860E+02 -0.37501716551E+02 -0.15439718079E+02  0.43330176207E+02  0.47000000000E+01 0. -1.
         -5    1    5    5    0  503 -0.20841437931E+01  0.10015997276E+03 -0.20027311686E+02  0.10227192680E+03  0.47000000000E+01 0. -1.
<mgrwt>
<rscale>  0 0.27535621E+03</rscale>
<asrwt>0</asrwt>
<pdfrwt beam="1">  1        2 0.20888309E-01 0.27535621E+03</pdfrwt>
<pdfrwt beam="2">  1       -2 0.21478293E-01 0.27535621E+03</pdfrwt>
<totfact> 0.48725585E+03</totfact>
</mgrwt>
</event>
<event>
 9    1  0.2073852E-002  0.2752652E+03  0.7818608E-02  0.1098303E+00
         -1   -1    0    0    0  501 -0.00000000000E+00  0.00000000000E+00  0.57599130176E+03  0.57599130176E+03  0.00000000000E+00 0.  1.
          1   -1    0    0  501    0  0.00000000000E+00 -0.00000000000E+00 -0.32887182872E+02  0.32887182872E+02  0.00000000000E+00 0.  1.
         36    2    1    2    0    0 -0.35527136788E-14  0.14210854715E-13  0.54310411888E+03  0.60887848463E+03  0.27526519049E+03 0.  0.
         25    2    3    3    0    0 -0.10717783914E+02 -0.53639269745E+02  0.24494399899E+03  0.28060174171E+03  0.12548997034E+03 0.  0.
         25    2    3    3    0    0  0.10717783914E+02  0.53639269745E+02  0.29816011989E+03  0.32827674292E+03  0.12599254223E+03 0.  0.
          5    1    4    4  502    0 -0.14519225741E+02 -0.13699871529E+02  0.23887544756E+03  0.23975417377E+03  0.47000000000E+01 0. -1.
         -5    1    4    4    0  502  0.38014418261E+01 -0.39939398216E+02  0.60685514362E+01  0.40847567936E+02  0.47000000000E+01 0. -1.
          5    1    5    5  503    0  0.59470909445E+02  0.63500044450E+02  0.17952699471E+03  0.19955219003E+03  0.47000000000E+01 0.  1.
         -5    1    5    5    0  503 -0.48753125530E+02 -0.98607747052E+01  0.11863312518E+03  0.12872455289E+03  0.47000000000E+01 0.  1.
<mgrwt>
<rscale>  0 0.27526519E+03</rscale>
<asrwt>0</asrwt>
<pdfrwt beam="1">  1        1 0.50595670E-02 0.27526519E+03</pdfrwt>
<pdfrwt beam="2">  1       -1 0.88614039E-01 0.27526519E+03</pdfrwt>
<totfact> 0.21479501E+03</totfact>
</mgrwt>
</event>
<event>
 9    1  0.2073852E-002  0.2753658E+03  0.7818608E-02  0.1098247E+00
         -1   -1    0    0    0  501 -0.00000000000E+00  0.00000000000E+00  0.49685135986E+03  0.49685135986E+03  0.00000000000E+00 0.  1.
          1   -1    0    0  501    0  0.00000000000E+00 -0.00000000000E+00 -0.38153413172E+02  0.38153413172E+02  0.00000000000E+00 0.  1.
         36    2    1    2    0    0  0.00000000000E+00 -0.14210854715E-13  0.45869794669E+03  0.53500477303E+03  0.27536575835E+03 0.  0.
         25    2    3    3    0    0  0.12218593886E+02 -0.51287096054E+02  0.19702668663E+03  0.24097527500E+03  0.12833513804E+03 0.  0.
         25    2    3    3    0    0 -0.12218593886E+02  0.51287096054E+02  0.26167126006E+03  0.29402949804E+03  0.12329573033E+03 0.  0.
          5    1    4    4  502    0 -0.44531961522E+02 -0.66152730452E+02  0.11456266349E+03  0.13966378632E+03  0.47000000000E+01 0.  1.
         -5    1    4    4    0  502  0.56750555408E+02  0.14865634398E+02  0.82464023136E+02  0.10131148867E+03  0.47000000000E+01 0.  1.
          5    1    5    5  503    0 -0.65567585323E+01  0.84653009782E+02  0.23725618035E+03  0.25203513299E+03  0.47000000000E+01 0. -1.
         -5    1    5    5    0  503 -0.56618353542E+01 -0.33365913728E+02  0.24415079707E+02  0.41994365046E+02  0.47000000000E+01 0. -1.
<mgrwt>
<rscale>  0 0.27536576E+03</rscale>
<asrwt>0</asrwt>
<pdfrwt beam="1">  1        1 0.58697562E-02 0.27536576E+03</pdfrwt>
<pdfrwt beam="2">  1       -1 0.76438666E-01 0.27536576E+03</pdfrwt>
<totfact> 0.23831336E+03</totfact>
</mgrwt>
</event>
<event>
 9    1  0.2073852E-002  0.2748638E+03  0.7818608E-02  0.1098528E+00
         -4   -1    0    0    0  501 -0.00000000000E+00  0.00000000000E+00  0.14267327510E+04  0.14267327510E+04  0.00000000000E+00 0.  1.
          4   -1    0    0  501    0  0.00000000000E+00 -0.00000000000E+00 -0.13238304234E+02  0.13238304234E+02  0.00000000000E+00 0.  1.
         36    2    1    2    0    0 -0.14210854715E-13 -0.71054273576E-14  0.14134944467E+04  0.14399710552E+04  0.27486376420E+03 0.  0.
         25    2    3    3    0    0  0.41721915556E+02  0.90705924113E+01  0.55566861597E+03  0.57211447339E+03  0.12932272037E+03 0.  0.
         25    2    3    3    0    0 -0.41721915556E+02 -0.90705924113E+01  0.85782583077E+03  0.86785658182E+03  0.12444636107E+03 0.  0.
          5    1    4    4  502    0  0.14446030384E+02 -0.56657328404E+02  0.33822818615E+03  0.34327705511E+03  0.47000000000E+01 0.  1.
         -5    1    4    4    0  502  0.27275885172E+02  0.65727920815E+02  0.21744042982E+03  0.22883741828E+03  0.47000000000E+01 0.  1.
          5    1    5    5  503    0 -0.21265903881E+02  0.50194720685E+02  0.21087852024E+03  0.21786139849E+03  0.47000000000E+01 0.  1.
         -5    1    5    5    0  503 -0.20456011675E+02 -0.59265313096E+02  0.64694731053E+03  0.64999518333E+03  0.47000000000E+01 0.  1.
<mgrwt>
<rscale>  0 0.27486376E+03</rscale>
<asrwt>0</asrwt>
<pdfrwt beam="1">  1        4 0.20366633E-02 0.27486376E+03</pdfrwt>
<pdfrwt beam="2">  1       -4 0.21949723E+00 0.27486376E+03</pdfrwt>
<totfact> 0.20122228E+02</totfact>
</mgrwt>
</event>
<event>
 9    1  0.2073852E-002  0.2748404E+03  0.7818608E-02  0.1098541E+00
         -1   -1    0    0    0  501 -0.00000000000E+00  0.00000000000E+00  0.28354955819E+02  0.28354955819E+02  0.00000000000E+00 0. -1.
          1   -1    0    0  501    0  0.00000000000E+00 -0.00000000000E+00 -0.66599698336E+03  0.66599698336E+03  0.00000000000E+00 0. -1.
         36    2    1    2    0    0  0.35527136788E-14  0.00000000000E+00 -0.63764202755E+03  0.69435193918E+03  0.27484042671E+03 0.  0.
         25    2    3    3    0    0  0.12546060696E+02 -0.31882698097E+02 -0.39672982526E+03  0.41933429714E+03  0.13142598081E+03 0.  0.
         25    2    3    3    0    0 -0.12546060696E+02  0.31882698097E+02 -0.24091220229E+03  0.27501764204E+03  0.12814875788E+03 0.  0.
          5    1    4    4  502    0 -0.13858791407E+02 -0.15128753463E+02  0.29660680103E+00  0.21050493016E+02  0.47000000000E+01 0. -1.
         -5    1    4    4    0  502  0.26404852104E+02 -0.16753944634E+02 -0.39702643206E+03  0.39828380413E+03  0.47000000000E+01 0. -1.
          5    1    5    5  503    0  0.22996717948E+02  0.55279611854E+02 -0.46517947878E+02  0.75965084071E+02  0.47000000000E+01 0.  1.
         -5    1    5    5    0  503 -0.35542778645E+02 -0.23396913757E+02 -0.19439425441E+03  0.19905255797E+03  0.47000000000E+01 0.  1.
<mgrwt>
<rscale>  0 0.27484043E+03</rscale>
<asrwt>0</asrwt>
<pdfrwt beam="1">  1        1 0.10246108E+00 0.27484043E+03</pdfrwt>
<pdfrwt beam="2">  1       -1 0.43623007E-02 0.27484043E+03</pdfrwt>
<totfact> 0.65283945E+03</totfact>
</mgrwt>
</event>
<event>
 9    1  0.2073852E-002  0.2754214E+03  0.7818608E-02  0.1098216E+00
         -1   -1    0    0    0  501 -0.00000000000E+00  0.00000000000E+00  0.16247585786E+04  0.16247585786E+04  0.00000000000E+00 0.  1.
          1   -1    0    0  501    0  0.00000000000E+00 -0.00000000000E+00 -0.11672030915E+02  0.11672030915E+02  0.00000000000E+00 0.  1.
         36    2    1    2    0    0  0.71054273576E-14  0.71054273576E-14  0.16130865477E+04  0.16364306095E+04  0.27542136707E+03 0.  0.
         25    2    3    3    0    0 -0.18119424673E+02  0.52590108304E+02  0.73932047172E+03  0.75204619682E+03  0.12603447623E+03 0.  0.
         25    2    3    3    0    0  0.18119424673E+02 -0.52590108304E+02  0.87376607600E+03  0.88438441273E+03  0.12479824068E+03 0.  0.
          5    1    4    4  502    0 -0.42125983842E+02 -0.29325681503E+02  0.24158804723E+03  0.24702523894E+03  0.47000000000E+01 0.  1.
         -5    1    4    4    0  502  0.24006559168E+02  0.81915789808E+02  0.49773242449E+03  0.50502095787E+03  0.47000000000E+01 0.  1.
          5    1    5    5  503    0  0.26221959273E+02 -0.84374484639E+02  0.41012651112E+03  0.41956225989E+03  0.47000000000E+01 0.  1.
         -5    1    5    5    0  503 -0.81025345998E+01  0.31784376335E+02  0.46363956488E+03  0.46482215284E+03  0.47000000000E+01 0.  1.
<mgrwt>
<rscale>  0 0.27542137E+03</rscale>
<asrwt>0</asrwt>
<pdfrwt beam="1">  1        1 0.17956984E-02 0.27542137E+03</pdfrwt>
<pdfrwt beam="2">  1       -1 0.24996268E+00 0.27542137E+03</pdfrwt>
<totfact> 0.55955430E+02</totfact>
</mgrwt>
</event>
<event>
 9    1  0.2073852E-002  0.2759626E+03  0.7818608E-02  0.1097915E+00
         -3   -1    0    0    0  501 -0.00000000000E+00  0.00000000000E+00  0.64064375970E+02  0.64064375970E+02  0.00000000000E+00 0.  1.
          3   -1    0    0  501    0  0.00000000000E+00 -0.00000000000E+00 -0.29718299372E+03  0.29718299372E+03  0.00000000000E+00 0.  1.
         36    2    1    2    0    0 -0.71054273576E-14 -0.35527136788E-14 -0.23311861775E+03  0.36124736969E+03  0.27596262821E+03 0.  0.
         25    2    3    3    0    0 -0.34684262141E+02  0.11456097510E+02 -0.86953873948E+02  0.15668412099E+03  0.12511873307E+03 0.  0.
         25    2    3    3    0    0  0.34684262141E+02 -0.11456097510E+02 -0.14616474380E+03  0.20456324870E+03  0.13837539585E+03 0.  0.
          5    1    4    4  502    0 -0.81441353325E+02 -0.76645403182E+00 -0.50227039868E+02  0.95802541809E+02  0.47000000000E+01 0. -1.
         -5    1    4    4    0  502  0.46757091184E+02  0.12222551542E+02 -0.36726834080E+02  0.60881579182E+02  0.47000000000E+01 0. -1.
          5    1    5    5  503    0  0.39620099384E+02 -0.43978172266E+02 -0.50553407465E+01  0.59594281446E+02  0.47000000000E+01 0. -1.
         -5    1    5    5    0  503 -0.49358372433E+01  0.32522074756E+02 -0.14110940306E+03  0.14496896725E+03  0.47000000000E+01 0. -1.
<mgrwt>
<rscale>  0 0.27596263E+03</rscale>
<asrwt>0</asrwt>
<pdfrwt beam="1">  1        3 0.45720461E-01 0.27596263E+03</pdfrwt>
<pdfrwt beam="2">  1       -3 0.98560577E-02 0.27596263E+03</pdfrwt>
<totfact> 0.91869565E+02</totfact>
</mgrwt>
</event>
<event>
 9    1  0.2073852E-002  0.2748887E+03  0.7818608E-02  0.1098514E+00
         -4   -1    0    0    0  501 -0.00000000000E+00  0.00000000000E+00  0.37966611068E+02  0.37966611068E+02  0.00000000000E+00 0.  1.
          4   -1    0    0  501    0  0.00000000000E+00 -0.00000000000E+00 -0.49756741070E+03  0.49756741070E+03  0.00000000000E+00 0.  1.
         36    2    1    2    0    0  0.00000000000E+00 -0.71054273576E-14 -0.45960079964E+03  0.53553402177E+03  0.27488869284E+03 0.  0.
         25    2    3    3    0    0  0.17388581711E+02  0.28817937089E+02 -0.14364146738E+03  0.19347907299E+03  0.12517365643E+03 0.  0.
         25    2    3    3    0    0 -0.17388581711E+02 -0.28817937089E+02 -0.31595933226E+03  0.34205494878E+03  0.12664301035E+03 0.  0.
          5    1    4    4  502    0  0.48594657006E+02  0.49494576083E+02 -0.33728913295E+02  0.77271491141E+02  0.47000000000E+01 0.  1.
         -5    1    4    4    0  502 -0.31206075294E+02 -0.20676638993E+02 -0.10991255408E+03  0.11620758185E+03  0.47000000000E+01 0.  1.
          5    1    5    5  503    0  0.26805260983E+01  0.45020266417E+02 -0.18342088984E+03  0.18894264325E+03  0.47000000000E+01 0. -1.
         -5    1    5    5    0  503 -0.20069107810E+02 -0.73838203507E+02 -0.13253844242E+03  0.15311230553E+03  0.47000000000E+01 0. -1.
<mgrwt>
<rscale>  0 0.27488869E+03</rscale>
<asrwt>0</asrwt>
<pdfrwt beam="1">  1        4 0.76548831E-01 0.27488869E+03</pdfrwt>
<pdfrwt beam="2">  1       -4 0.58410172E-02 0.27488869E+03</pdfrwt>
<totfact> 0.54435853E+02</totfact>
</mgrwt>
</event>
<event>
 9    1  0.2073852E-002  0.2770331E+03  0.7818608E-02  0.1097320E+00
         -1   -1    0    0    0  501 -0.00000000000E+00  0.00000000000E+00  0.11779504578E+02  0.11779504578E+02  0.00000000000E+00 0. -1.
          1   -1    0    0  501    0  0.00000000000E+00 -0.00000000000E+00 -0.16288324940E+04  0.16288324940E+04  0.00000000000E+00 0. -1.
         36    2    1    2    0    0 -0.71054273576E-14  0.00000000000E+00 -0.16170529894E+04  0.16406119985E+04  0.27703313751E+03 0.  0.
         25    2    3    3    0    0 -0.33589428838E+02  0.55220526961E+02 -0.45853801814E+03  0.47390494960E+03  0.10075331680E+03 0.  0.
         25    2    3    3    0    0  0.33589428838E+02 -0.55220526961E+02 -0.11585149712E+04  0.11667070489E+04  0.12194606647E+03 0.  0.
          5    1    4    4  502    0  0.11199865794E+02 -0.42160830852E+01 -0.42560196109E+01  0.13543118301E+02  0.47000000000E+01 0. -1.
         -5    1    4    4    0  502 -0.44789294632E+02  0.59436610046E+02 -0.45428199853E+03  0.46036183130E+03  0.47000000000E+01 0. -1.
          5    1    5    5  503    0  0.10816379584E+02 -0.83986203386E+01 -0.11469286031E+02  0.18470663576E+02  0.47000000000E+01 0. -1.
         -5    1    5    5    0  503  0.22773049254E+02 -0.46821906622E+02 -0.11470456852E+04  0.11482363854E+04  0.47000000000E+01 0. -1.
<mgrwt>
<rscale>  0 0.27703314E+03</rscale>
<asrwt>0</asrwt>
<pdfrwt beam="1">  1        1 0.25058948E+00 0.27703314E+03</pdfrwt>
<pdfrwt beam="2">  1       -1 0.18122325E-02 0.27703314E+03</pdfrwt>
<totfact> 0.46616740E+03</totfact>
</mgrwt>
</event>
<event>
 9    1  0.2073852E-002  0.2729061E+03  0.7818608E-02  0.1099628E+00
          2   -1    0    0  501    0  0.00000000000E+00  0.00000000000E+00  0.28126268814E+04  0.28126268814E+04  0.00000000000E+00 0. -1.
         -2   -1    0    0    0  501 -0.00000000000E+00 -0.00000000000E+00 -0.66199458467E+01  0.66199458467E+01  0.00000000000E+00 0. -1.
         36    2    1    2    0    0 -0.17763568394E-14  0.00000000000E+00  0.28060069355E+04  0.28192468272E+04  0.27290612043E+03 0.  0.
         25    2    3    3    0    0 -0.23534797989E+01  0.36148757114E+01  0.80537311546E+03  0.81478037962E+03  0.12337992432E+03 0.  0.
         25    2    3    3    0    0  0.23534797989E+01 -0.36148757114E+01  0.20006338201E+04  0.20044664476E+04  0.12382023800E+03 0.  0.
          5    1    4    4  502    0  0.68410969107E+01 -0.58726793184E+02  0.33960902077E+03  0.34474920426E+03  0.47000000000E+01 0.  1.
         -5    1    4    4    0  502 -0.91945767096E+01  0.62341668895E+02  0.46576409468E+03  0.47003117537E+03  0.47000000000E+01 0.  1.
          5    1    5    5  503    0 -0.23751339862E+02  0.54488868530E+02  0.88595652904E+03  0.88796071100E+03  0.47000000000E+01 0.  1.
         -5    1    5    5    0  503  0.26104819660E+02 -0.58103744241E+02  0.11146772910E+04  0.11165057366E+04  0.47000000000E+01 0.  1.
<mgrwt>
<rscale>  0 0.27290612E+03</rscale>
<asrwt>0</asrwt>
<pdfrwt beam="1">  1        2 0.43271087E+00 0.27290612E+03</pdfrwt>
<pdfrwt beam="2">  1       -2 0.10184555E-02 0.27290612E+03</pdfrwt>
<totfact> 0.55636150E+03</totfact>
</mgrwt>
</event>
<event>
 9    1  0.2073852E-002  0.2718714E+03  0.7818608E-02  0.1100213E+00
          2   -1    0    0  501    0  0.00000000000E+00  0.00000000000E+00  0.84337471820E+03  0.84337471820E+03  0.00000000000E+00 0. -1.
         -2   -1    0    0    0  501 -0.00000000000E+00 -0.00000000000E+00 -0.21910214554E+02  0.21910214554E+02  0.00000000000E+00 0. -1.
         36    2    1    2    0    0  0.35527136788E-14  0.00000000000E+00  0.82146450365E+03  0.86528493276E+03  0.27187144775E+03 0.  0.
         25    2    3    3    0    0 -0.23087298628E+02  0.19077398048E+02  0.21996749285E+03  0.25046901912E+03  0.11598302098E+03 0.  0.
         25    2    3    3    0    0  0.23087298628E+02 -0.19077398048E+02  0.60149701080E+03  0.61481591363E+03  0.12370522697E+03 0.  0.
          5    1    4    4  502    0 -0.18543866224E+02  0.62451867181E+02  0.17862532863E+03  0.19019255694E+03  0.47000000000E+01 0. -1.
         -5    1    4    4    0  502 -0.45434324034E+01 -0.43374469133E+02  0.41342164223E+02  0.60276462182E+02  0.47000000000E+01 0. -1.
          5    1    5    5  503    0  0.53162737982E+02  0.24638686684E+02  0.16655555275E+03  0.17662441435E+03  0.47000000000E+01 0. -1.
         -5    1    5    5    0  503 -0.30075439355E+02 -0.43716084732E+02  0.43494145805E+03  0.43819149928E+03  0.47000000000E+01 0. -1.
<mgrwt>
<rscale>  0 0.27187145E+03</rscale>
<asrwt>0</asrwt>
<pdfrwt beam="1">  1        2 0.12974993E+00 0.27187145E+03</pdfrwt>
<pdfrwt beam="2">  1       -2 0.33708029E-02 0.27187145E+03</pdfrwt>
<totfact> 0.11737734E+04</totfact>
</mgrwt>
</event>
<event>
 9    1  0.2073852E-002  0.2752446E+03  0.7818608E-02  0.1098315E+00
         -2   -1    0    0    0  501 -0.00000000000E+00  0.00000000000E+00  0.18294932850E+02  0.18294932850E+02  0.00000000000E+00 0. -1.
          2   -1    0    0  501    0  0.00000000000E+00 -0.00000000000E+00 -0.10352537805E+04  0.10352537805E+04  0.00000000000E+00 0. -1.
         36    2    1    2    0    0  0.00000000000E+00 -0.14210854715E-13 -0.10169588477E+04  0.10535487134E+04  0.27524460684E+03 0.  0.
         25    2    3    3    0    0  0.16554063989E+02 -0.45763549205E+02 -0.56355292047E+03  0.58022814907E+03  0.12924577881E+03 0.  0.
         25    2    3    3    0    0 -0.16554063989E+02  0.45763549205E+02 -0.45340592722E+03  0.47332056432E+03  0.12683486230E+03 0.  0.
          5    1    4    4  502    0 -0.49067522337E+02 -0.48434876622E+02 -0.22664608941E+03  0.23694746014E+03  0.47000000000E+01 0.  1.
         -5    1    4    4    0  502  0.65621586326E+02  0.26713274173E+01 -0.33690683106E+03  0.34328068894E+03  0.47000000000E+01 0.  1.
          5    1    5    5  503    0  0.40414583829E+02 -0.22680887416E+02 -0.16404156987E+03  0.17052708843E+03  0.47000000000E+01 0. -1.
         -5    1    5    5    0  503 -0.56968647819E+02  0.68444436621E+02 -0.28936435735E+03  0.30279347589E+03  0.47000000000E+01 0. -1.
<mgrwt>
<rscale>  0 0.27524461E+03</rscale>
<asrwt>0</asrwt>
<pdfrwt beam="1">  1        2 0.15926983E+00 0.27524461E+03</pdfrwt>
<pdfrwt beam="2">  1       -2 0.28146048E-02 0.27524461E+03</pdfrwt>
<totfact> 0.11612625E+04</totfact>
</mgrwt>
</event>
<event>
 9    1  0.2073852E-002  0.2741377E+03  0.7818608E-02  0.1098935E+00
          2   -1    0    0  501    0  0.00000000000E+00  0.00000000000E+00  0.38217683568E+04  0.38217683568E+04  0.00000000000E+00 0. -1.
         -2   -1    0    0    0  501 -0.00000000000E+00 -0.00000000000E+00 -0.49160148308E+01  0.49160148308E+01  0.00000000000E+00 0. -1.
         36    2    1    2    0    0 -0.71054273576E-14  0.71054273576E-14  0.38168523419E+04  0.38266843716E+04  0.27413770205E+03 0.  0.
         25    2    3    3    0    0 -0.57098644802E+02  0.32199617430E+02  0.18742367698E+04  0.18795257165E+04  0.12472521448E+03 0.  0.
         25    2    3    3    0    0  0.57098644802E+02 -0.32199617430E+02  0.19426155721E+04  0.19471586551E+04  0.11564815779E+03 0.  0.
          5    1    4    4  502    0 -0.40040488669E+02  0.27842171765E+02  0.18407501163E+04  0.18414020495E+04  0.47000000000E+01 0. -1.
         -5    1    4    4    0  502 -0.17058156133E+02  0.43574456643E+01  0.33486653562E+02  0.38123667061E+02  0.47000000000E+01 0. -1.
          5    1    5    5  503    0 -0.19015029145E+02 -0.14806163003E+02  0.12331578494E+04  0.12334022723E+04  0.47000000000E+01 0.  1.
         -5    1    5    5    0  503  0.76113673947E+02 -0.17393454426E+02  0.70945772270E+03  0.71375638275E+03  0.47000000000E+01 0.  1.
<mgrwt>
<rscale>  0 0.27413770E+03</rscale>
<asrwt>0</asrwt>
<pdfrwt beam="1">  1        2 0.58796199E+00 0.27413770E+03</pdfrwt>
<pdfrwt beam="2">  1       -2 0.75631303E-03 0.27413770E+03</pdfrwt>
<totfact> 0.19416914E+03</totfact>
</mgrwt>
</event>
<event>
 9    1  0.2073852E-002  0.2748640E+03  0.7818608E-02  0.1098528E+00
          3   -1    0    0  501    0  0.00000000000E+00  0.00000000000E+00  0.28530844325E+03  0.28530844325E+03  0.00000000000E+00 0. -1.
         -3   -1    0    0    0  501 -0.00000000000E+00 -0.00000000000E+00 -0.66200473222E+02  0.66200473222E+02  0.00000000000E+00 0. -1.
         36    2    1    2    0    0  0.71054273576E-14  0.00000000000E+00  0.21910797003E+03  0.35150891647E+03  0.27486399515E+03 0.  0.
         25    2    3    3    0    0 -0.19558146178E+02  0.50025830461E+02  0.14002252444E+03  0.19376856211E+03  0.12269818057E+03 0.  0.
         25    2    3    3    0    0  0.19558146178E+02 -0.50025830461E+02  0.79085445583E+02  0.15774035436E+03  0.12546874868E+03 0.  0.
          5    1    4    4  502    0 -0.38918818040E+02  0.47438442193E+02  0.10174347117E+02  0.62375376028E+02  0.47000000000E+01 0.  1.
         -5    1    4    4    0  502  0.19360671862E+02  0.25873882688E+01  0.12984817733E+03  0.13139318608E+03  0.47000000000E+01 0.  1.
          5    1    5    5  503    0  0.20674366811E+02 -0.14310173957E+02  0.10834131430E+03  0.11131999329E+03  0.47000000000E+01 0.  1.
         -5    1    5    5    0  503 -0.11162206329E+01 -0.35715656504E+02 -0.29255868716E+02  0.46420361075E+02  0.47000000000E+01 0.  1.
<mgrwt>
<rscale>  0 0.27486400E+03</rscale>
<asrwt>0</asrwt>
<pdfrwt beam="1">  1        3 0.43893606E-01 0.27486400E+03</pdfrwt>
<pdfrwt beam="2">  1       -3 0.10184688E-01 0.27486400E+03</pdfrwt>
<totfact> 0.94248372E+02</totfact>
</mgrwt>
</event>
<event>
 9    1  0.2073852E-002  0.2732024E+03  0.7818608E-02  0.1099461E+00
          1   -1    0    0  501    0  0.00000000000E+00  0.00000000000E+00  0.12969983026E+02  0.12969983026E+02  0.00000000000E+00 0.  1.
         -1   -1    0    0    0  501 -0.00000000000E+00 -0.00000000000E+00 -0.14386974650E+04  0.14386974650E+04  0.00000000000E+00 0.  1.
         36    2    1    2    0    0 -0.71054273576E-14 -0.71054273576E-14 -0.14257274820E+04  0.14516674480E+04  0.27320235504E+03 0.  0.
         25    2    3    3    0    0 -0.20879630932E+01  0.38423498211E+02 -0.54148976252E+03  0.55775418933E+03  0.12805408229E+03 0.  0.
         25    2    3    3    0    0  0.20879630932E+01 -0.38423498211E+02 -0.88423771945E+03  0.89391325869E+03  0.12539475575E+03 0.  0.
          5    1    4    4  502    0 -0.18614876761E+02 -0.35180220322E+02 -0.73651887798E+02  0.83850176595E+02  0.47000000000E+01 0. -1.
         -5    1    4    4    0  502  0.16526913668E+02  0.73603718534E+02 -0.46783787473E+03  0.47390401273E+03  0.47000000000E+01 0. -1.
          5    1    5    5  503    0  0.42176909274E+02 -0.36865711324E+02 -0.18128006943E+03  0.18979601134E+03  0.47000000000E+01 0.  1.
         -5    1    5    5    0  503 -0.40088946181E+02 -0.15577868876E+01 -0.70295765002E+03  0.70411724736E+03  0.47000000000E+01 0.  1.
<mgrwt>
<rscale>  0 0.27320236E+03</rscale>
<asrwt>0</asrwt>
<pdfrwt beam="1">  1        1 0.19953824E-02 0.27320236E+03</pdfrwt>
<pdfrwt beam="2">  1       -1 0.22133803E+00 0.27320236E+03</pdfrwt>
<totfact> 0.73356872E+02</totfact>
</mgrwt>
</event>
<event>
 9    1  0.2073852E-002  0.2730654E+03  0.7818608E-02  0.1099538E+00
         -2   -1    0    0    0  501 -0.00000000000E+00  0.00000000000E+00  0.12232584766E+02  0.12232584766E+02  0.00000000000E+00 0. -1.
          2   -1    0    0  501    0  0.00000000000E+00 -0.00000000000E+00 -0.15238956960E+04  0.15238956960E+04  0.00000000000E+00 0. -1.
         36    2    1    2    0    0  0.00000000000E+00  0.71054273576E-14 -0.15116631112E+04  0.15361282807E+04  0.27306543740E+03 0.  0.
         25    2    3    3    0    0  0.59286502240E+02 -0.19555174308E+02 -0.78977681539E+03  0.80212872287E+03  0.12556184024E+03 0.  0.
         25    2    3    3    0    0 -0.59286502240E+02  0.19555174308E+02 -0.72188629581E+03  0.73399955787E+03  0.11721020725E+03 0.  0.
          5    1    4    4  502    0 -0.24495281603E+02 -0.40035696995E+02 -0.40715997111E+03  0.40988316376E+03  0.47000000000E+01 0. -1.
         -5    1    4    4    0  502  0.83781783843E+02  0.20480522687E+02 -0.38261684428E+03  0.39224555911E+03  0.47000000000E+01 0. -1.
          5    1    5    5  503    0 -0.52164528749E+02 -0.44014313122E+02 -0.39481515201E+03  0.40069875478E+03  0.47000000000E+01 0. -1.
         -5    1    5    5    0  503 -0.71219734910E+01  0.63569487430E+02 -0.32707114380E+03  0.33330080310E+03  0.47000000000E+01 0. -1.
<mgrwt>
<rscale>  0 0.27306544E+03</rscale>
<asrwt>0</asrwt>
<pdfrwt beam="1">  1        2 0.23444537E+00 0.27306544E+03</pdfrwt>
<pdfrwt beam="2">  1       -2 0.18819371E-02 0.27306544E+03</pdfrwt>
<totfact> 0.11199478E+04</totfact>
</mgrwt>
</event>
<event>
 9    1  0.2073852E-002  0.2749565E+03  0.7818608E-02  0.1098476E+00
         -3   -1    0    0    0  501 -0.00000000000E+00  0.00000000000E+00  0.43200718734E+02  0.43200718734E+02  0.00000000000E+00 0.  1.
          3   -1    0    0  501    0  0.00000000000E+00 -0.00000000000E+00 -0.43749899442E+03  0.43749899442E+03  0.00000000000E+00 0.  1.
         36    2    1    2    0    0  0.35527136788E-14 -0.71054273576E-14 -0.39429827569E+03  0.48069971315E+03  0.27495651296E+03 0.  0.
         25    2    3    3    0    0  0.17567367280E+02 -0.49324752574E+02 -0.16620239005E+03  0.21373526500E+03  0.12376584923E+03 0.  0.
         25    2    3    3    0    0 -0.17567367280E+02  0.49324752574E+02 -0.22809588564E+03  0.26696444816E+03  0.12845520591E+03 0.  0.
          5    1    4    4  502    0 -0.43651990600E+02 -0.13063759408E+02 -0.17899294143E+02  0.49179597640E+02  0.47000000000E+01 0. -1.
         -5    1    4    4    0  502  0.61219357880E+02 -0.36260993166E+02 -0.14830309590E+03  0.16455566736E+03  0.47000000000E+01 0. -1.
          5    1    5    5  503    0 -0.28035038306E+01 -0.33797188412E+02 -0.14285546756E+03  0.14690093325E+03  0.47000000000E+01 0.  1.
         -5    1    5    5    0  503 -0.14763863449E+02  0.83121940986E+02 -0.85240418080E+02  0.12006351491E+03  0.47000000000E+01 0.  1.
<mgrwt>
<rscale>  0 0.27495651E+03</rscale>
<asrwt>0</asrwt>
<pdfrwt beam="1">  1        3 0.67307537E-01 0.27495651E+03</pdfrwt>
<pdfrwt beam="2">  1       -3 0.66462645E-02 0.27495651E+03</pdfrwt>
<totfact> 0.79380729E+02</totfact>
</mgrwt>
</event>
<event>
 9    1  0.2073852E-002  0.2768086E+03  0.7818608E-02  0.1097445E+00
         -4   -1    0    0    0  501 -0.00000000000E+00  0.00000000000E+00  0.93427615965E+03  0.93427615965E+03  0.00000000000E+00 0.  1.
          4   -1    0    0  501    0  0.00000000000E+00 -0.00000000000E+00 -0.20503307095E+02  0.20503307095E+02  0.00000000000E+00 0.  1.
         36    2    1    2    0    0  0.00000000000E+00  0.00000000000E+00  0.91377285256E+03  0.95477946675E+03  0.27680860545E+03 0.  0.
         25    2    3    3    0    0 -0.46205041289E+02 -0.37546254797E+02  0.39472043964E+03  0.41821346774E+03  0.12471428160E+03 0.  0.
         25    2    3    3    0    0  0.46205041289E+02  0.37546254797E+02  0.51905241291E+03  0.53656599901E+03  0.12224171486E+03 0.  0.
          5    1    4    4  502    0 -0.27590436726E+02  0.38483657158E+02  0.73491759594E+02  0.87552000521E+02  0.47000000000E+01 0.  1.
         -5    1    4    4    0  502 -0.18614604563E+02 -0.76029911955E+02  0.32122868005E+03  0.33066146722E+03  0.47000000000E+01 0.  1.
          5    1    5    5  503    0  0.54820490340E+01 -0.41948399052E+02  0.11230858040E+03  0.12010423921E+03  0.47000000000E+01 0.  1.
         -5    1    5    5    0  503  0.40722992255E+02  0.79494653849E+02  0.40674383251E+03  0.41646175980E+03  0.47000000000E+01 0.  1.
<mgrwt>
<rscale>  0 0.27680861E+03</rscale>
<asrwt>0</asrwt>
<pdfrwt beam="1">  1        4 0.31543557E-02 0.27680861E+03</pdfrwt>
<pdfrwt beam="2">  1       -4 0.14373476E+00 0.27680861E+03</pdfrwt>
<totfact> 0.32945536E+02</totfact>
</mgrwt>
</event>
<event>
 9    1  0.2073852E-002  0.2706124E+03  0.7818608E-02  0.1100930E+00
          2   -1    0    0  501    0  0.00000000000E+00  0.00000000000E+00  0.95920553900E+02  0.95920553900E+02  0.00000000000E+00 0.  1.
         -2   -1    0    0    0  501 -0.00000000000E+00 -0.00000000000E+00 -0.19086386200E+03  0.19086386200E+03  0.00000000000E+00 0.  1.
         36    2    1    2    0    0  0.71054273576E-14  0.71054273576E-14 -0.94943308097E+02  0.28678441590E+03  0.27061239707E+03 0.  0.
         25    2    3    3    0    0 -0.43598893572E+02  0.22223475713E+02 -0.71240582248E+02  0.14579988372E+03  0.11742077815E+03 0.  0.
         25    2    3    3    0    0  0.43598893572E+02 -0.22223475713E+02 -0.23702725850E+02  0.14098453218E+03  0.13007717981E+03 0.  0.
          5    1    4    4  502    0 -0.98846234872E+01 -0.43609182697E+02 -0.30103699286E+01  0.45062389241E+02  0.47000000000E+01 0. -1.
         -5    1    4    4    0  502 -0.33714270084E+02  0.65832658410E+02 -0.68230212319E+02  0.10073749448E+03  0.47000000000E+01 0. -1.
          5    1    5    5  503    0  0.23460992409E+02 -0.33168888396E+01  0.53583111050E+02  0.58776353291E+02  0.47000000000E+01 0.  1.
         -5    1    5    5    0  503  0.20137901163E+02 -0.18906586873E+02 -0.77285836900E+02  0.82208178886E+02  0.47000000000E+01 0.  1.
<mgrwt>
<rscale>  0 0.27061240E+03</rscale>
<asrwt>0</asrwt>
<pdfrwt beam="1">  1        2 0.14757008E-01 0.27061240E+03</pdfrwt>
<pdfrwt beam="2">  1       -2 0.29363671E-01 0.27061240E+03</pdfrwt>
<totfact> 0.41989250E+03</totfact>
</mgrwt>
</event>
<event>
 9    1  0.2073852E-002  0.2753126E+03  0.7818608E-02  0.1098277E+00
          4   -1    0    0  501    0  0.00000000000E+00  0.00000000000E+00  0.39619901062E+02  0.39619901062E+02  0.00000000000E+00 0.  1.
         -4   -1    0    0    0  501 -0.00000000000E+00 -0.00000000000E+00 -0.47827637030E+03  0.47827637030E+03  0.00000000000E+00 0.  1.
         36    2    1    2    0    0  0.71054273576E-14  0.71054273576E-14 -0.43865646924E+03  0.51789627136E+03  0.27531264026E+03 0.  0.
         25    2    3    3    0    0 -0.61062470792E+02 -0.10083310710E+02 -0.10695778524E+03  0.16433046652E+03  0.10832467820E+03 0.  0.
         25    2    3    3    0    0  0.61062470792E+02  0.10083310710E+02 -0.33169868400E+03  0.35356580485E+03  0.10561469074E+03 0.  0.
          5    1    4    4  502    0 -0.40767685375E+02 -0.15397130263E+02 -0.12736028115E+03  0.13469152537E+03  0.47000000000E+01 0.  1.
         -5    1    4    4    0  502 -0.20294785417E+02  0.53138195529E+01  0.20402495905E+02  0.29638941150E+02  0.47000000000E+01 0.  1.
          5    1    5    5  503    0  0.52287326424E+02 -0.37409464453E+02 -0.11833972942E+03  0.13475835445E+03  0.47000000000E+01 0. -1.
         -5    1    5    5    0  503  0.87751443682E+01  0.47492775164E+02 -0.21335895458E+03  0.21880745040E+03  0.47000000000E+01 0. -1.
<mgrwt>
<rscale>  0 0.27531264E+03</rscale>
<asrwt>0</asrwt>
<pdfrwt beam="1">  1        4 0.60953691E-02 0.27531264E+03</pdfrwt>
<pdfrwt beam="2">  1       -4 0.73580984E-01 0.27531264E+03</pdfrwt>
<totfact> 0.55408718E+02</totfact>
</mgrwt>
</event>
<event>
 9    1  0.2073852E-002  0.2750446E+03  0.7818608E-02  0.1098427E+00
          2   -1    0    0  501    0  0.00000000000E+00  0.00000000000E+00  0.61659980452E+03  0.61659980452E+03  0.00000000000E+00 0. -1.
         -2   -1    0    0    0  501 -0.00000000000E+00 -0.00000000000E+00 -0.30672060741E+02  0.30672060741E+02  0.00000000000E+00 0. -1.
         36    2    1    2    0    0  0.00000000000E+00  0.14210854715E-13  0.58592774377E+03  0.64727186526E+03  0.27504462661E+03 0.  0.
         25    2    3    3    0    0 -0.40805227745E+02 -0.46405461239E+02  0.30131856692E+03  0.33153750353E+03  0.12371622380E+03 0.  0.
         25    2    3    3    0    0  0.40805227745E+02  0.46405461239E+02  0.28460917685E+03  0.31573436173E+03  0.12193141589E+03 0.  0.
          5    1    4    4  502    0  0.12677251474E+02 -0.46689851764E+02  0.35093045407E+02  0.59952204285E+02  0.47000000000E+01 0.  1.
         -5    1    4    4    0  502 -0.53482479219E+02  0.28439052443E+00  0.26622552151E+03  0.27158529924E+03  0.47000000000E+01 0.  1.
          5    1    5    5  503    0  0.50900781392E+02  0.40391501352E+02  0.29325652859E+03  0.30040613257E+03  0.47000000000E+01 0.  1.
         -5    1    5    5    0  503 -0.10095553648E+02  0.60139598873E+01 -0.86473517342E+01  0.15328229154E+02  0.47000000000E+01 0.  1.
<mgrwt>
<rscale>  0 0.27504463E+03</rscale>
<asrwt>0</asrwt>
<pdfrwt beam="1">  1        2 0.94861499E-01 0.27504463E+03</pdfrwt>
<pdfrwt beam="2">  1       -2 0.47187791E-02 0.27504463E+03</pdfrwt>
<totfact> 0.10401815E+04</totfact>
</mgrwt>
</event>
<event>
 9    1  0.2073852E-002  0.2752637E+03  0.7818608E-02  0.1098304E+00
         -2   -1    0    0    0  501 -0.00000000000E+00  0.00000000000E+00  0.37827290713E+02  0.37827290713E+02  0.00000000000E+00 0.  1.
          2   -1    0    0  501    0  0.00000000000E+00 -0.00000000000E+00 -0.50076345306E+03  0.50076345306E+03  0.00000000000E+00 0.  1.
         36    2    1    2    0    0  0.71054273576E-14 -0.71054273576E-14 -0.46293616235E+03  0.53859074377E+03  0.27526368970E+03 0.  0.
         25    2    3    3    0    0 -0.28157801450E+02 -0.45020315793E+02 -0.27943466612E+03  0.31022927798E+03  0.12384983515E+03 0.  0.
         25    2    3    3    0    0  0.28157801450E+02  0.45020315793E+02 -0.18350149622E+03  0.22836146580E+03  0.12512581399E+03 0.  0.
          5    1    4    4  502    0  0.10011788063E+02  0.33060355048E+02 -0.15173791930E+03  0.15569106952E+03  0.47000000000E+01 0.  1.
         -5    1    4    4    0  502 -0.38169589513E+02 -0.78080670841E+02 -0.12769674682E+03  0.15453820845E+03  0.47000000000E+01 0.  1.
          5    1    5    5  503    0  0.55111628746E+02 -0.23329314127E+02 -0.62034490207E+02  0.86324483756E+02  0.47000000000E+01 0. -1.
         -5    1    5    5    0  503 -0.26953827296E+02  0.68349629920E+02 -0.12146700602E+03  0.14203698204E+03  0.47000000000E+01 0. -1.
<mgrwt>
<rscale>  0 0.27526369E+03</rscale>
<asrwt>0</asrwt>
<pdfrwt beam="1">  1        2 0.77040527E-01 0.27526369E+03</pdfrwt>
<pdfrwt beam="2">  1       -2 0.58195835E-02 0.27526369E+03</pdfrwt>
<totfact> 0.95860116E+03</totfact>
</mgrwt>
</event>
<event>
 9    1  0.2073852E-002  0.2752014E+03  0.7818608E-02  0.1098339E+00
          1   -1    0    0  501    0  0.00000000000E+00  0.00000000000E+00  0.44574005314E+02  0.44574005314E+02  0.00000000000E+00 0.  1.
         -1   -1    0    0    0  501 -0.00000000000E+00 -0.00000000000E+00 -0.42477557801E+03  0.42477557801E+03  0.00000000000E+00 0.  1.
         36    2    1    2    0    0  0.71054273576E-14  0.00000000000E+00 -0.38020157270E+03  0.46934958333E+03  0.27520137261E+03 0.  0.
         25    2    3    3    0    0 -0.38607315821E+02  0.29006732255E+02 -0.12229724438E+03  0.17821060087E+03  0.12029333700E+03 0.  0.
         25    2    3    3    0    0  0.38607315821E+02 -0.29006732255E+02 -0.25790432832E+03  0.29113898246E+03  0.12615605095E+03 0.  0.
          5    1    4    4  502    0 -0.29801429746E+02 -0.93700554750E+01 -0.13335353302E+03  0.13704443777E+03  0.47000000000E+01 0.  1.
         -5    1    4    4    0  502 -0.88058860752E+01  0.38376787730E+02  0.11056288638E+02  0.41166163101E+02  0.47000000000E+01 0.  1.
          5    1    5    5  503    0  0.15365275392E+02 -0.18538417406E+02 -0.26348497540E+03  0.26462461501E+03  0.47000000000E+01 0.  1.
         -5    1    5    5    0  503  0.23242040429E+02 -0.10468314849E+02  0.55806470850E+01  0.26514367444E+02  0.47000000000E+01 0.  1.
<mgrwt>
<rscale>  0 0.27520137E+03</rscale>
<asrwt>0</asrwt>
<pdfrwt beam="1">  1        1 0.68575392E-02 0.27520137E+03</pdfrwt>
<pdfrwt beam="2">  1       -1 0.65350089E-01 0.27520137E+03</pdfrwt>
<totfact> 0.26349639E+03</totfact>
</mgrwt>
</event>
<event>
 9    1  0.2073852E-002  0.2753787E+03  0.7818608E-02  0.1098240E+00
          1   -1    0    0  501    0  0.00000000000E+00  0.00000000000E+00  0.12278059841E+02  0.12278059841E+02  0.00000000000E+00 0.  1.
         -1   -1    0    0    0  501 -0.00000000000E+00 -0.00000000000E+00 -0.15440844962E+04  0.15440844962E+04  0.00000000000E+00 0.  1.
         36    2    1    2    0    0 -0.71054273576E-14 -0.14210854715E-13 -0.15318064363E+04  0.15563625560E+04  0.27537873442E+03 0.  0.
         25    2    3    3    0    0  0.41648117959E+02  0.40788650252E+02 -0.66027532297E+03  0.67400408030E+03  0.12214629924E+03 0.  0.
         25    2    3    3    0    0 -0.41648117959E+02 -0.40788650252E+02 -0.87153111334E+03  0.88235847570E+03  0.12486680259E+03 0.  0.
          5    1    4    4  502    0  0.18549273319E+02  0.53123211037E+02 -0.11533737812E+03  0.12841710121E+03  0.47000000000E+01 0. -1.
         -5    1    4    4    0  502  0.23098844640E+02 -0.12334560785E+02 -0.54493794486E+03  0.54558697910E+03  0.47000000000E+01 0. -1.
          5    1    5    5  503    0  0.21294530892E+02 -0.44132844363E+02 -0.14592004253E+03  0.15399972016E+03  0.47000000000E+01 0. -1.
         -5    1    5    5    0  503 -0.62942648851E+02  0.33441941116E+01 -0.72561107082E+03  0.72835875554E+03  0.47000000000E+01 0. -1.
<mgrwt>
<rscale>  0 0.27537873E+03</rscale>
<asrwt>0</asrwt>
<pdfrwt beam="1">  1        1 0.18889324E-02 0.27537873E+03</pdfrwt>
<pdfrwt beam="2">  1       -1 0.23755144E+00 0.27537873E+03</pdfrwt>
<totfact> 0.62406424E+02</totfact>
</mgrwt>
</event>
<event>
 9    1  0.2073852E-002  0.2763315E+03  0.7818608E-02  0.1097710E+00
         -2   -1    0    0    0  501 -0.00000000000E+00  0.00000000000E+00  0.14731055250E+02  0.14731055250E+02  0.00000000000E+00 0.  1.
          2   -1    0    0  501    0  0.00000000000E+00 -0.00000000000E+00 -0.12958860074E+04  0.12958860074E+04  0.00000000000E+00 0.  1.
         36    2    1    2    0    0 -0.71054273576E-14 -0.71054273576E-14 -0.12811549522E+04  0.13106170627E+04  0.27633145585E+03 0.  0.
         25    2    3    3    0    0  0.59183560265E+02  0.39632564038E+02 -0.73188075883E+03  0.74320314110E+03  0.10783334299E+03 0.  0.
         25    2    3    3    0    0 -0.59183560265E+02 -0.39632564038E+02 -0.54927419336E+03  0.56741392158E+03  0.12321925573E+03 0.  0.
          5    1    4    4  502    0  0.67493107323E+02  0.26640860910E+02 -0.23345327326E+03  0.24451498073E+03  0.47000000000E+01 0.  1.
         -5    1    4    4    0  502 -0.83095470583E+01  0.12991703128E+02 -0.49842748557E+03  0.49868816037E+03  0.47000000000E+01 0.  1.
          5    1    5    5  503    0 -0.65987898749E+01  0.43125044292E+02 -0.18660105159E+03  0.19169078206E+03  0.47000000000E+01 0.  1.
         -5    1    5    5    0  503 -0.52584770390E+02 -0.82757608330E+02 -0.36267314177E+03  0.37572313952E+03  0.47000000000E+01 0.  1.
<mgrwt>
<rscale>  0 0.27633146E+03</rscale>
<asrwt>0</asrwt>
<pdfrwt beam="1">  1        2 0.19936712E+00 0.27633146E+03</pdfrwt>
<pdfrwt beam="2">  1       -2 0.22663157E-02 0.27633146E+03</pdfrwt>
<totfact> 0.11329894E+04</totfact>
</mgrwt>
</event>
<event>
 9    1  0.2073852E-002  0.2743691E+03  0.7818608E-02  0.1098805E+00
          1   -1    0    0  501    0  0.00000000000E+00  0.00000000000E+00  0.85409146368E+02  0.85409146368E+02  0.00000000000E+00 0.  1.
         -1   -1    0    0    0  501 -0.00000000000E+00 -0.00000000000E+00 -0.22034642229E+03  0.22034642229E+03  0.00000000000E+00 0.  1.
         36    2    1    2    0    0 -0.71054273576E-14  0.35527136788E-14 -0.13493727592E+03  0.30575556866E+03  0.27436909325E+03 0.  0.
         25    2    3    3    0    0 -0.29201666520E+02  0.25111710127E+01 -0.10984103079E+03  0.16989336584E+03  0.12625236791E+03 0.  0.
         25    2    3    3    0    0  0.29201666520E+02 -0.25111710127E+01 -0.25096245127E+02  0.13586220281E+03  0.13026769871E+03 0.  0.
          5    1    4    4  502    0  0.28008733150E+02 -0.41227548485E+02 -0.73926749272E+02  0.89283000312E+02  0.47000000000E+01 0.  1.
         -5    1    4    4    0  502 -0.57210399670E+02  0.43738719498E+02 -0.35914281523E+02  0.80610365531E+02  0.47000000000E+01 0.  1.
          5    1    5    5  503    0 -0.24835341605E+02  0.12523237982E+02 -0.62302234683E+02  0.68390672820E+02  0.47000000000E+01 0. -1.
         -5    1    5    5    0  503  0.54037008126E+02 -0.15034408995E+02  0.37205989556E+02  0.67471529995E+02  0.47000000000E+01 0. -1.
<mgrwt>
<rscale>  0 0.27436909E+03</rscale>
<asrwt>0</asrwt>
<pdfrwt beam="1">  1        1 0.13139869E-01 0.27436909E+03</pdfrwt>
<pdfrwt beam="2">  1       -1 0.33899449E-01 0.27436909E+03</pdfrwt>
<totfact> 0.36558934E+03</totfact>
</mgrwt>
</event>
<event>
 9    1  0.2073852E-002  0.2892683E+03  0.7818608E-02  0.1090732E+00
         -3   -1    0    0    0  501 -0.00000000000E+00  0.00000000000E+00  0.45081250941E+02  0.45081250941E+02  0.00000000000E+00 0. -1.
          3   -1    0    0  501    0  0.00000000000E+00 -0.00000000000E+00 -0.46402954334E+03  0.46402954334E+03  0.00000000000E+00 0. -1.
         36    2    1    2    0    0 -0.71054273576E-14  0.00000000000E+00 -0.41894829240E+03  0.50911079429E+03  0.28926826502E+03 0.  0.
         25    2    3    3    0    0  0.44198990198E+02  0.67378560146E+02 -0.23763942109E+03  0.28073747259E+03  0.12588730262E+03 0.  0.
         25    2    3    3    0    0 -0.44198990198E+02 -0.67378560146E+02 -0.18130887132E+03  0.22837332169E+03  0.11308424356E+03 0.  0.
          5    1    4    4  502    0  0.55066789091E+02  0.10788307981E+02 -0.27266004396E+02  0.62564077917E+02  0.47000000000E+01 0.  1.
         -5    1    4    4    0  502 -0.10867798893E+02  0.56590252165E+02 -0.21037341669E+03  0.21817339467E+03  0.47000000000E+01 0.  1.
          5    1    5    5  503    0 -0.31930968837E+01  0.15426968453E+02  0.75331947084E+01  0.18083867006E+02  0.47000000000E+01 0. -1.
         -5    1    5    5    0  503 -0.41005893314E+02 -0.82805528599E+02 -0.18884206602E+03  0.21028945469E+03  0.47000000000E+01 0. -1.
<mgrwt>
<rscale>  0 0.28926827E+03</rscale>
<asrwt>0</asrwt>
<pdfrwt beam="1">  1        3 0.71389157E-01 0.28926827E+03</pdfrwt>
<pdfrwt beam="2">  1       -3 0.69355774E-02 0.28926827E+03</pdfrwt>
<totfact> 0.65641025E+02</totfact>
</mgrwt>
</event>
<event>
 9    1  0.2073852E-002  0.2723551E+03  0.7818608E-02  0.1099939E+00
          1   -1    0    0  501    0  0.00000000000E+00  0.00000000000E+00  0.11285833629E+04  0.11285833629E+04  0.00000000000E+00 0. -1.
         -1   -1    0    0    0  501 -0.00000000000E+00 -0.00000000000E+00 -0.16431511153E+02  0.16431511153E+02  0.00000000000E+00 0. -1.
         36    2    1    2    0    0  0.35527136788E-14 -0.71054273576E-14  0.11121518518E+04  0.11450148741E+04  0.27235513666E+03 0.  0.
         25    2    3    3    0    0 -0.30517486798E+02 -0.23181318413E+02  0.44710418779E+03  0.46580819701E+03  0.12492570247E+03 0.  0.
         25    2    3    3    0    0  0.30517486798E+02  0.23181318413E+02  0.66504766401E+03  0.67920667710E+03  0.13253159730E+03 0.  0.
          5    1    4    4  502    0 -0.38175270816E+02  0.44307584693E+02  0.26436203176E+03  0.27079491724E+03  0.47000000000E+01 0.  1.
         -5    1    4    4    0  502  0.76577840185E+01 -0.67488903106E+02  0.18274215602E+03  0.19501327977E+03  0.47000000000E+01 0.  1.
          5    1    5    5  503    0  0.38219148235E+02  0.73502850054E+02  0.32955358363E+03  0.33983970742E+03  0.47000000000E+01 0.  1.
         -5    1    5    5    0  503 -0.77016614368E+01 -0.50321531640E+02  0.33549408038E+03  0.33936696968E+03  0.47000000000E+01 0.  1.
<mgrwt>
<rscale>  0 0.27235514E+03</rscale>
<asrwt>0</asrwt>
<pdfrwt beam="1">  1        1 0.17362815E+00 0.27235514E+03</pdfrwt>
<pdfrwt beam="2">  1       -1 0.25279257E-02 0.27235514E+03</pdfrwt>
<totfact> 0.62476139E+03</totfact>
</mgrwt>
</event>
<event>
 9    1  0.2073852E-002  0.2748827E+03  0.7818608E-02  0.1098517E+00
          1   -1    0    0  501    0  0.00000000000E+00  0.00000000000E+00  0.77416114406E+02  0.77416114406E+02  0.00000000000E+00 0.  1.
         -1   -1    0    0    0  501 -0.00000000000E+00 -0.00000000000E+00 -0.24400759424E+03  0.24400759424E+03  0.00000000000E+00 0.  1.
         36    2    1    2    0    0  0.71054273576E-14  0.71054273576E-14 -0.16659147984E+03  0.32142370865E+03  0.27488266466E+03 0.  0.
         25    2    3    3    0    0 -0.35199359840E+02 -0.27533810906E+02 -0.45051183782E+02  0.14058206435E+03  0.12544561364E+03 0.  0.
         25    2    3    3    0    0  0.35199359840E+02  0.27533810906E+02 -0.12154029606E+03  0.18084164430E+03  0.12623213169E+03 0.  0.
          5    1    4    4  502    0 -0.53464464847E+02  0.62548130942E+01  0.25780963589E+02  0.59869188835E+02  0.47000000000E+01 0. -1.
         -5    1    4    4    0  502  0.18265105007E+02 -0.33788624000E+02 -0.70832147371E+02  0.80712875515E+02  0.47000000000E+01 0. -1.
          5    1    5    5  503    0  0.59577521584E+02 -0.19132361836E+02 -0.11014837091E+03  0.12676861584E+03  0.47000000000E+01 0. -1.
         -5    1    5    5    0  503 -0.24378161745E+02  0.46666172742E+02 -0.11391925146E+02  0.54073028461E+02  0.47000000000E+01 0. -1.
<mgrwt>
<rscale>  0 0.27488266E+03</rscale>
<asrwt>0</asrwt>
<pdfrwt beam="1">  1        1 0.11910172E-01 0.27488266E+03</pdfrwt>
<pdfrwt beam="2">  1       -1 0.37539630E-01 0.27488266E+03</pdfrwt>
<totfact> 0.34868621E+03</totfact>
</mgrwt>
</event>
<event>
 9    1  0.2073852E-002  0.2760087E+03  0.7818608E-02  0.1097889E+00
          2   -1    0    0  501    0  0.00000000000E+00  0.00000000000E+00  0.14415375172E+04  0.14415375172E+04  0.00000000000E+00 0.  1.
         -2   -1    0    0    0  501 -0.00000000000E+00 -0.00000000000E+00 -0.13211730983E+02  0.13211730983E+02  0.00000000000E+00 0.  1.
         36    2    1    2    0    0 -0.35527136788E-14  0.35527136788E-14  0.14283257862E+04  0.14547492482E+04  0.27600873811E+03 0.  0.
         25    2    3    3    0    0 -0.20233990888E+02 -0.86399432204E+00  0.10374178300E+04  0.10450891578E+04  0.12476150425E+03 0.  0.
         25    2    3    3    0    0  0.20233990888E+02  0.86399432204E+00  0.39090795622E+03  0.40966009035E+03  0.12083955693E+03 0.  0.
          5    1    4    4  502    0  0.17867221091E+02  0.16727277791E+02  0.42447944051E+02  0.49223544833E+02  0.47000000000E+01 0. -1.
         -5    1    4    4    0  502 -0.38101211979E+02 -0.17591272113E+02  0.99496988593E+03  0.99586561298E+03  0.47000000000E+01 0. -1.
          5    1    5    5  503    0 -0.16499627311E+02 -0.45676676552E+02  0.27591897717E+03  0.28019987232E+03  0.47000000000E+01 0. -1.
         -5    1    5    5    0  503  0.36733618199E+02  0.46540670875E+02  0.11498897904E+03  0.12946021803E+03  0.47000000000E+01 0. -1.
<mgrwt>
<rscale>  0 0.27600874E+03</rscale>
<asrwt>0</asrwt>
<pdfrwt beam="1">  1        2 0.22177488E+00 0.27600874E+03</pdfrwt>
<pdfrwt beam="2">  1       -2 0.20325751E-02 0.27600874E+03</pdfrwt>
<totfact> 0.11074113E+04</totfact>
</mgrwt>
</event>
<event>
 9    1  0.2073852E-002  0.2755182E+03  0.7818608E-02  0.1098162E+00
         -2   -1    0    0    0  501 -0.00000000000E+00  0.00000000000E+00  0.86292505282E+02  0.86292505282E+02  0.00000000000E+00 0. -1.
          2   -1    0    0  501    0  0.00000000000E+00 -0.00000000000E+00 -0.21992140739E+03  0.21992140739E+03  0.00000000000E+00 0. -1.
         36    2    1    2    0    0 -0.35527136788E-14  0.53290705182E-14 -0.13362890211E+03  0.30621391267E+03  0.27551819692E+03 0.  0.
         25    2    3    3    0    0 -0.23816282847E+02  0.13477737753E+02 -0.13183387261E+02  0.13121969525E+03  0.12765555992E+03 0.  0.
         25    2    3    3    0    0  0.23816282847E+02 -0.13477737753E+02 -0.12044551485E+03  0.17499421742E+03  0.12396366137E+03 0.  0.
          5    1    4    4  502    0 -0.27058660930E+02  0.51002049402E+02 -0.51337317909E+02  0.77401488258E+02  0.47000000000E+01 0. -1.
         -5    1    4    4    0  502  0.32423780829E+01 -0.37524311649E+02  0.38153930648E+02  0.53818206996E+02  0.47000000000E+01 0. -1.
          5    1    5    5  503    0  0.34916101186E+02 -0.58216176459E+01  0.15048262990E+02  0.38750039653E+02  0.47000000000E+01 0.  1.
         -5    1    5    5    0  503 -0.11099818340E+02 -0.76561201071E+01 -0.13549377784E+03  0.13624417777E+03  0.47000000000E+01 0.  1.
<mgrwt>
<rscale>  0 0.27551820E+03</rscale>
<asrwt>0</asrwt>
<pdfrwt beam="1">  1        2 0.33834062E-01 0.27551820E+03</pdfrwt>
<pdfrwt beam="2">  1       -2 0.13275770E-01 0.27551820E+03</pdfrwt>
<totfact> 0.63852447E+03</totfact>
</mgrwt>
</event>
<event>
 9    1  0.2073852E-002  0.2754729E+03  0.7818608E-02  0.1098188E+00
          2   -1    0    0  501    0  0.00000000000E+00  0.00000000000E+00  0.37564906050E+03  0.37564906050E+03  0.00000000000E+00 0. -1.
         -2   -1    0    0    0  501 -0.00000000000E+00 -0.00000000000E+00 -0.50502815089E+02  0.50502815089E+02  0.00000000000E+00 0. -1.
         36    2    1    2    0    0  0.17763568394E-14  0.00000000000E+00  0.32514624541E+03  0.42615187559E+03  0.27547293907E+03 0.  0.
         25    2    3    3    0    0  0.96890784094E+01  0.49092801413E+02  0.11298793195E+03  0.17487430997E+03  0.12373669678E+03 0.  0.
         25    2    3    3    0    0 -0.96890784094E+01 -0.49092801413E+02  0.21215831346E+03  0.25127756561E+03  0.12500113448E+03 0.  0.
          5    1    4    4  502    0 -0.10269464607E+02  0.33534094503E+02 -0.19162626251E+02  0.40240447839E+02  0.47000000000E+01 0.  1.
         -5    1    4    4    0  502  0.19958543017E+02  0.15558706910E+02  0.13215055820E+03  0.13463386214E+03  0.47000000000E+01 0.  1.
          5    1    5    5  503    0  0.52280060285E+02 -0.35274623920E+02  0.63787629731E+02  0.89824581840E+02  0.47000000000E+01 0.  1.
         -5    1    5    5    0  503 -0.61969138694E+02 -0.13818177493E+02  0.14837068372E+03  0.16145298377E+03  0.47000000000E+01 0.  1.
<mgrwt>
<rscale>  0 0.27547294E+03</rscale>
<asrwt>0</asrwt>
<pdfrwt beam="1">  1        2 0.57792161E-01 0.27547294E+03</pdfrwt>
<pdfrwt beam="2">  1       -2 0.77696641E-02 0.27547294E+03</pdfrwt>
<totfact> 0.84095267E+03</totfact>
</mgrwt>
</event>
<event>
 9    1  0.2073852E-002  0.2745736E+03  0.7818608E-02  0.1098690E+00
         -1   -1    0    0    0  501 -0.00000000000E+00  0.00000000000E+00  0.32390089954E+02  0.32390089954E+02  0.00000000000E+00 0.  1.
          1   -1    0    0  501    0  0.00000000000E+00 -0.00000000000E+00 -0.58189595980E+03  0.58189595980E+03  0.00000000000E+00 0.  1.
         36    2    1    2    0    0  0.00000000000E+00  0.00000000000E+00 -0.54950586984E+03  0.61428604975E+03  0.27457357835E+03 0.  0.
         25    2    3    3    0    0 -0.17460685092E+02  0.25002973190E+02 -0.15794740851E+03  0.20245697674E+03  0.12292851329E+03 0.  0.
         25    2    3    3    0    0  0.17460685092E+02 -0.25002973190E+02 -0.39155846133E+03  0.41182907301E+03  0.12391582849E+03 0.  0.
          5    1    4    4  502    0 -0.61687828644E+02  0.23073296441E+02 -0.41995339608E+02  0.78252563921E+02  0.47000000000E+01 0.  1.
         -5    1    4    4    0  502  0.44227143552E+02  0.19296767494E+01 -0.11595206891E+03  0.12420441282E+03  0.47000000000E+01 0.  1.
          5    1    5    5  503    0 -0.15865763880E+02 -0.67946593197E+02 -0.26370911543E+03  0.27282420998E+03  0.47000000000E+01 0. -1.
         -5    1    5    5    0  503  0.33326448972E+02  0.42943620007E+02 -0.12784934590E+03  0.13900486304E+03  0.47000000000E+01 0. -1.
<mgrwt>
<rscale>  0 0.27457358E+03</rscale>
<asrwt>0</asrwt>
<pdfrwt beam="1">  1        1 0.89522450E-01 0.27457358E+03</pdfrwt>
<pdfrwt beam="2">  1       -1 0.49830910E-02 0.27457358E+03</pdfrwt>
<totfact> 0.64680398E+03</totfact>
</mgrwt>
</event>
<event>
 9    1  0.2073852E-002  0.2743317E+03  0.7818608E-02  0.1098826E+00
         -1   -1    0    0    0  501 -0.00000000000E+00  0.00000000000E+00  0.55444358453E+02  0.55444358453E+02  0.00000000000E+00 0.  1.
          1   -1    0    0  501    0  0.00000000000E+00 -0.00000000000E+00 -0.33933977579E+03  0.33933977579E+03  0.00000000000E+00 0.  1.
         36    2    1    2    0    0  0.00000000000E+00 -0.71054273576E-14 -0.28389541734E+03  0.39478413424E+03  0.27433174199E+03 0.  0.
         25    2    3    3    0    0  0.11014254517E+02  0.33359230746E+02 -0.20791040459E+03  0.24421601881E+03  0.12320947783E+03 0.  0.
         25    2    3    3    0    0 -0.11014254517E+02 -0.33359230746E+02 -0.75985012749E+02  0.15056811543E+03  0.12515144084E+03 0.  0.
          5    1    4    4  502    0  0.27616906057E+02 -0.34261202340E+02 -0.14004491536E+03  0.14687134439E+03  0.47000000000E+01 0.  1.
         -5    1    4    4    0  502 -0.16602651541E+02  0.67620433085E+02 -0.67865489232E+02  0.97344674418E+02  0.47000000000E+01 0.  1.
          5    1    5    5  503    0  0.16284090806E+02  0.19791579829E+02 -0.85946972513E+02  0.89810079221E+02  0.47000000000E+01 0. -1.
         -5    1    5    5    0  503 -0.27298345323E+02 -0.53150810575E+02  0.99619597636E+01  0.60758036213E+02  0.47000000000E+01 0. -1.
<mgrwt>
<rscale>  0 0.27433174E+03</rscale>
<asrwt>0</asrwt>
<pdfrwt beam="1">  1        1 0.52206120E-01 0.27433174E+03</pdfrwt>
<pdfrwt beam="2">  1       -1 0.85299013E-02 0.27433174E+03</pdfrwt>
<totfact> 0.58026406E+03</totfact>
</mgrwt>
</event>
<event>
 9    1  0.2073852E-002  0.2724043E+03  0.7818608E-02  0.1099911E+00
         -1   -1    0    0    0  501 -0.00000000000E+00  0.00000000000E+00  0.56475621130E+02  0.56475621130E+02  0.00000000000E+00 0.  1.
          1   -1    0    0  501    0  0.00000000000E+00 -0.00000000000E+00 -0.32847848197E+03  0.32847848197E+03  0.00000000000E+00 0.  1.
         36    2    1    2    0    0  0.00000000000E+00  0.14210854715E-13 -0.27200286084E+03  0.38495410310E+03  0.27240430465E+03 0.  0.
         25    2    3    3    0    0  0.24531422584E+02  0.32740387168E+02 -0.16923759507E+03  0.21666540299E+03  0.12895274182E+03 0.  0.
         25    2    3    3    0    0 -0.24531422584E+02 -0.32740387168E+02 -0.10276526577E+03  0.16828870011E+03  0.12683320973E+03 0.  0.
          5    1    4    4  502    0  0.99409427029E+01  0.69953224624E+02 -0.40048816955E+02  0.81352773257E+02  0.47000000000E+01 0.  1.
         -5    1    4    4    0  502  0.14590479881E+02 -0.37212837456E+02 -0.12918877812E+03  0.13531262974E+03  0.47000000000E+01 0.  1.
          5    1    5    5  503    0 -0.39301023350E+02 -0.52659343613E+02 -0.12057612032E+03  0.13739820849E+03  0.47000000000E+01 0. -1.
         -5    1    5    5    0  503  0.14769600766E+02  0.19918956445E+02  0.17810854547E+02  0.30890491617E+02  0.47000000000E+01 0. -1.
<mgrwt>
<rscale>  0 0.27240430E+03</rscale>
<asrwt>0</asrwt>
<pdfrwt beam="1">  1        1 0.50535151E-01 0.27240430E+03</pdfrwt>
<pdfrwt beam="2">  1       -1 0.86885571E-02 0.27240430E+03</pdfrwt>
<totfact> 0.58764340E+03</totfact>
</mgrwt>
</event>
<event>
 9    1  0.2073852E-002  0.2739695E+03  0.7818608E-02  0.1099029E+00
          1   -1    0    0  501    0  0.00000000000E+00  0.00000000000E+00  0.11882762838E+04  0.11882762838E+04  0.00000000000E+00 0. -1.
         -1   -1    0    0    0  501 -0.00000000000E+00 -0.00000000000E+00 -0.15791632975E+02  0.15791632975E+02  0.00000000000E+00 0. -1.
         36    2    1    2    0    0  0.00000000000E+00  0.00000000000E+00  0.11724846509E+04  0.12040679168E+04  0.27396950887E+03 0.  0.
         25    2    3    3    0    0 -0.49562463014E+02 -0.89266140167E+01  0.53159122999E+03  0.54760744104E+03  0.12144361448E+03 0.  0.
         25    2    3    3    0    0  0.49562463014E+02  0.89266140167E+01  0.64089342088E+03  0.65646047578E+03  0.13289039529E+03 0.  0.
          5    1    4    4  502    0  0.55929930497E+01  0.29688393624E+02  0.38514477497E+03  0.38635640279E+03  0.47000000000E+01 0.  1.
         -5    1    4    4    0  502 -0.55155456063E+02 -0.38615007640E+02  0.14644645502E+03  0.16125103825E+03  0.47000000000E+01 0.  1.
          5    1    5    5  503    0  0.56862919897E+02  0.60101722786E+02  0.28508197684E+03  0.29688285949E+03  0.47000000000E+01 0.  1.
         -5    1    5    5    0  503 -0.73004568831E+01 -0.51175108770E+02  0.35581144404E+03  0.35957761629E+03  0.47000000000E+01 0.  1.
<mgrwt>
<rscale>  0 0.27396951E+03</rscale>
<asrwt>0</asrwt>
<pdfrwt beam="1">  1        1 0.18281167E+00 0.27396951E+03</pdfrwt>
<pdfrwt beam="2">  1       -1 0.24294829E-02 0.27396951E+03</pdfrwt>
<totfact> 0.60096282E+03</totfact>
</mgrwt>
</event>
<event>
 9    1  0.2073852E-002  0.2745281E+03  0.7818608E-02  0.1098716E+00
         -2   -1    0    0    0  501 -0.00000000000E+00  0.00000000000E+00  0.63379954098E+02  0.63379954098E+02  0.00000000000E+00 0.  1.
          2   -1    0    0  501    0  0.00000000000E+00 -0.00000000000E+00 -0.29727726148E+03  0.29727726148E+03  0.00000000000E+00 0.  1.
         36    2    1    2    0    0  0.35527136788E-14  0.00000000000E+00 -0.23389730738E+03  0.36065721558E+03  0.27452809828E+03 0.  0.
         25    2    3    3    0    0  0.13192697121E+02 -0.50526112260E+02 -0.13577981079E+03  0.19301665055E+03  0.12685556786E+03 0.  0.
         25    2    3    3    0    0 -0.13192697121E+02  0.50526112260E+02 -0.98117496594E+02  0.16764056502E+03  0.12549653631E+03 0.  0.
          5    1    4    4  502    0  0.25706108543E+02 -0.69165234829E+02 -0.14914785740E+03  0.16646863696E+03  0.47000000000E+01 0. -1.
         -5    1    4    4    0  502 -0.12513411422E+02  0.18639122569E+02  0.13368046610E+02  0.26548013593E+02  0.47000000000E+01 0. -1.
          5    1    5    5  503    0  0.37981247592E+02 -0.14811087261E+02 -0.67618578235E+02  0.79096811547E+02  0.47000000000E+01 0.  1.
         -5    1    5    5    0  503 -0.51173944713E+02  0.65337199521E+02 -0.30498918360E+02  0.88543753477E+02  0.47000000000E+01 0.  1.
<mgrwt>
<rscale>  0 0.27452810E+03</rscale>
<asrwt>0</asrwt>
<pdfrwt beam="1">  1        2 0.45734964E-01 0.27452810E+03</pdfrwt>
<pdfrwt beam="2">  1       -2 0.97507620E-02 0.27452810E+03</pdfrwt>
<totfact> 0.75716923E+03</totfact>
</mgrwt>
</event>
<event>
 9    1  0.2073852E-002  0.2752025E+03  0.7818608E-02  0.1098338E+00
         -2   -1    0    0    0  501 -0.00000000000E+00  0.00000000000E+00  0.11140146567E+04  0.11140146567E+04  0.00000000000E+00 0. -1.
          2   -1    0    0  501    0  0.00000000000E+00 -0.00000000000E+00 -0.16996276995E+02  0.16996276995E+02  0.00000000000E+00 0. -1.
         36    2    1    2    0    0 -0.71054273576E-14  0.00000000000E+00  0.10970183797E+04  0.11310109337E+04  0.27520248315E+03 0.  0.
         25    2    3    3    0    0 -0.13905171703E+02  0.48015208837E+02  0.53064172964E+03  0.54772989381E+03  0.12620846747E+03 0.  0.
         25    2    3    3    0    0  0.13905171703E+02 -0.48015208837E+02  0.56637665010E+03  0.58328103992E+03  0.13013626577E+03 0.  0.
          5    1    4    4  502    0  0.36274981142E+02 -0.24943877590E+02  0.12804165227E+03  0.13547998377E+03  0.47000000000E+01 0. -1.
         -5    1    4    4    0  502 -0.50180152846E+02  0.72959086428E+02  0.40260007737E+03  0.41224991005E+03  0.47000000000E+01 0. -1.
          5    1    5    5  503    0  0.64287032020E+02 -0.58820380774E+02  0.37656151095E+03  0.38654019353E+03  0.47000000000E+01 0.  1.
         -5    1    5    5    0  503 -0.50381860317E+02  0.10805171937E+02  0.18981513915E+03  0.19674084640E+03  0.47000000000E+01 0.  1.
<mgrwt>
<rscale>  0 0.27520248E+03</rscale>
<asrwt>0</asrwt>
<pdfrwt beam="1">  1        2 0.26148127E-02 0.27520248E+03</pdfrwt>
<pdfrwt beam="2">  1       -2 0.17138681E+00 0.27520248E+03</pdfrwt>
<totfact> 0.84237424E+02</totfact>
</mgrwt>
</event>
<event>
 9    1  0.2073852E-002  0.2753849E+03  0.7818608E-02  0.1098237E+00
          3   -1    0    0  501    0  0.00000000000E+00  0.00000000000E+00  0.28746922862E+03  0.28746922862E+03  0.00000000000E+00 0.  1.
         -3   -1    0    0    0  501 -0.00000000000E+00 -0.00000000000E+00 -0.65952139659E+02  0.65952139659E+02  0.00000000000E+00 0.  1.
         36    2    1    2    0    0  0.14210854715E-13  0.00000000000E+00  0.22151708896E+03  0.35342136828E+03  0.27538489947E+03 0.  0.
         25    2    3    3    0    0  0.59265211865E+02  0.36646144280E+02  0.10437592798E+03  0.17484554223E+03  0.12174286044E+03 0.  0.
         25    2    3    3    0    0 -0.59265211865E+02 -0.36646144280E+02  0.11714116098E+03  0.17857582605E+03  0.11537750572E+03 0.  0.
          5    1    4    4  502    0 -0.10296367200E+02 -0.33095667652E+02  0.53397976441E+02  0.63833943031E+02  0.47000000000E+01 0.  1.
         -5    1    4    4    0  502  0.69561579065E+02  0.69741811932E+02  0.50977951538E+02  0.11101159920E+03  0.47000000000E+01 0.  1.
          5    1    5    5  503    0 -0.91970853772E+02 -0.41234295954E+02  0.94628694580E+02  0.13833143151E+03  0.47000000000E+01 0. -1.
         -5    1    5    5    0  503  0.32705641907E+02  0.45881516738E+01  0.22512466404E+02  0.40244394540E+02  0.47000000000E+01 0. -1.
<mgrwt>
<rscale>  0 0.27538490E+03</rscale>
<asrwt>0</asrwt>
<pdfrwt beam="1">  1        3 0.44226035E-01 0.27538490E+03</pdfrwt>
<pdfrwt beam="2">  1       -3 0.10146483E-01 0.27538490E+03</pdfrwt>
<totfact> 0.93458255E+02</totfact>
</mgrwt>
</event>
<event>
 9    1  0.2073852E-002  0.2750167E+03  0.7818608E-02  0.1098442E+00
         -1   -1    0    0    0  501 -0.00000000000E+00  0.00000000000E+00  0.37630654230E+03  0.37630654230E+03  0.00000000000E+00 0. -1.
          1   -1    0    0  501    0  0.00000000000E+00 -0.00000000000E+00 -0.50247711443E+02  0.50247711443E+02  0.00000000000E+00 0. -1.
         36    2    1    2    0    0  0.00000000000E+00  0.71054273576E-14  0.32605883086E+03  0.42655425374E+03  0.27501667260E+03 0.  0.
         25    2    3    3    0    0  0.11200245830E+02  0.45047331914E+02  0.19588825438E+03  0.23707364801E+03  0.12520782227E+03 0.  0.
         25    2    3    3    0    0 -0.11200245830E+02 -0.45047331914E+02  0.13017057647E+03  0.18948060573E+03  0.12962952345E+03 0.  0.
          5    1    4    4  502    0  0.14706018675E+02  0.60069675111E+01  0.19688706657E+03  0.19758278677E+03  0.47000000000E+01 0.  1.
         -5    1    4    4    0  502 -0.35057728455E+01  0.39040364403E+02 -0.99881218788E+00  0.39490861243E+02  0.47000000000E+01 0.  1.
          5    1    5    5  503    0  0.28949371473E+02  0.95530476371E+01 -0.11053530738E+02  0.32765795727E+02  0.47000000000E+01 0.  1.
         -5    1    5    5    0  503 -0.40149617303E+02 -0.54600379551E+02  0.14122410721E+03  0.15671481000E+03  0.47000000000E+01 0.  1.
<mgrwt>
<rscale>  0 0.27501667E+03</rscale>
<asrwt>0</asrwt>
<pdfrwt beam="1">  1        1 0.77304174E-02 0.27501667E+03</pdfrwt>
<pdfrwt beam="2">  1       -1 0.57893312E-01 0.27501667E+03</pdfrwt>
<totfact> 0.28286042E+03</totfact>
</mgrwt>
</event>
<event>
 9    1  0.2073852E-002  0.2768137E+03  0.7818608E-02  0.1097442E+00
          1   -1    0    0  501    0  0.00000000000E+00  0.00000000000E+00  0.24617950133E+04  0.24617950133E+04  0.00000000000E+00 0. -1.
         -1   -1    0    0    0  501 -0.00000000000E+00 -0.00000000000E+00 -0.77815009253E+01  0.77815009253E+01  0.00000000000E+00 0. -1.
         36    2    1    2    0    0  0.35527136788E-14  0.00000000000E+00  0.24540135124E+04  0.24695765142E+04  0.27681372924E+03 0.  0.
         25    2    3    3    0    0  0.30488438968E+02 -0.16394711953E+01  0.81656976263E+03  0.82646609220E+03  0.12380545848E+03 0.  0.
         25    2    3    3    0    0 -0.30488438968E+02  0.16394711953E+01  0.16374437498E+04  0.16431104220E+04  0.13288187458E+03 0.  0.
          5    1    4    4  502    0  0.65384595826E+02 -0.14424614771E+02  0.71611731987E+03  0.71925608840E+03  0.47000000000E+01 0.  1.
         -5    1    4    4    0  502 -0.34896156858E+02  0.12785143575E+02  0.10045244276E+03  0.10721000381E+03  0.47000000000E+01 0.  1.
          5    1    5    5  503    0  0.24795905638E+02 -0.47827925368E+02  0.97725032631E+03  0.97874544068E+03  0.47000000000E+01 0.  1.
         -5    1    5    5    0  503 -0.55284344606E+02  0.49467396563E+02  0.66019342344E+03  0.66436498135E+03  0.47000000000E+01 0.  1.
<mgrwt>
<rscale>  0 0.27681373E+03</rscale>
<asrwt>0</asrwt>
<pdfrwt beam="1">  1        1 0.37873707E+00 0.27681373E+03</pdfrwt>
<pdfrwt beam="2">  1       -1 0.11971560E-02 0.27681373E+03</pdfrwt>
<totfact> 0.24357549E+03</totfact>
</mgrwt>
</event>
<event>
 9    1  0.2073852E-002  0.2751829E+03  0.7818608E-02  0.1098349E+00
         -2   -1    0    0    0  501 -0.00000000000E+00  0.00000000000E+00  0.59929786705E+02  0.59929786705E+02  0.00000000000E+00 0.  1.
          2   -1    0    0  501    0  0.00000000000E+00 -0.00000000000E+00 -0.31589303436E+03  0.31589303436E+03  0.00000000000E+00 0.  1.
         36    2    1    2    0    0  0.00000000000E+00  0.00000000000E+00 -0.25596324765E+03  0.37582282106E+03  0.27518286408E+03 0.  0.
         25    2    3    3    0    0  0.16517300193E+02 -0.48897748905E+02 -0.16798342594E+03  0.21495021653E+03  0.12377945363E+03 0.  0.
         25    2    3    3    0    0 -0.16517300193E+02  0.48897748905E+02 -0.87979821708E+02  0.16087260453E+03  0.12440150645E+03 0.  0.
          5    1    4    4  502    0  0.58024052373E+02 -0.26499127310E+02 -0.15203354819E+03  0.16494024426E+03  0.47000000000E+01 0. -1.
         -5    1    4    4    0  502 -0.41506752180E+02 -0.22398621595E+02 -0.15949877753E+02  0.50009972268E+02  0.47000000000E+01 0. -1.
          5    1    5    5  503    0 -0.52618316250E+01  0.35884549743E+02  0.26403665722E+02  0.45106888009E+02  0.47000000000E+01 0. -1.
         -5    1    5    5    0  503 -0.11255468568E+02  0.13013199161E+02 -0.11438348743E+03  0.11576571652E+03  0.47000000000E+01 0. -1.
<mgrwt>
<rscale>  0 0.27518286E+03</rscale>
<asrwt>0</asrwt>
<pdfrwt beam="1">  1        2 0.48598928E-01 0.27518286E+03</pdfrwt>
<pdfrwt beam="2">  1       -2 0.92199673E-02 0.27518286E+03</pdfrwt>
<totfact> 0.77505754E+03</totfact>
</mgrwt>
</event>
<event>
 9    1  0.2073852E-002  0.2763990E+03  0.7818608E-02  0.1097672E+00
         -1   -1    0    0    0  501 -0.00000000000E+00  0.00000000000E+00  0.63518361217E+02  0.63518361217E+02  0.00000000000E+00 0. -1.
          1   -1    0    0  501    0  0.00000000000E+00 -0.00000000000E+00 -0.30068640521E+03  0.30068640521E+03  0.00000000000E+00 0. -1.
         36    2    1    2    0    0 -0.71054273576E-14  0.71054273576E-14 -0.23716804399E+03  0.36420476643E+03  0.27639904268E+03 0.  0.
         25    2    3    3    0    0  0.63259403760E+02 -0.40089011367E+02 -0.12969436260E+03  0.19600267722E+03  0.12644184748E+03 0.  0.
         25    2    3    3    0    0 -0.63259403760E+02  0.40089011367E+02 -0.10747368140E+03  0.16820208921E+03  0.10551051902E+03 0.  0.
          5    1    4    4  502    0  0.12719625418E+02 -0.73092732192E+02 -0.31706232953E+02  0.80819005055E+02  0.47000000000E+01 0.  1.
         -5    1    4    4    0  502  0.50539778342E+02  0.33003720825E+02 -0.97988129643E+02  0.11518367217E+03  0.47000000000E+01 0.  1.
          5    1    5    5  503    0 -0.53218558428E+02  0.72468928651E+02 -0.54843523206E+02  0.10542230608E+03  0.47000000000E+01 0.  1.
         -5    1    5    5    0  503 -0.10040845332E+02 -0.32379917284E+02 -0.52630158192E+02  0.62779783128E+02  0.47000000000E+01 0.  1.
<mgrwt>
<rscale>  0 0.27639904E+03</rscale>
<asrwt>0</asrwt>
<pdfrwt beam="1">  1        1 0.46259448E-01 0.27639904E+03</pdfrwt>
<pdfrwt beam="2">  1       -1 0.97720554E-02 0.27639904E+03</pdfrwt>
<totfact> 0.54849873E+03</totfact>
</mgrwt>
</event>
<event>
 9    1  0.2073852E-002  0.2756320E+03  0.7818608E-02  0.1098099E+00
         -1   -1    0    0    0  501 -0.00000000000E+00  0.00000000000E+00  0.60611644690E+02  0.60611644690E+02  0.00000000000E+00 0. -1.
          1   -1    0    0  501    0  0.00000000000E+00 -0.00000000000E+00 -0.31335969189E+03  0.31335969189E+03  0.00000000000E+00 0. -1.
         36    2    1    2    0    0  0.00000000000E+00  0.00000000000E+00 -0.25274804720E+03  0.37397133658E+03  0.27563197423E+03 0.  0.
         25    2    3    3    0    0 -0.43587936504E+02 -0.41206595408E+01 -0.70247169026E+02  0.14772951553E+03  0.12236199148E+03 0.  0.
         25    2    3    3    0    0  0.43587936504E+02  0.41206595408E+01 -0.18250087817E+03  0.22624182105E+03  0.12634042510E+03 0.  0.
          5    1    4    4  502    0 -0.68663636550E+02  0.33156777045E+02 -0.17668366434E+02  0.78411274832E+02  0.47000000000E+01 0. -1.
         -5    1    4    4    0  502  0.25075700046E+02 -0.37277436585E+02 -0.52578802592E+02  0.69318240696E+02  0.47000000000E+01 0. -1.
          5    1    5    5  503    0 -0.11619984308E+02 -0.12983867248E+02 -0.16455364407E+03  0.16554031721E+03  0.47000000000E+01 0.  1.
         -5    1    5    5    0  503  0.55207920813E+02  0.17104526789E+02 -0.17947234104E+02  0.60701503846E+02  0.47000000000E+01 0.  1.
<mgrwt>
<rscale>  0 0.27563197E+03</rscale>
<asrwt>0</asrwt>
<pdfrwt beam="1">  1        1 0.48209183E-01 0.27563197E+03</pdfrwt>
<pdfrwt beam="2">  1       -1 0.93248685E-02 0.27563197E+03</pdfrwt>
<totfact> 0.55966402E+03</totfact>
</mgrwt>
</event>
<event>
 9    1  0.2073852E-002  0.2754307E+03  0.7818608E-02  0.1098211E+00
         -1   -1    0    0    0  501 -0.00000000000E+00  0.00000000000E+00  0.83357976262E+02  0.83357976262E+02  0.00000000000E+00 0. -1.
          1   -1    0    0  501    0  0.00000000000E+00 -0.00000000000E+00 -0.22751892848E+03  0.22751892848E+03  0.00000000000E+00 0. -1.
         36    2    1    2    0    0  0.71054273576E-14  0.00000000000E+00 -0.14416095222E+03  0.31087690474E+03  0.27543069865E+03 0.  0.
         25    2    3    3    0    0 -0.37474894631E+02 -0.77135525432E+01 -0.12135189653E+03  0.17848951517E+03  0.12517331031E+03 0.  0.
         25    2    3    3    0    0  0.37474894631E+02  0.77135525432E+01 -0.22809055690E+02  0.13238738957E+03  0.12466876624E+03 0.  0.
          5    1    4    4  502    0 -0.55817253564E+02 -0.55765477673E+02 -0.68516491620E+02  0.10460379496E+03  0.47000000000E+01 0.  1.
         -5    1    4    4    0  502  0.18342358933E+02  0.48051925130E+02 -0.52835404909E+02  0.73885720216E+02  0.47000000000E+01 0.  1.
          5    1    5    5  503    0  0.52630232889E+02  0.45599483715E+02  0.20455223177E+02  0.72730739611E+02  0.47000000000E+01 0. -1.
         -5    1    5    5    0  503 -0.15155338258E+02 -0.37885931172E+02 -0.43264278868E+02  0.59656649960E+02  0.47000000000E+01 0. -1.
<mgrwt>
<rscale>  0 0.27543070E+03</rscale>
<asrwt>0</asrwt>
<pdfrwt beam="1">  1        1 0.35002912E-01 0.27543070E+03</pdfrwt>
<pdfrwt beam="2">  1       -1 0.12824304E-01 0.27543070E+03</pdfrwt>
<totfact> 0.50995023E+03</totfact>
</mgrwt>
</event>
<event>
 9    1  0.2073852E-002  0.2763889E+03  0.7818608E-02  0.1097678E+00
         -2   -1    0    0    0  501 -0.00000000000E+00  0.00000000000E+00  0.28731010454E+02  0.28731010454E+02  0.00000000000E+00 0.  1.
          2   -1    0    0  501    0  0.00000000000E+00 -0.00000000000E+00 -0.66470719175E+03  0.66470719175E+03  0.00000000000E+00 0.  1.
         36    2    1    2    0    0  0.00000000000E+00  0.00000000000E+00 -0.63597618129E+03  0.69343820220E+03  0.27638892362E+03 0.  0.
         25    2    3    3    0    0 -0.45026465916E+02  0.20492359731E+01 -0.41223032276E+03  0.43328643342E+03  0.12558547838E+03 0.  0.
         25    2    3    3    0    0  0.45026465916E+02 -0.20492359731E+01 -0.22374585853E+03  0.26015176878E+03  0.12484050460E+03 0.  0.
          5    1    4    4  502    0 -0.20081872346E+01 -0.56336469503E+02 -0.23546655622E+03  0.24216609943E+03  0.47000000000E+01 0. -1.
         -5    1    4    4    0  502 -0.43018278682E+02  0.58385705476E+02 -0.17676376654E+03  0.19112033399E+03  0.47000000000E+01 0. -1.
          5    1    5    5  503    0  0.62209393159E+02 -0.35228758305E+02 -0.20679275348E+03  0.21885247748E+03  0.47000000000E+01 0. -1.
         -5    1    5    5    0  503 -0.17182927243E+02  0.33179522332E+02 -0.16953105052E+02  0.41299291298E+02  0.47000000000E+01 0. -1.
<mgrwt>
<rscale>  0 0.27638892E+03</rscale>
<asrwt>0</asrwt>
<pdfrwt beam="1">  1        2 0.10226265E+00 0.27638892E+03</pdfrwt>
<pdfrwt beam="2">  1       -2 0.44201553E-02 0.27638892E+03</pdfrwt>
<totfact> 0.10509765E+04</totfact>
</mgrwt>
</event>
<event>
 9    1  0.2073852E-002  0.2744606E+03  0.7818608E-02  0.1098753E+00
         -2   -1    0    0    0  501 -0.00000000000E+00  0.00000000000E+00  0.44287748145E+02  0.44287748145E+02  0.00000000000E+00 0.  1.
          2   -1    0    0  501    0  0.00000000000E+00 -0.00000000000E+00 -0.42522281246E+03  0.42522281246E+03  0.00000000000E+00 0.  1.
         36    2    1    2    0    0  0.00000000000E+00  0.00000000000E+00 -0.38093506432E+03  0.46951056061E+03  0.27446064070E+03 0.  0.
         25    2    3    3    0    0 -0.27080251585E+02  0.40773819221E+01 -0.11262114792E+03  0.17151811810E+03  0.12643170808E+03 0.  0.
         25    2    3    3    0    0  0.27080251585E+02 -0.40773819221E+01 -0.26831391640E+03  0.29799244251E+03  0.12671690098E+03 0.  0.
          5    1    4    4  502    0 -0.29219197433E+02 -0.56145062084E+02 -0.32942178471E+02  0.71507388552E+02  0.47000000000E+01 0. -1.
         -5    1    4    4    0  502  0.21389458488E+01  0.60222444006E+02 -0.79678969452E+02  0.10001072955E+03  0.47000000000E+01 0. -1.
          5    1    5    5  503    0  0.35967442515E+01 -0.26986281754E+02 -0.26297624219E+03  0.26442350487E+03  0.47000000000E+01 0.  1.
         -5    1    5    5    0  503  0.23483507333E+02  0.22908899832E+02 -0.53376742036E+01  0.33568937637E+02  0.47000000000E+01 0.  1.
<mgrwt>
<rscale>  0 0.27446064E+03</rscale>
<asrwt>0</asrwt>
<pdfrwt beam="1">  1        2 0.65418895E-01 0.27446064E+03</pdfrwt>
<pdfrwt beam="2">  1       -2 0.68134996E-02 0.27446064E+03</pdfrwt>
<totfact> 0.90099662E+03</totfact>
</mgrwt>
</event>
<event>
 9    1  0.2073852E-002  0.2749300E+03  0.7818608E-02  0.1098491E+00
          1   -1    0    0  501    0  0.00000000000E+00  0.00000000000E+00  0.10581746230E+03  0.10581746230E+03  0.00000000000E+00 0. -1.
         -1   -1    0    0    0  501 -0.00000000000E+00 -0.00000000000E+00 -0.17857755784E+03  0.17857755784E+03  0.00000000000E+00 0. -1.
         36    2    1    2    0    0 -0.71054273576E-14  0.71054273576E-14 -0.72760095539E+02  0.28439502013E+03  0.27492998377E+03 0.  0.
         25    2    3    3    0    0  0.20621652984E+02  0.47337947655E+02 -0.46415410718E+02  0.14621720244E+03  0.12868156853E+03 0.  0.
         25    2    3    3    0    0 -0.20621652984E+02 -0.47337947655E+02 -0.26344684822E+02  0.13817781769E+03  0.12543098909E+03 0.  0.
          5    1    4    4  502    0 -0.32262900575E+02 -0.30168263298E+02 -0.10538971323E+02  0.45652806929E+02  0.47000000000E+01 0.  1.
         -5    1    4    4    0  502  0.52884553560E+02  0.77506210953E+02 -0.35876439395E+02  0.10056439551E+03  0.47000000000E+01 0.  1.
          5    1    5    5  503    0  0.35503511220E+02 -0.33118661058E+02 -0.54908165862E+02  0.73446182321E+02  0.47000000000E+01 0.  1.
         -5    1    5    5    0  503 -0.56125164204E+02 -0.14219286597E+02  0.28563481041E+02  0.64731635368E+02  0.47000000000E+01 0.  1.
<mgrwt>
<rscale>  0 0.27492998E+03</rscale>
<asrwt>0</asrwt>
<pdfrwt beam="1">  1        1 0.16279610E-01 0.27492998E+03</pdfrwt>
<pdfrwt beam="2">  1       -1 0.27473470E-01 0.27492998E+03</pdfrwt>
<totfact> 0.39481552E+03</totfact>
</mgrwt>
</event>
<event>
 9    1  0.2073852E-002  0.2759415E+03  0.7818608E-02  0.1097926E+00
          1   -1    0    0  501    0  0.00000000000E+00  0.00000000000E+00  0.14564294095E+04  0.14564294095E+04  0.00000000000E+00 0.  1.
         -1   -1    0    0    0  501 -0.00000000000E+00 -0.00000000000E+00 -0.13070271334E+02  0.13070271334E+02  0.00000000000E+00 0.  1.
         36    2    1    2    0    0  0.00000000000E+00 -0.14210854715E-13  0.14433591382E+04  0.14694996809E+04  0.27594149787E+03 0.  0.
         25    2    3    3    0    0 -0.42119887288E+02 -0.36411896908E+02  0.64883138460E+03  0.66286687514E+03  0.12373527134E+03 0.  0.
         25    2    3    3    0    0  0.42119887288E+02  0.36411896908E+02  0.79452775361E+03  0.80663280574E+03  0.12760180600E+03 0.  0.
          5    1    4    4  502    0  0.24334613433E+02 -0.15542983544E+02  0.37496744471E+02  0.47558948625E+02  0.47000000000E+01 0. -1.
         -5    1    4    4    0  502 -0.66454500721E+02 -0.20868913364E+02  0.61133464013E+03  0.61530792651E+03  0.47000000000E+01 0. -1.
          5    1    5    5  503    0 -0.94443090689E+01  0.77193656336E+01  0.36900838867E+01  0.13582720591E+02  0.47000000000E+01 0. -1.
         -5    1    5    5    0  503  0.51564196357E+02  0.28692531275E+02  0.79083766973E+03  0.79305008515E+03  0.47000000000E+01 0. -1.
<mgrwt>
<rscale>  0 0.27594150E+03</rscale>
<asrwt>0</asrwt>
<pdfrwt beam="1">  1        1 0.22406594E+00 0.27594150E+03</pdfrwt>
<pdfrwt beam="2">  1       -1 0.20108121E-02 0.27594150E+03</pdfrwt>
<totfact> 0.52047852E+03</totfact>
</mgrwt>
</event>
<event>
 9    1  0.2073852E-002  0.2752963E+03  0.7818608E-02  0.1098286E+00
         -2   -1    0    0    0  501 -0.00000000000E+00  0.00000000000E+00  0.60991013226E+02  0.60991013226E+02  0.00000000000E+00 0. -1.
          2   -1    0    0  501    0  0.00000000000E+00 -0.00000000000E+00 -0.31065259329E+03  0.31065259329E+03  0.00000000000E+00 0. -1.
         36    2    1    2    0    0  0.00000000000E+00 -0.35527136788E-14 -0.24966158006E+03  0.37164360651E+03  0.27529632345E+03 0.  0.
         25    2    3    3    0    0 -0.48346815523E+02 -0.32241321328E-01 -0.86169154825E+02  0.16011946064E+03  0.12599882071E+03 0.  0.
         25    2    3    3    0    0  0.48346815523E+02  0.32241321328E-01 -0.16349242524E+03  0.21152414588E+03  0.12520094077E+03 0.  0.
          5    1    4    4  502    0 -0.12559883977E+02  0.59601944131E+02 -0.20741161944E+02  0.64516883282E+02  0.47000000000E+01 0. -1.
         -5    1    4    4    0  502 -0.35786931546E+02 -0.59634185452E+02 -0.65427992881E+02  0.95602577353E+02  0.47000000000E+01 0. -1.
          5    1    5    5  503    0  0.17257334605E+02 -0.24683069466E+02 -0.16848489189E+03  0.17122008735E+03  0.47000000000E+01 0.  1.
         -5    1    5    5    0  503  0.31089480918E+02  0.24715310787E+02  0.49924666498E+01  0.40304058534E+02  0.47000000000E+01 0.  1.
<mgrwt>
<rscale>  0 0.27529632E+03</rscale>
<asrwt>0</asrwt>
<pdfrwt beam="1">  1        2 0.47792707E-01 0.27529632E+03</pdfrwt>
<pdfrwt beam="2">  1       -2 0.93832328E-02 0.27529632E+03</pdfrwt>
<totfact> 0.76755620E+03</totfact>
</mgrwt>
</event>
<event>
 9    1  0.2073852E-002  0.2797642E+03  0.7818608E-02  0.1095818E+00
          2   -1    0    0  501    0  0.00000000000E+00  0.00000000000E+00  0.82206034517E+03  0.82206034517E+03  0.00000000000E+00 0.  1.
         -2   -1    0    0    0  501 -0.00000000000E+00 -0.00000000000E+00 -0.23802396241E+02  0.23802396241E+02  0.00000000000E+00 0.  1.
         36    2    1    2    0    0  0.00000000000E+00  0.00000000000E+00  0.79825794893E+03  0.84586274141E+03  0.27976422980E+03 0.  0.
         25    2    3    3    0    0 -0.17406577604E+02 -0.18825139344E+02  0.22374584507E+03  0.25611704385E+03  0.12196869332E+03 0.  0.
         25    2    3    3    0    0  0.17406577604E+02  0.18825139344E+02  0.57451210386E+03  0.58974569756E+03  0.13068456486E+03 0.  0.
          5    1    4    4  502    0 -0.15042446650E+02  0.27819547790E+02  0.49641518022E+01  0.32356378716E+02  0.47000000000E+01 0.  1.
         -5    1    4    4    0  502 -0.23641309538E+01 -0.46644687135E+02  0.21878169327E+03  0.22376066514E+03  0.47000000000E+01 0.  1.
          5    1    5    5  503    0  0.29647330182E+02  0.62528372293E+02  0.47782816179E+03  0.48283600086E+03  0.47000000000E+01 0.  1.
         -5    1    5    5    0  503 -0.12240752579E+02 -0.43703232949E+02  0.96683942071E+02  0.10690969670E+03  0.47000000000E+01 0.  1.
<mgrwt>
<rscale>  0 0.27976423E+03</rscale>
<asrwt>0</asrwt>
<pdfrwt beam="1">  1        2 0.12647080E+00 0.27976423E+03</pdfrwt>
<pdfrwt beam="2">  1       -2 0.36619077E-02 0.27976423E+03</pdfrwt>
<totfact> 0.10728833E+04</totfact>
</mgrwt>
</event>
<event>
 9    1  0.2073852E-002  0.2790425E+03  0.7818608E-02  0.1096213E+00
          1   -1    0    0  501    0  0.00000000000E+00  0.00000000000E+00  0.10594234476E+04  0.10594234476E+04  0.00000000000E+00 0. -1.
         -1   -1    0    0    0  501 -0.00000000000E+00 -0.00000000000E+00 -0.18374309868E+02  0.18374309868E+02  0.00000000000E+00 0. -1.
         36    2    1    2    0    0  0.00000000000E+00 -0.71054273576E-14  0.10410491377E+04  0.10777977574E+04  0.27904246778E+03 0.  0.
         25    2    3    3    0    0  0.43087976456E+02 -0.39976895282E+02  0.49735487172E+03  0.51622610634E+03  0.12519104829E+03 0.  0.
         25    2    3    3    0    0 -0.43087976456E+02  0.39976895282E+02  0.54369426597E+03  0.56157165108E+03  0.12768922657E+03 0.  0.
          5    1    4    4  502    0 -0.30225364603E+02  0.16809989145E+02  0.62663472058E+02  0.71728300767E+02  0.47000000000E+01 0. -1.
         -5    1    4    4    0  502  0.73313341059E+02 -0.56786884427E+02  0.43469139966E+03  0.44449780557E+03  0.47000000000E+01 0. -1.
          5    1    5    5  503    0 -0.66084974261E+02 -0.14315897442E+02  0.16650195759E+03  0.17976974335E+03  0.47000000000E+01 0. -1.
         -5    1    5    5    0  503  0.22996997804E+02  0.54292792724E+02  0.37719230838E+03  0.38180190774E+03  0.47000000000E+01 0. -1.
<mgrwt>
<rscale>  0 0.27904247E+03</rscale>
<asrwt>0</asrwt>
<pdfrwt beam="1">  1        1 0.16298817E+00 0.27904247E+03</pdfrwt>
<pdfrwt beam="2">  1       -1 0.28268177E-02 0.27904247E+03</pdfrwt>
<totfact> 0.59492382E+03</totfact>
</mgrwt>
</event>
<event>
 9    1  0.2073852E-002  0.2744801E+03  0.7818608E-02  0.1098743E+00
          2   -1    0    0  501    0  0.00000000000E+00  0.00000000000E+00  0.19879397841E+04  0.19879397841E+04  0.00000000000E+00 0.  1.
         -2   -1    0    0    0  501 -0.00000000000E+00 -0.00000000000E+00 -0.94745490982E+01  0.94745490982E+01  0.00000000000E+00 0.  1.
         36    2    1    2    0    0  0.00000000000E+00  0.00000000000E+00  0.19784652350E+04  0.19974143332E+04  0.27448011286E+03 0.  0.
         25    2    3    3    0    0  0.22308719803E+01  0.76573283810E+02  0.12267747286E+04  0.12356841887E+04  0.12677040164E+03 0.  0.
         25    2    3    3    0    0 -0.22308719803E+01 -0.76573283810E+02  0.75169050636E+03  0.76173014452E+03  0.96569928735E+02 0.  0.
          5    1    4    4  502    0 -0.59686311395E+02  0.50200736985E+02  0.54356340743E+03  0.54915010485E+03  0.47000000000E+01 0.  1.
         -5    1    4    4    0  502  0.61917183375E+02  0.26372546825E+02  0.68321132121E+03  0.68653408383E+03  0.47000000000E+01 0.  1.
          5    1    5    5  503    0 -0.25588487354E+02 -0.51456934426E+02  0.18037896094E+03  0.18937065859E+03  0.47000000000E+01 0. -1.
         -5    1    5    5    0  503  0.23357615374E+02 -0.25116349384E+02  0.57131154542E+03  0.57235948593E+03  0.47000000000E+01 0. -1.
<mgrwt>
<rscale>  0 0.27448011E+03</rscale>
<asrwt>0</asrwt>
<pdfrwt beam="1">  1        2 0.30583656E+00 0.27448011E+03</pdfrwt>
<pdfrwt beam="2">  1       -2 0.14576245E-02 0.27448011E+03</pdfrwt>
<totfact> 0.92752170E+03</totfact>
</mgrwt>
</event>
<event>
 9    1  0.2073852E-002  0.2748335E+03  0.7818608E-02  0.1098545E+00
          2   -1    0    0  501    0  0.00000000000E+00  0.00000000000E+00  0.12093521902E+04  0.12093521902E+04  0.00000000000E+00 0.  1.
         -2   -1    0    0    0  501 -0.00000000000E+00 -0.00000000000E+00 -0.15614443253E+02  0.15614443253E+02  0.00000000000E+00 0.  1.
         36    2    1    2    0    0 -0.17763568394E-14 -0.14210854715E-13  0.11937377470E+04  0.12249666335E+04  0.27483348521E+03 0.  0.
         25    2    3    3    0    0 -0.67500405135E+01 -0.30597837141E+02  0.38291899275E+03  0.40402428185E+03  0.12500749828E+03 0.  0.
         25    2    3    3    0    0  0.67500405135E+01  0.30597837141E+02  0.81081875422E+03  0.82094235164E+03  0.12464951595E+03 0.  0.
          5    1    4    4  502    0 -0.23825642643E+02 -0.68405333436E+02  0.14161023025E+03  0.15913044398E+03  0.47000000000E+01 0. -1.
         -5    1    4    4    0  502  0.17075602129E+02  0.37807496295E+02  0.24130876250E+03  0.24489383786E+03  0.47000000000E+01 0. -1.
          5    1    5    5  503    0 -0.70312159081E+01  0.53976672638E+02  0.15153280068E+03  0.16108134240E+03  0.47000000000E+01 0. -1.
         -5    1    5    5    0  503  0.13781256422E+02 -0.23378835496E+02  0.65928595354E+03  0.65986100924E+03  0.47000000000E+01 0. -1.
<mgrwt>
<rscale>  0 0.27483349E+03</rscale>
<asrwt>0</asrwt>
<pdfrwt beam="1">  1        2 0.18605411E+00 0.27483349E+03</pdfrwt>
<pdfrwt beam="2">  1       -2 0.24022230E-02 0.27483349E+03</pdfrwt>
<totfact> 0.11622218E+04</totfact>
</mgrwt>
</event>
<event>
 9    1  0.2073852E-002  0.2748013E+03  0.7818608E-02  0.1098563E+00
         -2   -1    0    0    0  501 -0.00000000000E+00  0.00000000000E+00  0.39799757123E+03  0.39799757123E+03  0.00000000000E+00 0. -1.
          2   -1    0    0  501    0  0.00000000000E+00 -0.00000000000E+00 -0.47434807115E+02  0.47434807115E+02  0.00000000000E+00 0. -1.
         36    2    1    2    0    0 -0.35527136788E-14  0.00000000000E+00  0.35056276411E+03  0.44543237834E+03  0.27480129565E+03 0.  0.
         25    2    3    3    0    0  0.63012949330E+01 -0.31895217548E+02  0.13397392313E+03  0.19044574139E+03  0.13139085628E+03 0.  0.
         25    2    3    3    0    0 -0.63012949330E+01  0.31895217548E+02  0.21658884098E+03  0.25498663696E+03  0.13057736315E+03 0.  0.
          5    1    4    4  502    0  0.23845178381E+02  0.25608649476E+02  0.12449120987E+03  0.12940072177E+03  0.47000000000E+01 0. -1.
         -5    1    4    4    0  502 -0.17543883448E+02 -0.57503867025E+02  0.94827132593E+01  0.61045019616E+02  0.47000000000E+01 0. -1.
          5    1    5    5  503    0  0.42434099458E+02  0.60071026560E+02  0.89704418347E+02  0.11609545081E+03  0.47000000000E+01 0.  1.
         -5    1    5    5    0  503 -0.48735394391E+02 -0.28175809011E+02  0.12688442264E+03  0.13889118614E+03  0.47000000000E+01 0.  1.
<mgrwt>
<rscale>  0 0.27480130E+03</rscale>
<asrwt>0</asrwt>
<pdfrwt beam="1">  1        2 0.72976629E-02 0.27480130E+03</pdfrwt>
<pdfrwt beam="2">  1       -2 0.61230393E-01 0.27480130E+03</pdfrwt>
<totfact> 0.24191756E+03</totfact>
</mgrwt>
</event>
<event>
 9    1  0.2073852E-002  0.2750208E+03  0.7818608E-02  0.1098440E+00
         -2   -1    0    0    0  501 -0.00000000000E+00  0.00000000000E+00  0.13305271965E+04  0.13305271965E+04  0.00000000000E+00 0.  1.
          2   -1    0    0  501    0  0.00000000000E+00 -0.00000000000E+00 -0.14211744306E+02  0.14211744306E+02  0.00000000000E+00 0.  1.
         36    2    1    2    0    0  0.00000000000E+00  0.00000000000E+00  0.13163154522E+04  0.13447389408E+04  0.27502081601E+03 0.  0.
         25    2    3    3    0    0  0.21798344639E+02 -0.68043959200E+02  0.89300539773E+03  0.90426615420E+03  0.12301824684E+03 0.  0.
         25    2    3    3    0    0 -0.21798344639E+02  0.68043959200E+02  0.42331005450E+03  0.44047278663E+03  0.98588667267E+02 0.  0.
          5    1    4    4  502    0 -0.18292744227E+02 -0.89711124016E+02  0.69554131644E+03  0.70155721302E+03  0.47000000000E+01 0. -1.
         -5    1    4    4    0  502  0.40091088865E+02  0.21667164816E+02  0.19746408129E+03  0.20270894118E+03  0.47000000000E+01 0. -1.
          5    1    5    5  503    0  0.73500541685E+01  0.54730376467E+02  0.39034420918E+03  0.39425896191E+03  0.47000000000E+01 0. -1.
         -5    1    5    5    0  503 -0.29148398807E+02  0.13313582732E+02  0.32965845315E+02  0.46213824723E+02  0.47000000000E+01 0. -1.
<mgrwt>
<rscale>  0 0.27502082E+03</rscale>
<asrwt>0</asrwt>
<pdfrwt beam="1">  1        2 0.21864232E-02 0.27502082E+03</pdfrwt>
<pdfrwt beam="2">  1       -2 0.20469639E+00 0.27502082E+03</pdfrwt>
<totfact> 0.65214861E+02</totfact>
</mgrwt>
</event>
<event>
 9    1  0.2073852E-002  0.2752442E+03  0.7818608E-02  0.1098315E+00
         -2   -1    0    0    0  501 -0.00000000000E+00  0.00000000000E+00  0.78212897440E+02  0.78212897440E+02  0.00000000000E+00 0. -1.
          2   -1    0    0  501    0  0.00000000000E+00 -0.00000000000E+00 -0.24215753679E+03  0.24215753679E+03  0.00000000000E+00 0. -1.
         36    2    1    2    0    0  0.71054273576E-14  0.71054273576E-14 -0.16394463935E+03  0.32037043423E+03  0.27524420131E+03 0.  0.
         25    2    3    3    0    0  0.11943771668E+02  0.15692353481E+02 -0.15798321969E+02  0.13011038122E+03  0.12763314884E+03 0.  0.
         25    2    3    3    0    0 -0.11943771668E+02 -0.15692353481E+02 -0.14814631738E+03  0.19026005301E+03  0.11773976720E+03 0.  0.
          5    1    4    4  502    0 -0.28695263350E+02  0.52763249348E+02 -0.37306941501E+02  0.70860966016E+02  0.47000000000E+01 0. -1.
         -5    1    4    4    0  502  0.40639035017E+02 -0.37070895868E+02  0.21508619532E+02  0.59249415202E+02  0.47000000000E+01 0. -1.
          5    1    5    5  503    0 -0.26811934256E+02 -0.43518113929E+02 -0.14976967079E+03  0.15832166733E+03  0.47000000000E+01 0.  1.
         -5    1    5    5    0  503  0.14868162588E+02  0.27825760448E+02  0.16233534133E+01  0.31938385676E+02  0.47000000000E+01 0.  1.
<mgrwt>
<rscale>  0 0.27524420E+03</rscale>
<asrwt>0</asrwt>
<pdfrwt beam="1">  1        2 0.37255005E-01 0.27524420E+03</pdfrwt>
<pdfrwt beam="2">  1       -2 0.12032754E-01 0.27524420E+03</pdfrwt>
<totfact> 0.67462588E+03</totfact>
</mgrwt>
</event>
<event>
 9    1  0.2073852E-002  0.2758222E+03  0.7818608E-02  0.1097993E+00
          1   -1    0    0  501    0  0.00000000000E+00  0.00000000000E+00  0.72110877732E+03  0.72110877732E+03  0.00000000000E+00 0.  1.
         -1   -1    0    0    0  501 -0.00000000000E+00 -0.00000000000E+00 -0.26375323715E+02  0.26375323715E+02  0.00000000000E+00 0.  1.
         36    2    1    2    0    0  0.71054273576E-14  0.21316282073E-13  0.69473345360E+03  0.74748410103E+03  0.27582224302E+03 0.  0.
         25    2    3    3    0    0  0.32066981186E+02  0.48202158783E+02  0.39532175549E+03  0.41869799583E+03  0.12520775518E+03 0.  0.
         25    2    3    3    0    0 -0.32066981186E+02 -0.48202158783E+02  0.29941169811E+03  0.32878610520E+03  0.12288693426E+03 0.  0.
          5    1    4    4  502    0  0.16762601605E+01 -0.23759021947E+02  0.11290423328E+02  0.26774327834E+02  0.47000000000E+01 0. -1.
         -5    1    4    4    0  502  0.30390721025E+02  0.71961180730E+02  0.38403133216E+03  0.39192366800E+03  0.47000000000E+01 0. -1.
          5    1    5    5  503    0  0.19227086398E+02 -0.70726391619E+02  0.21644824498E+03  0.22856910570E+03  0.47000000000E+01 0.  1.
         -5    1    5    5    0  503 -0.51294067584E+02  0.22524232836E+02  0.82963453131E+02  0.10021699950E+03  0.47000000000E+01 0.  1.
<mgrwt>
<rscale>  0 0.27582224E+03</rscale>
<asrwt>0</asrwt>
<pdfrwt beam="1">  1        1 0.11093980E+00 0.27582224E+03</pdfrwt>
<pdfrwt beam="2">  1       -1 0.40577427E-02 0.27582224E+03</pdfrwt>
<totfact> 0.64779732E+03</totfact>
</mgrwt>
</event>
<event>
 9    1  0.2073852E-002  0.2749241E+03  0.7818608E-02  0.1098494E+00
         -2   -1    0    0    0  501 -0.00000000000E+00  0.00000000000E+00  0.79417505203E+02  0.79417505203E+02  0.00000000000E+00 0. -1.
          2   -1    0    0  501    0  0.00000000000E+00 -0.00000000000E+00 -0.23793010494E+03  0.23793010494E+03  0.00000000000E+00 0. -1.
         36    2    1    2    0    0  0.00000000000E+00 -0.35527136788E-14 -0.15851259974E+03  0.31734761015E+03  0.27492410114E+03 0.  0.
         25    2    3    3    0    0 -0.30181192226E+02  0.26186454816E+02 -0.62169024704E+02  0.14124314216E+03  0.12036611979E+03 0.  0.
         25    2    3    3    0    0  0.30181192226E+02 -0.26186454816E+02 -0.96343575037E+02  0.17610446799E+03  0.14189455386E+03 0.  0.
          5    1    4    4  502    0  0.21490433985E+01 -0.31109286415E+02  0.18874926924E+02  0.36752672762E+02  0.47000000000E+01 0.  1.
         -5    1    4    4    0  502 -0.32330235625E+02  0.57295741231E+02 -0.81043951628E+02  0.10449046939E+03  0.47000000000E+01 0.  1.
          5    1    5    5  503    0 -0.41996154276E+02 -0.35101802178E+02  0.45688026320E+00  0.54937348222E+02  0.47000000000E+01 0.  1.
         -5    1    5    5    0  503  0.72177346502E+02  0.89153473611E+01 -0.96800455300E+02  0.12116711977E+03  0.47000000000E+01 0.  1.
<mgrwt>
<rscale>  0 0.27492410E+03</rscale>
<asrwt>0</asrwt>
<pdfrwt beam="1">  1        2 0.36604631E-01 0.27492410E+03</pdfrwt>
<pdfrwt beam="2">  1       -2 0.12218078E-01 0.27492410E+03</pdfrwt>
<totfact> 0.67080688E+03</totfact>
</mgrwt>
</event>
<event>
 9    1  0.2073852E-002  0.2750465E+03  0.7818608E-02  0.1098426E+00
         -2   -1    0    0    0  501 -0.00000000000E+00  0.00000000000E+00  0.14423368984E+02  0.14423368984E+02  0.00000000000E+00 0. -1.
          2   -1    0    0  501    0  0.00000000000E+00 -0.00000000000E+00 -0.13112497018E+04  0.13112497018E+04  0.00000000000E+00 0. -1.
         36    2    1    2    0    0 -0.71054273576E-14  0.00000000000E+00 -0.12968263328E+04  0.13256730708E+04  0.27504645629E+03 0.  0.
         25    2    3    3    0    0 -0.47829281841E+02 -0.24783376799E+02 -0.53987989045E+03  0.55671689284E+03  0.12474592859E+03 0.  0.
         25    2    3    3    0    0  0.47829281841E+02  0.24783376799E+02 -0.75694644235E+03  0.76895617792E+03  0.12419271723E+03 0.  0.
          5    1    4    4  502    0  0.17674893281E+02  0.23336262755E+02 -0.33415667170E+03  0.33546945353E+03  0.47000000000E+01 0. -1.
         -5    1    4    4    0  502 -0.65504175122E+02 -0.48119639554E+02 -0.20572321875E+03  0.22124743931E+03  0.47000000000E+01 0. -1.
          5    1    5    5  503    0  0.60323601148E+02  0.57024414576E+02 -0.32021870134E+03  0.33083655693E+03  0.47000000000E+01 0. -1.
         -5    1    5    5    0  503 -0.12494319308E+02 -0.32241037777E+02 -0.43672774101E+03  0.43811962100E+03  0.47000000000E+01 0. -1.
<mgrwt>
<rscale>  0 0.27504646E+03</rscale>
<asrwt>0</asrwt>
<pdfrwt beam="1">  1        2 0.20173067E+00 0.27504646E+03</pdfrwt>
<pdfrwt beam="2">  1       -2 0.22189804E-02 0.27504646E+03</pdfrwt>
<totfact> 0.11460401E+04</totfact>
</mgrwt>
</event>
<event>
 9    1  0.2073852E-002  0.2747156E+03  0.7818608E-02  0.1098611E+00
          2   -1    0    0  501    0  0.00000000000E+00  0.00000000000E+00  0.21798559445E+04  0.21798559445E+04  0.00000000000E+00 0.  1.
         -2   -1    0    0    0  501 -0.00000000000E+00 -0.00000000000E+00 -0.86552325700E+01  0.86552325700E+01  0.00000000000E+00 0.  1.
         36    2    1    2    0    0  0.00000000000E+00  0.00000000000E+00  0.21712007119E+04  0.21885111770E+04  0.27471556322E+03 0.  0.
         25    2    3    3    0    0  0.22220615594E+02  0.50673035299E+02  0.11345194060E+04  0.11426494031E+04  0.12430552512E+03 0.  0.
         25    2    3    3    0    0 -0.22220615594E+02 -0.50673035299E+02  0.10366813059E+04  0.10458617739E+04  0.12671703871E+03 0.  0.
          5    1    4    4  502    0  0.69908404145E+02  0.25438056856E+02  0.46430828471E+03  0.47025371127E+03  0.47000000000E+01 0. -1.
         -5    1    4    4    0  502 -0.47687788551E+02  0.25234978443E+02  0.67021112131E+03  0.67239569187E+03  0.47000000000E+01 0. -1.
          5    1    5    5  503    0 -0.24417044640E+02 -0.90307482266E+02  0.83654683204E+03  0.84177450996E+03  0.47000000000E+01 0. -1.
         -5    1    5    5    0  503  0.21964290467E+01  0.39634446967E+02  0.20013447382E+03  0.20408726393E+03  0.47000000000E+01 0. -1.
<mgrwt>
<rscale>  0 0.27471556E+03</rscale>
<asrwt>0</asrwt>
<pdfrwt beam="1">  1        2 0.33536201E+00 0.27471556E+03</pdfrwt>
<pdfrwt beam="2">  1       -2 0.13315760E-02 0.27471556E+03</pdfrwt>
<totfact> 0.83818167E+03</totfact>
</mgrwt>
</event>
<event>
 9    1  0.2073852E-002  0.2751182E+03  0.7818608E-02  0.1098386E+00
         -1   -1    0    0    0  501 -0.00000000000E+00  0.00000000000E+00  0.46233707886E+02  0.46233707886E+02  0.00000000000E+00 0. -1.
          1   -1    0    0  501    0  0.00000000000E+00 -0.00000000000E+00 -0.40927946202E+03  0.40927946202E+03  0.00000000000E+00 0. -1.
         36    2    1    2    0    0 -0.35527136788E-14 -0.71054273576E-14 -0.36304575413E+03  0.45551316990E+03  0.27511820798E+03 0.  0.
         25    2    3    3    0    0 -0.13812003005E+02  0.53174774981E+02 -0.14432890743E+03  0.19824189409E+03  0.12430079216E+03 0.  0.
         25    2    3    3    0    0  0.13812003005E+02 -0.53174774981E+02 -0.21871684670E+03  0.25727127581E+03  0.12382698497E+03 0.  0.
          5    1    4    4  502    0 -0.40011214011E+02  0.53435067493E+02 -0.18222454842E+02  0.69356697911E+02  0.47000000000E+01 0.  1.
         -5    1    4    4    0  502  0.26199211006E+02 -0.26029251137E+00 -0.12610645259E+03  0.12888519618E+03  0.47000000000E+01 0.  1.
          5    1    5    5  503    0 -0.38610299173E+02 -0.41716003038E+02 -0.37600177685E+02  0.68314299189E+02  0.47000000000E+01 0. -1.
         -5    1    5    5    0  503  0.52422302178E+02 -0.11458771943E+02 -0.18111666901E+03  0.18895697662E+03  0.47000000000E+01 0. -1.
<mgrwt>
<rscale>  0 0.27511821E+03</rscale>
<asrwt>0</asrwt>
<pdfrwt beam="1">  1        1 0.62966071E-01 0.27511821E+03</pdfrwt>
<pdfrwt beam="2">  1       -1 0.71128781E-02 0.27511821E+03</pdfrwt>
<totfact> 0.60296279E+03</totfact>
</mgrwt>
</event>
<event>
 9    1  0.2073852E-002  0.2775263E+03  0.7818608E-02  0.1097048E+00
          1   -1    0    0  501    0  0.00000000000E+00  0.00000000000E+00  0.80607364744E+03  0.80607364744E+03  0.00000000000E+00 0. -1.
         -1   -1    0    0    0  501 -0.00000000000E+00 -0.00000000000E+00 -0.23887656094E+02  0.23887656094E+02  0.00000000000E+00 0. -1.
         36    2    1    2    0    0  0.00000000000E+00  0.10658141036E-13  0.78218599135E+03  0.82996130354E+03  0.27752628759E+03 0.  0.
         25    2    3    3    0    0  0.15567618879E+02 -0.31717692314E+02  0.26752965683E+03  0.29858373843E+03  0.12779580904E+03 0.  0.
         25    2    3    3    0    0 -0.15567618879E+02  0.31717692314E+02  0.51465633452E+03  0.53137756511E+03  0.12744650359E+03 0.  0.
          5    1    4    4  502    0 -0.53009639030E+02 -0.24796816047E+02  0.16333368014E+03  0.17356521825E+03  0.47000000000E+01 0.  1.
         -5    1    4    4    0  502  0.68577257908E+02 -0.69208762664E+01  0.10419597669E+03  0.12501852018E+03  0.47000000000E+01 0.  1.
          5    1    5    5  503    0 -0.36308080228E+02  0.74709162990E+02  0.35816012698E+03  0.36769620923E+03  0.47000000000E+01 0.  1.
         -5    1    5    5    0  503  0.20740461350E+02 -0.42991470676E+02  0.15649620754E+03  0.16368135588E+03  0.47000000000E+01 0.  1.
<mgrwt>
<rscale>  0 0.27752629E+03</rscale>
<asrwt>0</asrwt>
<pdfrwt beam="1">  1        1 0.12401131E+00 0.27752629E+03</pdfrwt>
<pdfrwt beam="2">  1       -1 0.36750246E-02 0.27752629E+03</pdfrwt>
<totfact> 0.63449277E+03</totfact>
</mgrwt>
</event>
<event>
 9    1  0.2073852E-002  0.2753058E+03  0.7818608E-02  0.1098281E+00
          1   -1    0    0  501    0  0.00000000000E+00  0.00000000000E+00  0.46950612791E+02  0.46950612791E+02  0.00000000000E+00 0. -1.
         -1   -1    0    0    0  501 -0.00000000000E+00 -0.00000000000E+00 -0.40357972731E+03  0.40357972731E+03  0.00000000000E+00 0. -1.
         36    2    1    2    0    0  0.00000000000E+00  0.00000000000E+00 -0.35662911451E+03  0.45053034010E+03  0.27530576098E+03 0.  0.
         25    2    3    3    0    0  0.63884148167E+01 -0.26736606872E+02 -0.22956561546E+03  0.26391254308E+03  0.12725486476E+03 0.  0.
         25    2    3    3    0    0 -0.63884148167E+01  0.26736606872E+02 -0.12706349906E+03  0.18661779701E+03  0.13388581470E+03 0.  0.
          5    1    4    4  502    0 -0.81304127524E+01  0.36508844436E+02 -0.16527372965E+02  0.41161187916E+02  0.47000000000E+01 0.  1.
         -5    1    4    4    0  502  0.14518827569E+02 -0.63245451308E+02 -0.21303824249E+03  0.22275135517E+03  0.47000000000E+01 0.  1.
          5    1    5    5  503    0 -0.45703528422E+02  0.17281936223E+02 -0.13630436640E+03  0.14487390424E+03  0.47000000000E+01 0. -1.
         -5    1    5    5    0  503  0.39315113605E+02  0.94546706488E+01  0.92408673394E+01  0.41743892775E+02  0.47000000000E+01 0. -1.
<mgrwt>
<rscale>  0 0.27530576E+03</rscale>
<asrwt>0</asrwt>
<pdfrwt beam="1">  1        1 0.72231712E-02 0.27530576E+03</pdfrwt>
<pdfrwt beam="2">  1       -1 0.62089189E-01 0.27530576E+03</pdfrwt>
<totfact> 0.27121637E+03</totfact>
</mgrwt>
</event>
<event>
 9    1  0.2073852E-002  0.2726741E+03  0.7818608E-02  0.1099759E+00
          1   -1    0    0  501    0  0.00000000000E+00  0.00000000000E+00  0.22188288538E+03  0.22188288538E+03  0.00000000000E+00 0.  1.
         -1   -1    0    0    0  501 -0.00000000000E+00 -0.00000000000E+00 -0.83773013670E+02  0.83773013670E+02  0.00000000000E+00 0.  1.
         36    2    1    2    0    0  0.14210854715E-13  0.71054273576E-14  0.13810987171E+03  0.30565589905E+03  0.27267414979E+03 0.  0.
         25    2    3    3    0    0 -0.50161103497E+02 -0.24365666943E+02  0.58131671898E+02  0.14771064045E+03  0.12381163109E+03 0.  0.
         25    2    3    3    0    0  0.50161103497E+02  0.24365666943E+02  0.79978199815E+02  0.15794525861E+03  0.12425928634E+03 0.  0.
          5    1    4    4  502    0 -0.28119272230E+02  0.32297358655E+02 -0.20904344492E+02  0.47884177611E+02  0.47000000000E+01 0.  1.
         -5    1    4    4    0  502 -0.22041831267E+02 -0.56663025598E+02  0.79036016390E+02  0.99826462836E+02  0.47000000000E+01 0.  1.
          5    1    5    5  503    0 -0.40690868753E+02  0.17270304277E+02  0.32623063270E+02  0.55139500060E+02  0.47000000000E+01 0. -1.
         -5    1    5    5    0  503  0.90851972250E+02  0.70953626655E+01  0.47355136545E+02  0.10280575855E+03  0.47000000000E+01 0. -1.
<mgrwt>
<rscale>  0 0.27267415E+03</rscale>
<asrwt>0</asrwt>
<pdfrwt beam="1">  1        1 0.34135828E-01 0.27267415E+03</pdfrwt>
<pdfrwt beam="2">  1       -1 0.12888156E-01 0.27267415E+03</pdfrwt>
<totfact> 0.52202701E+03</totfact>
</mgrwt>
</event>
<event>
 9    1  0.2073852E-002  0.2776482E+03  0.7818608E-02  0.1096980E+00
         -2   -1    0    0    0  501 -0.00000000000E+00  0.00000000000E+00  0.32991445178E+02  0.32991445178E+02  0.00000000000E+00 0. -1.
          2   -1    0    0  501    0  0.00000000000E+00 -0.00000000000E+00 -0.58415549308E+03  0.58415549308E+03  0.00000000000E+00 0. -1.
         36    2    1    2    0    0  0.00000000000E+00  0.00000000000E+00 -0.55116404790E+03  0.61714693826E+03  0.27764822294E+03 0.  0.
         25    2    3    3    0    0 -0.38406256694E+02  0.63254948210E+02 -0.44497293805E+03  0.46775627629E+03  0.12376909705E+03 0.  0.
         25    2    3    3    0    0  0.38406256694E+02 -0.63254948210E+02 -0.10619110985E+03  0.14939066197E+03  0.74597513669E+02 0.  0.
          5    1    4    4  502    0 -0.18287594479E+02  0.55488106884E+02 -0.66513802165E+02  0.88654057977E+02  0.47000000000E+01 0.  1.
         -5    1    4    4    0  502 -0.20118662216E+02  0.77668413269E+01 -0.37845913589E+03  0.37910221831E+03  0.47000000000E+01 0.  1.
          5    1    5    5  503    0  0.15310838074E+01 -0.10255482216E+02 -0.77925028962E+02  0.78752265185E+02  0.47000000000E+01 0. -1.
         -5    1    5    5    0  503  0.36875172887E+02 -0.52999465994E+02 -0.28266080886E+02  0.70638396781E+02  0.47000000000E+01 0. -1.
<mgrwt>
<rscale>  0 0.27764822E+03</rscale>
<asrwt>0</asrwt>
<pdfrwt beam="1">  1        2 0.89870073E-01 0.27764822E+03</pdfrwt>
<pdfrwt beam="2">  1       -2 0.50756071E-02 0.27764822E+03</pdfrwt>
<totfact> 0.99190904E+03</totfact>
</mgrwt>
</event>
<event>
 9    1  0.2073852E-002  0.2747925E+03  0.7818608E-02  0.1098568E+00
          2   -1    0    0  501    0  0.00000000000E+00  0.00000000000E+00  0.92852232066E+03  0.92852232066E+03  0.00000000000E+00 0. -1.
         -2   -1    0    0    0  501 -0.00000000000E+00 -0.00000000000E+00 -0.20330934415E+02  0.20330934415E+02  0.00000000000E+00 0. -1.
         36    2    1    2    0    0  0.00000000000E+00 -0.71054273576E-14  0.90819138624E+03  0.94885325507E+03  0.27479247736E+03 0.  0.
         25    2    3    3    0    0 -0.40725427825E+02 -0.38694853650E+01  0.34902854337E+03  0.37423812349E+03  0.12868455849E+03 0.  0.
         25    2    3    3    0    0  0.40725427825E+02  0.38694853650E+01  0.55916284287E+03  0.57461513158E+03  0.12588062286E+03 0.  0.
          5    1    4    4  502    0 -0.70813193091E+01  0.53482040472E+02  0.24327984663E+03  0.24923412188E+03  0.47000000000E+01 0. -1.
         -5    1    4    4    0  502 -0.33644108516E+02 -0.57351525837E+02  0.10574869675E+03  0.12500400161E+03  0.47000000000E+01 0. -1.
          5    1    5    5  503    0  0.68930302924E+01 -0.50026327422E+02  0.39898904818E+03  0.40219957468E+03  0.47000000000E+01 0.  1.
         -5    1    5    5    0  503  0.33832397533E+02  0.53895812787E+02  0.16017379469E+03  0.17241555691E+03  0.47000000000E+01 0.  1.
<mgrwt>
<rscale>  0 0.27479248E+03</rscale>
<asrwt>0</asrwt>
<pdfrwt beam="1">  1        2 0.14284956E+00 0.27479248E+03</pdfrwt>
<pdfrwt beam="2">  1       -2 0.31278368E-02 0.27479248E+03</pdfrwt>
<totfact> 0.11553834E+04</totfact>
</mgrwt>
</event>
<event>
 9    1  0.2073852E-002  0.2760270E+03  0.7818608E-02  0.1097879E+00
         -1   -1    0    0    0  501 -0.00000000000E+00  0.00000000000E+00  0.17546296842E+02  0.17546296842E+02  0.00000000000E+00 0.  1.
          1   -1    0    0  501    0  0.00000000000E+00 -0.00000000000E+00 -0.10855698356E+04  0.10855698356E+04  0.00000000000E+00 0.  1.
         36    2    1    2    0    0  0.00000000000E+00 -0.14210854715E-13 -0.10680235387E+04  0.11031161324E+04  0.27602703185E+03 0.  0.
         25    2    3    3    0    0  0.42202464348E+02 -0.54470113667E+02 -0.31484518803E+03  0.33672201064E+03  0.97499634572E+02 0.  0.
         25    2    3    3    0    0 -0.42202464348E+02  0.54470113667E+02 -0.75317835069E+03  0.76639412177E+03  0.12383166256E+03 0.  0.
          5    1    4    4  502    0  0.13961712995E+01  0.19538708657E+02 -0.14882794804E+02  0.25045918060E+02  0.47000000000E+01 0. -1.
         -5    1    4    4    0  502  0.40806293048E+02 -0.74008822324E+02 -0.29996239323E+03  0.31167609258E+03  0.47000000000E+01 0. -1.
          5    1    5    5  503    0 -0.48744711419E+02  0.60091740482E+01 -0.10139110670E+03  0.11275816414E+03  0.47000000000E+01 0.  1.
         -5    1    5    5    0  503  0.65422470714E+01  0.48460939619E+02 -0.65178724400E+03  0.65363595763E+03  0.47000000000E+01 0.  1.
<mgrwt>
<rscale>  0 0.27602703E+03</rscale>
<asrwt>0</asrwt>
<pdfrwt beam="1">  1        1 0.16701078E+00 0.27602703E+03</pdfrwt>
<pdfrwt beam="2">  1       -1 0.26994296E-02 0.27602703E+03</pdfrwt>
<totfact> 0.60930310E+03</totfact>
</mgrwt>
</event>
<event>
 9    1  0.2073852E-002  0.2777575E+03  0.7818608E-02  0.1096920E+00
          2   -1    0    0  501    0  0.00000000000E+00  0.00000000000E+00  0.23406552308E+02  0.23406552308E+02  0.00000000000E+00 0.  1.
         -2   -1    0    0    0  501 -0.00000000000E+00 -0.00000000000E+00 -0.82401328181E+03  0.82401328181E+03  0.00000000000E+00 0.  1.
         36    2    1    2    0    0  0.71054273576E-14  0.00000000000E+00 -0.80060672950E+03  0.84741983412E+03  0.27775752003E+03 0.  0.
         25    2    3    3    0    0 -0.33727607913E+02 -0.52039879716E+02 -0.45633622207E+03  0.47631158712E+03  0.12159062396E+03 0.  0.
         25    2    3    3    0    0  0.33727607913E+02  0.52039879716E+02 -0.34427050743E+03  0.37110824700E+03  0.12390903149E+03 0.  0.
          5    1    4    4  502    0 -0.77233890088E+01 -0.31892002558E+02 -0.43619750306E+03  0.43745525742E+03  0.47000000000E+01 0.  1.
         -5    1    4    4    0  502 -0.26004218904E+02 -0.20147877158E+02 -0.20138719011E+02  0.38856329706E+02  0.47000000000E+01 0.  1.
          5    1    5    5  503    0 -0.10566611463E+02  0.11594467702E+02  0.46619255450E+01  0.17026699883E+02  0.47000000000E+01 0. -1.
         -5    1    5    5    0  503  0.44294219376E+02  0.40445412014E+02 -0.34893243298E+03  0.35408154711E+03  0.47000000000E+01 0. -1.
<mgrwt>
<rscale>  0 0.27775752E+03</rscale>
<asrwt>0</asrwt>
<pdfrwt beam="1">  1        2 0.36010084E-02 0.27775752E+03</pdfrwt>
<pdfrwt beam="2">  1       -2 0.12677126E+00 0.27775752E+03</pdfrwt>
<totfact> 0.11859764E+03</totfact>
</mgrwt>
</event>
<event>
 9    1  0.2073852E-002  0.2749212E+03  0.7818608E-02  0.1098496E+00
         -2   -1    0    0    0  501 -0.00000000000E+00  0.00000000000E+00  0.22823468272E+02  0.22823468272E+02  0.00000000000E+00 0.  1.
          2   -1    0    0  501    0  0.00000000000E+00 -0.00000000000E+00 -0.82789424355E+03  0.82789424355E+03  0.00000000000E+00 0.  1.
         36    2    1    2    0    0  0.14210854715E-13  0.00000000000E+00 -0.80507077527E+03  0.85071771182E+03  0.27492121053E+03 0.  0.
         25    2    3    3    0    0 -0.43927519959E+02 -0.27674348784E+02 -0.33074161742E+03  0.35748157490E+03  0.12532981412E+03 0.  0.
         25    2    3    3    0    0  0.43927519959E+02  0.27674348784E+02 -0.47432915785E+03  0.49323613692E+03  0.12489291487E+03 0.  0.
          5    1    4    4  502    0 -0.78469611696E+02 -0.14380663438E+02 -0.29565842287E+03  0.30626830795E+03  0.47000000000E+01 0.  1.
         -5    1    4    4    0  502  0.34542091737E+02 -0.13293685346E+02 -0.35083194552E+02  0.51213266949E+02  0.47000000000E+01 0.  1.
          5    1    5    5  503    0  0.42636674985E+02 -0.24145761078E+02 -0.70022105531E+02  0.85592576166E+02  0.47000000000E+01 0. -1.
         -5    1    5    5    0  503  0.12908449738E+01  0.51820109862E+02 -0.40430705232E+03  0.40764356076E+03  0.47000000000E+01 0. -1.
<mgrwt>
<rscale>  0 0.27492121E+03</rscale>
<asrwt>0</asrwt>
<pdfrwt beam="1">  1        2 0.12736834E+00 0.27492121E+03</pdfrwt>
<pdfrwt beam="2">  1       -2 0.35113029E-02 0.27492121E+03</pdfrwt>
<totfact> 0.11315085E+04</totfact>
</mgrwt>
</event>
<event>
 9    1  0.2073852E-002  0.2734411E+03  0.7818608E-02  0.1099326E+00
          1   -1    0    0  501    0  0.00000000000E+00  0.00000000000E+00  0.71130122265E+03  0.71130122265E+03  0.00000000000E+00 0.  1.
         -1   -1    0    0    0  501 -0.00000000000E+00 -0.00000000000E+00 -0.26279314586E+02  0.26279314586E+02  0.00000000000E+00 0.  1.
         36    2    1    2    0    0 -0.62172489379E-14  0.00000000000E+00  0.68502190806E+03  0.73758053724E+03  0.27344109856E+03 0.  0.
         25    2    3    3    0    0  0.42441321249E+01 -0.71856467780E+00  0.17663157752E+03  0.21770613718E+03  0.12719559346E+03 0.  0.
         25    2    3    3    0    0 -0.42441321249E+01  0.71856467780E+00  0.50839033055E+03  0.51987440006E+03  0.10858238646E+03 0.  0.
          5    1    4    4  502    0  0.63851368205E+02 -0.10472824936E+02  0.72965709829E+02  0.97635864797E+02  0.47000000000E+01 0.  1.
         -5    1    4    4    0  502 -0.59607236080E+02  0.97542602579E+01  0.10366586769E+03  0.12007027238E+03  0.47000000000E+01 0.  1.
          5    1    5    5  503    0 -0.20281271085E+01 -0.46226327840E+02  0.38421738518E+03  0.38702206108E+03  0.47000000000E+01 0.  1.
         -5    1    5    5    0  503 -0.22160050164E+01  0.46944892518E+02  0.12417294537E+03  0.13285233898E+03  0.47000000000E+01 0.  1.
<mgrwt>
<rscale>  0 0.27344110E+03</rscale>
<asrwt>0</asrwt>
<pdfrwt beam="1">  1        1 0.10943094E+00 0.27344110E+03</pdfrwt>
<pdfrwt beam="2">  1       -1 0.40429720E-02 0.27344110E+03</pdfrwt>
<totfact> 0.66442412E+03</totfact>
</mgrwt>
</event>
<event>
 9    1  0.2073852E-002  0.2749553E+03  0.7818608E-02  0.1098477E+00
         -2   -1    0    0    0  501 -0.00000000000E+00  0.00000000000E+00  0.29635255871E+02  0.29635255871E+02  0.00000000000E+00 0. -1.
          2   -1    0    0  501    0  0.00000000000E+00 -0.00000000000E+00 -0.63775719962E+03  0.63775719962E+03  0.00000000000E+00 0. -1.
         36    2    1    2    0    0  0.35527136788E-14  0.71054273576E-14 -0.60812194375E+03  0.66739245549E+03  0.27495525304E+03 0.  0.
         25    2    3    3    0    0 -0.13825907458E+02 -0.55403956571E+02 -0.23331705136E+03  0.26929293571E+03  0.12174187713E+03 0.  0.
         25    2    3    3    0    0  0.13825907458E+02  0.55403956571E+02 -0.37480489238E+03  0.39809951977E+03  0.12142391103E+03 0.  0.
          5    1    4    4  502    0  0.30020186299E+02 -0.38480102395E+02 -0.21177911613E+03  0.21738080387E+03  0.47000000000E+01 0.  1.
         -5    1    4    4    0  502 -0.43846093757E+02 -0.16923854177E+02 -0.21537935237E+02  0.51912131841E+02  0.47000000000E+01 0.  1.
          5    1    5    5  503    0  0.30417249637E+02  0.21548938403E+02 -0.35155383463E+03  0.35355587178E+03  0.47000000000E+01 0. -1.
         -5    1    5    5    0  503 -0.16591342179E+02  0.33855018168E+02 -0.23251057751E+02  0.44543647999E+02  0.47000000000E+01 0. -1.
<mgrwt>
<rscale>  0 0.27495525E+03</rscale>
<asrwt>0</asrwt>
<pdfrwt beam="1">  1        2 0.98116490E-01 0.27495525E+03</pdfrwt>
<pdfrwt beam="2">  1       -2 0.45592702E-02 0.27495525E+03</pdfrwt>
<totfact> 0.10531815E+04</totfact>
</mgrwt>
</event>
<event>
 9    1  0.2073852E-002  0.2747875E+03  0.7818608E-02  0.1098570E+00
         -2   -1    0    0    0  501 -0.00000000000E+00  0.00000000000E+00  0.11616842361E+02  0.11616842361E+02  0.00000000000E+00 0.  1.
          2   -1    0    0  501    0  0.00000000000E+00 -0.00000000000E+00 -0.16249718306E+04  0.16249718306E+04  0.00000000000E+00 0.  1.
         36    2    1    2    0    0  0.00000000000E+00 -0.88817841970E-15 -0.16133549883E+04  0.16365886730E+04  0.27478749314E+03 0.  0.
         25    2    3    3    0    0 -0.22786972481E+02 -0.17962042921E+01 -0.11646066063E+04  0.11712878740E+04  0.12281801106E+03 0.  0.
         25    2    3    3    0    0  0.22786972481E+02  0.17962042921E+01 -0.44874838195E+03  0.46530079898E+03  0.12086045991E+03 0.  0.
          5    1    4    4  502    0  0.49394539564E+02  0.11816285639E+02 -0.43618967998E+03  0.43916166962E+03  0.47000000000E+01 0.  1.
         -5    1    4    4    0  502 -0.72181512045E+02 -0.13612489931E+02 -0.72841692634E+03  0.73212620438E+03  0.47000000000E+01 0.  1.
          5    1    5    5  503    0  0.63749844076E+02  0.60600746280E+01 -0.37708520252E+03  0.38251288486E+03  0.47000000000E+01 0.  1.
         -5    1    5    5    0  503 -0.40962871595E+02 -0.42638703359E+01 -0.71663179432E+02  0.82787914129E+02  0.47000000000E+01 0.  1.
<mgrwt>
<rscale>  0 0.27478749E+03</rscale>
<asrwt>0</asrwt>
<pdfrwt beam="1">  1        2 0.24999560E+00 0.27478749E+03</pdfrwt>
<pdfrwt beam="2">  1       -2 0.17872070E-02 0.27478749E+03</pdfrwt>
<totfact> 0.10678250E+04</totfact>
</mgrwt>
</event>
<event>
 9    1  0.2073852E-002  0.2721661E+03  0.7818608E-02  0.1100046E+00
          2   -1    0    0  501    0  0.00000000000E+00  0.00000000000E+00  0.64088083447E+03  0.64088083447E+03  0.00000000000E+00 0. -1.
         -2   -1    0    0    0  501 -0.00000000000E+00 -0.00000000000E+00 -0.28895536844E+02  0.28895536844E+02  0.00000000000E+00 0. -1.
         36    2    1    2    0    0 -0.35527136788E-14 -0.71054273576E-14  0.61198529763E+03  0.66977637131E+03  0.27216609462E+03 0.  0.
         25    2    3    3    0    0  0.11056093732E+02 -0.32806329211E+02  0.26562225828E+03  0.30035860395E+03  0.13587352363E+03 0.  0.
         25    2    3    3    0    0 -0.11056093732E+02  0.32806329211E+02  0.34636303934E+03  0.36941776737E+03  0.12370787921E+03 0.  0.
          5    1    4    4  502    0 -0.41973117376E+02  0.43610706398E+01  0.21197285314E+02  0.47457100881E+02  0.47000000000E+01 0.  1.
         -5    1    4    4    0  502  0.53029211107E+02 -0.37167399851E+02  0.24442497297E+03  0.25290150307E+03  0.47000000000E+01 0.  1.
          5    1    5    5  503    0 -0.23862294520E+02 -0.31896580168E+02  0.42484799131E+02  0.58428153174E+02  0.47000000000E+01 0.  1.
         -5    1    5    5    0  503  0.12806200788E+02  0.64702909379E+02  0.30387824021E+03  0.31098961419E+03  0.47000000000E+01 0.  1.
<mgrwt>
<rscale>  0 0.27216609E+03</rscale>
<asrwt>0</asrwt>
<pdfrwt beam="1">  1        2 0.98597041E-01 0.27216609E+03</pdfrwt>
<pdfrwt beam="2">  1       -2 0.44454677E-02 0.27216609E+03</pdfrwt>
<totfact> 0.10874997E+04</totfact>
</mgrwt>
</event>
<event>
 9    1  0.2073852E-002  0.2832387E+03  0.7818608E-02  0.1093933E+00
         -2   -1    0    0    0  501 -0.00000000000E+00  0.00000000000E+00  0.41083110412E+02  0.41083110412E+02  0.00000000000E+00 0.  1.
          2   -1    0    0  501    0  0.00000000000E+00 -0.00000000000E+00 -0.48818220767E+03  0.48818220767E+03  0.00000000000E+00 0.  1.
         36    2    1    2    0    0  0.35527136788E-14  0.71054273576E-14 -0.44709909726E+03  0.52926531808E+03  0.28323872291E+03 0.  0.
         25    2    3    3    0    0  0.27202437831E+02 -0.46633286466E+02 -0.29977936930E+03  0.32952540058E+03  0.12571667883E+03 0.  0.
         25    2    3    3    0    0 -0.27202437831E+02  0.46633286466E+02 -0.14731972796E+03  0.19973991751E+03  0.12360540591E+03 0.  0.
          5    1    4    4  502    0 -0.20759525682E+01 -0.84861475666E+02 -0.22429817244E+03  0.23986983927E+03  0.47000000000E+01 0.  1.
         -5    1    4    4    0  502  0.29278390399E+02  0.38228189200E+02 -0.75481196861E+02  0.89655561308E+02  0.47000000000E+01 0.  1.
          5    1    5    5  503    0 -0.40904254034E+02  0.82438877949E+02 -0.12445030884E+03  0.15485249745E+03  0.47000000000E+01 0. -1.
         -5    1    5    5    0  503  0.13701816203E+02 -0.35805591483E+02 -0.22869419119E+02  0.44887420059E+02  0.47000000000E+01 0. -1.
<mgrwt>
<rscale>  0 0.28323872E+03</rscale>
<asrwt>0</asrwt>
<pdfrwt beam="1">  1        2 0.75104960E-01 0.28323872E+03</pdfrwt>
<pdfrwt beam="2">  1       -2 0.63204781E-02 0.28323872E+03</pdfrwt>
<totfact> 0.86970542E+03</totfact>
</mgrwt>
</event>
<event>
 9    1  0.2073852E-002  0.2749243E+03  0.7818608E-02  0.1098494E+00
         -2   -1    0    0    0  501 -0.00000000000E+00  0.00000000000E+00  0.48912427595E+01  0.48912427595E+01  0.00000000000E+00 0. -1.
          2   -1    0    0  501    0  0.00000000000E+00 -0.00000000000E+00 -0.38631975629E+04  0.38631975629E+04  0.00000000000E+00 0. -1.
         36    2    1    2    0    0  0.00000000000E+00  0.00000000000E+00 -0.38583063201E+04  0.38680888056E+04  0.27492425944E+03 0.  0.
         25    2    3    3    0    0 -0.15321223001E+02 -0.52677668236E+02 -0.14722095491E+04  0.14774452638E+04  0.11150728368E+03 0.  0.
         25    2    3    3    0    0  0.15321223001E+02  0.52677668236E+02 -0.23860967710E+04  0.23906435418E+04  0.13678109188E+03 0.  0.
          5    1    4    4  502    0  0.42351404162E+02  0.35143606082E+01 -0.59565909979E+03  0.59719163200E+03  0.47000000000E+01 0. -1.
         -5    1    4    4    0  502 -0.57672627164E+02 -0.56192028845E+02 -0.87655044934E+03  0.88025363179E+03  0.47000000000E+01 0. -1.
          5    1    5    5  503    0  0.34338119770E+02  0.43768140951E+01 -0.20687488455E+04  0.20690437740E+04  0.47000000000E+01 0.  1.
         -5    1    5    5    0  503 -0.19016896768E+02  0.48300854141E+02 -0.31734792547E+03  0.32159976784E+03  0.47000000000E+01 0.  1.
<mgrwt>
<rscale>  0 0.27492426E+03</rscale>
<asrwt>0</asrwt>
<pdfrwt beam="1">  1        2 0.59434176E+00 0.27492426E+03</pdfrwt>
<pdfrwt beam="2">  1       -2 0.75249424E-03 0.27492426E+03</pdfrwt>
<totfact> 0.18241390E+03</totfact>
</mgrwt>
</event>
<event>
 9    1  0.2073852E-002  0.2760755E+03  0.7818608E-02  0.1097852E+00
         -1   -1    0    0    0  501 -0.00000000000E+00  0.00000000000E+00  0.29125280103E+03  0.29125280103E+03  0.00000000000E+00 0.  1.
          1   -1    0    0  501    0  0.00000000000E+00 -0.00000000000E+00 -0.65422278602E+02  0.65422278602E+02  0.00000000000E+00 0.  1.
         36    2    1    2    0    0  0.71054273576E-14  0.35527136788E-14  0.22583052242E+03  0.35667507963E+03  0.27607551063E+03 0.  0.
         25    2    3    3    0    0  0.48903147741E+02  0.25179671490E+02  0.13550405450E+03  0.19109859989E+03  0.12301135062E+03 0.  0.
         25    2    3    3    0    0 -0.48903147741E+02 -0.25179671490E+02  0.90326467927E+02  0.16557647974E+03  0.12740159386E+03 0.  0.
          5    1    4    4  502    0 -0.48378356921E+01  0.47848835137E+02  0.56273083220E+01  0.48648456061E+02  0.47000000000E+01 0. -1.
         -5    1    4    4    0  502  0.53740983433E+02 -0.22669163647E+02  0.12987674618E+03  0.14245014383E+03  0.47000000000E+01 0. -1.
          5    1    5    5  503    0 -0.35492668197E+02 -0.75603286256E+02  0.39221509708E+02  0.92390493084E+02  0.47000000000E+01 0.  1.
         -5    1    5    5    0  503 -0.13410479544E+02  0.50423614766E+02  0.51104958219E+02  0.73185986651E+02  0.47000000000E+01 0.  1.
<mgrwt>
<rscale>  0 0.27607551E+03</rscale>
<asrwt>0</asrwt>
<pdfrwt beam="1">  1        1 0.10064966E-01 0.27607551E+03</pdfrwt>
<pdfrwt beam="2">  1       -1 0.44808122E-01 0.27607551E+03</pdfrwt>
<totfact> 0.31855192E+03</totfact>
</mgrwt>
</event>
<event>
 9    1  0.2073852E-002  0.2753200E+03  0.7818608E-02  0.1098273E+00
         -2   -1    0    0    0  501 -0.00000000000E+00  0.00000000000E+00  0.59523448805E+02  0.59523448805E+02  0.00000000000E+00 0. -1.
          2   -1    0    0  501    0  0.00000000000E+00 -0.00000000000E+00 -0.31836651862E+03  0.31836651862E+03  0.00000000000E+00 0. -1.
         36    2    1    2    0    0  0.71054273576E-14  0.71054273576E-14 -0.25884306981E+03  0.37788996742E+03  0.27531998236E+03 0.  0.
         25    2    3    3    0    0  0.16045513380E+02  0.51412149252E+02 -0.16771428234E+03  0.21609792244E+03  0.12517812905E+03 0.  0.
         25    2    3    3    0    0 -0.16045513380E+02 -0.51412149252E+02 -0.91128787472E+02  0.16179204498E+03  0.12235825400E+03 0.  0.
          5    1    4    4  502    0  0.31012069896E+02  0.53522688503E+01  0.87885131970E+01  0.33010956140E+02  0.47000000000E+01 0.  1.
         -5    1    4    4    0  502 -0.14966556516E+02  0.46059880402E+02 -0.17650279554E+03  0.18308696630E+03  0.47000000000E+01 0.  1.
          5    1    5    5  503    0  0.48170228490E+01 -0.88053616733E+02 -0.76734397662E+02  0.11699102920E+03  0.47000000000E+01 0.  1.
         -5    1    5    5    0  503 -0.20862536229E+02  0.36641467481E+02 -0.14394389810E+02  0.44801015782E+02  0.47000000000E+01 0.  1.
<mgrwt>
<rscale>  0 0.27531998E+03</rscale>
<asrwt>0</asrwt>
<pdfrwt beam="1">  1        2 0.48979463E-01 0.27531998E+03</pdfrwt>
<pdfrwt beam="2">  1       -2 0.91574539E-02 0.27531998E+03</pdfrwt>
<totfact> 0.77689446E+03</totfact>
</mgrwt>
</event>
<event>
 9    1  0.2073852E-002  0.2757465E+03  0.7818608E-02  0.1098035E+00
          1   -1    0    0  501    0  0.00000000000E+00  0.00000000000E+00  0.30732962237E+03  0.30732962237E+03  0.00000000000E+00 0. -1.
         -1   -1    0    0    0  501 -0.00000000000E+00 -0.00000000000E+00 -0.61852264659E+02  0.61852264659E+02  0.00000000000E+00 0. -1.
         36    2    1    2    0    0  0.00000000000E+00  0.35527136788E-14  0.24547735772E+03  0.36918188703E+03  0.27574650054E+03 0.  0.
         25    2    3    3    0    0  0.64050534558E+02  0.17559904839E+02  0.14066501772E+03  0.19939903901E+03  0.12474978282E+03 0.  0.
         25    2    3    3    0    0 -0.64050534558E+02 -0.17559904839E+02  0.10481234000E+03  0.16978284802E+03  0.11588687429E+03 0.  0.
          5    1    4    4  502    0 -0.33901302910E+02 -0.20515214554E+01  0.11756050646E+02  0.36246404044E+02  0.47000000000E+01 0. -1.
         -5    1    4    4    0  502  0.97951837469E+02  0.19611426294E+02  0.12890896707E+03  0.16315263497E+03  0.47000000000E+01 0. -1.
          5    1    5    5  503    0  0.29727361975E+02 -0.92752694472E+01  0.54475724769E+02  0.62924091272E+02  0.47000000000E+01 0.  1.
         -5    1    5    5    0  503 -0.93777896533E+02 -0.82846353914E+01  0.50336615228E+02  0.10685875675E+03  0.47000000000E+01 0.  1.
<mgrwt>
<rscale>  0 0.27574650E+03</rscale>
<asrwt>0</asrwt>
<pdfrwt beam="1">  1        1 0.47281480E-01 0.27574650E+03</pdfrwt>
<pdfrwt beam="2">  1       -1 0.95157332E-02 0.27574650E+03</pdfrwt>
<totfact> 0.55591112E+03</totfact>
</mgrwt>
</event>
<event>
 9    1  0.2073852E-002  0.2705051E+03  0.7818608E-02  0.1100991E+00
         -1   -1    0    0    0  501 -0.00000000000E+00  0.00000000000E+00  0.70022954453E+01  0.70022954453E+01  0.00000000000E+00 0.  1.
          1   -1    0    0  501    0  0.00000000000E+00 -0.00000000000E+00 -0.26124652589E+04  0.26124652589E+04  0.00000000000E+00 0.  1.
         36    2    1    2    0    0  0.00000000000E+00  0.17763568394E-14 -0.26054629634E+04  0.26194675543E+04  0.27050510963E+03 0.  0.
         25    2    3    3    0    0 -0.47031569270E+01 -0.93129091842E+01 -0.80720147481E+03  0.81652870342E+03  0.12262158294E+03 0.  0.
         25    2    3    3    0    0  0.47031569270E+01  0.93129091842E+01 -0.17982614886E+04  0.18029388509E+04  0.12936486652E+03 0.  0.
          5    1    4    4  502    0  0.38439454080E+02 -0.94520177864E+01 -0.69627252618E+03  0.69741268484E+03  0.47000000000E+01 0. -1.
         -5    1    4    4    0  502 -0.43142611007E+02  0.13910860221E+00 -0.11092894864E+03  0.11911601858E+03  0.47000000000E+01 0. -1.
          5    1    5    5  503    0  0.55553714382E+02  0.10592563635E+02 -0.14329207947E+04  0.14340441107E+04  0.47000000000E+01 0. -1.
         -5    1    5    5    0  503 -0.50850557455E+02 -0.12796544510E+01 -0.36534069398E+03  0.36889474026E+03  0.47000000000E+01 0. -1.
<mgrwt>
<rscale>  0 0.27050511E+03</rscale>
<asrwt>0</asrwt>
<pdfrwt beam="1">  1        1 0.40191786E+00 0.27050511E+03</pdfrwt>
<pdfrwt beam="2">  1       -1 0.10772759E-02 0.27050511E+03</pdfrwt>
<totfact> 0.22528180E+03</totfact>
</mgrwt>
</event>
<event>
 9    1  0.2073852E-002  0.2764771E+03  0.7818608E-02  0.1097629E+00
         -2   -1    0    0    0  501 -0.00000000000E+00  0.00000000000E+00  0.40558059338E+02  0.40558059338E+02  0.00000000000E+00 0. -1.
          2   -1    0    0  501    0  0.00000000000E+00 -0.00000000000E+00 -0.47117374933E+03  0.47117374933E+03  0.00000000000E+00 0. -1.
         36    2    1    2    0    0  0.00000000000E+00 -0.71054273576E-14 -0.43061568999E+03  0.51173180866E+03  0.27647707235E+03 0.  0.
         25    2    3    3    0    0 -0.10435379898E+02  0.59015945722E+02 -0.21760133447E+03  0.25786832490E+03  0.12471548909E+03 0.  0.
         25    2    3    3    0    0  0.10435379898E+02 -0.59015945722E+02 -0.21301435552E+03  0.25386348377E+03  0.12441773881E+03 0.  0.
          5    1    4    4  502    0 -0.12791146048E+02 -0.26289217391E+02 -0.67743371171E+01  0.30376273827E+02  0.47000000000E+01 0.  1.
         -5    1    4    4    0  502  0.23557661496E+01  0.85305163113E+02 -0.21082699735E+03  0.22749205107E+03  0.47000000000E+01 0.  1.
          5    1    5    5  503    0 -0.19227282976E+02  0.46309398572E+01 -0.17036229198E+03  0.17157078581E+03  0.47000000000E+01 0.  1.
         -5    1    5    5    0  503  0.29662662874E+02 -0.63646885579E+02 -0.42652063536E+02  0.82292697954E+02  0.47000000000E+01 0.  1.
<mgrwt>
<rscale>  0 0.27647707E+03</rscale>
<asrwt>0</asrwt>
<pdfrwt beam="1">  1        2 0.72488274E-01 0.27647707E+03</pdfrwt>
<pdfrwt beam="2">  1       -2 0.62397010E-02 0.27647707E+03</pdfrwt>
<totfact> 0.92195694E+03</totfact>
</mgrwt>
</event>
<event>
 9    1  0.2073852E-002  0.2792019E+03  0.7818608E-02  0.1096126E+00
          1   -1    0    0  501    0  0.00000000000E+00  0.00000000000E+00  0.71311778936E+03  0.71311778936E+03  0.00000000000E+00 0.  1.
         -1   -1    0    0    0  501 -0.00000000000E+00 -0.00000000000E+00 -0.27328473820E+02  0.27328473820E+02  0.00000000000E+00 0.  1.
         36    2    1    2    0    0  0.00000000000E+00  0.53290705182E-14  0.68578931554E+03  0.74044626318E+03  0.27920186846E+03 0.  0.
         25    2    3    3    0    0  0.14203872007E+02  0.26493526762E+00  0.18243640329E+03  0.22178242143E+03  0.12530993991E+03 0.  0.
         25    2    3    3    0    0 -0.14203872007E+02 -0.26493526762E+00  0.50335291225E+03  0.51866384175E+03  0.12428276750E+03 0.  0.
          5    1    4    4  502    0 -0.37318782573E+02 -0.32775787461E+02  0.31916127696E+02  0.59225610876E+02  0.47000000000E+01 0.  1.
         -5    1    4    4    0  502  0.51522654580E+02  0.33040722729E+02  0.15052027559E+03  0.16255681056E+03  0.47000000000E+01 0.  1.
          5    1    5    5  503    0 -0.12586400847E+02 -0.10129535268E+02  0.50681011802E+03  0.50708935179E+03  0.47000000000E+01 0. -1.
         -5    1    5    5    0  503 -0.16174711601E+01  0.98646000003E+01 -0.34572057688E+01  0.11574489961E+02  0.47000000000E+01 0. -1.
<mgrwt>
<rscale>  0 0.27920187E+03</rscale>
<asrwt>0</asrwt>
<pdfrwt beam="1">  1        1 0.10971042E+00 0.27920187E+03</pdfrwt>
<pdfrwt beam="2">  1       -1 0.42043811E-02 0.27920187E+03</pdfrwt>
<totfact> 0.62481339E+03</totfact>
</mgrwt>
</event>
<event>
 9    1  0.2073852E-002  0.2766548E+03  0.7818608E-02  0.1097530E+00
         -3   -1    0    0    0  501 -0.00000000000E+00  0.00000000000E+00  0.18214405087E+03  0.18214405087E+03  0.00000000000E+00 0.  1.
          3   -1    0    0  501    0  0.00000000000E+00 -0.00000000000E+00 -0.10505132449E+03  0.10505132449E+03  0.00000000000E+00 0.  1.
         36    2    1    2    0    0  0.14210854715E-13 -0.14210854715E-13  0.77092726376E+02  0.28719537535E+03  0.27665483037E+03 0.  0.
         25    2    3    3    0    0  0.35048653937E+02  0.69042327281E+02  0.21186954618E+02  0.12359074157E+03  0.93970917075E+02 0.  0.
         25    2    3    3    0    0 -0.35048653937E+02 -0.69042327281E+02  0.55905771758E+02  0.16360463379E+03  0.13283738097E+03 0.  0.
          5    1    4    4  502    0  0.46653834355E+02  0.42143315586E+01  0.31666834486E+02  0.56738164025E+02  0.47000000000E+01 0. -1.
         -5    1    4    4    0  502 -0.11605180418E+02  0.64827995723E+02 -0.10479879868E+02  0.66852577542E+02  0.47000000000E+01 0. -1.
          5    1    5    5  503    0 -0.85233738126E+02 -0.50756210266E+02  0.28139066022E+02  0.10322247833E+03  0.47000000000E+01 0. -1.
         -5    1    5    5    0  503  0.50185084189E+02 -0.18286117015E+02  0.27766705736E+02  0.60382155460E+02  0.47000000000E+01 0. -1.
<mgrwt>
<rscale>  0 0.27665483E+03</rscale>
<asrwt>0</asrwt>
<pdfrwt beam="1">  1        3 0.16161742E-01 0.27665483E+03</pdfrwt>
<pdfrwt beam="2">  1       -3 0.28022162E-01 0.27665483E+03</pdfrwt>
<totfact> 0.10116115E+03</totfact>
</mgrwt>
</event>
<event>
 9    1  0.2073852E-002  0.2746391E+03  0.7818608E-02  0.1098654E+00
          1   -1    0    0  501    0  0.00000000000E+00  0.00000000000E+00  0.12750755217E+03  0.12750755217E+03  0.00000000000E+00 0. -1.
         -1   -1    0    0    0  501 -0.00000000000E+00 -0.00000000000E+00 -0.14788660327E+03  0.14788660327E+03  0.00000000000E+00 0. -1.
         36    2    1    2    0    0 -0.14210854715E-13  0.00000000000E+00 -0.20379051103E+02  0.27539415544E+03  0.27463909978E+03 0.  0.
         25    2    3    3    0    0  0.39240562779E+02 -0.32426230586E+02 -0.20337050069E+02  0.13766823530E+03  0.12628406554E+03 0.  0.
         25    2    3    3    0    0 -0.39240562779E+02  0.32426230586E+02 -0.42001034489E-01  0.13772592014E+03  0.12797322031E+03 0.  0.
          5    1    4    4  502    0  0.84351658029E+02 -0.25670253305E+02 -0.21064737129E+01  0.88321522566E+02  0.47000000000E+01 0.  1.
         -5    1    4    4    0  502 -0.45111095249E+02 -0.67559772810E+01 -0.18230576356E+02  0.49346712737E+02  0.47000000000E+01 0.  1.
          5    1    5    5  503    0  0.22221211009E+02  0.46192900633E+02 -0.38050380548E+02  0.64011621971E+02  0.47000000000E+01 0. -1.
         -5    1    5    5    0  503 -0.61461773788E+02 -0.13766670047E+02  0.38008379513E+02  0.73714298169E+02  0.47000000000E+01 0. -1.
<mgrwt>
<rscale>  0 0.27463910E+03</rscale>
<asrwt>0</asrwt>
<pdfrwt beam="1">  1        1 0.19616546E-01 0.27463910E+03</pdfrwt>
<pdfrwt beam="2">  1       -1 0.22751785E-01 0.27463910E+03</pdfrwt>
<totfact> 0.42416070E+03</totfact>
</mgrwt>
</event>
<event>
 9    1  0.2073852E-002  0.2739099E+03  0.7818608E-02  0.1099062E+00
          2   -1    0    0  501    0  0.00000000000E+00  0.00000000000E+00  0.55797923589E+02  0.55797923589E+02  0.00000000000E+00 0. -1.
         -2   -1    0    0    0  501 -0.00000000000E+00 -0.00000000000E+00 -0.33615336764E+03  0.33615336764E+03  0.00000000000E+00 0. -1.
         36    2    1    2    0    0  0.00000000000E+00 -0.35527136788E-14 -0.28035544405E+03  0.39195129123E+03  0.27390991163E+03 0.  0.
         25    2    3    3    0    0 -0.82711782194E+01  0.28278003460E+02 -0.22841052638E+03  0.25065782473E+03  0.98944017856E+02 0.  0.
         25    2    3    3    0    0  0.82711782194E+01 -0.28278003460E+02 -0.51944917668E+02  0.14129346649E+03  0.12805276777E+03 0.  0.
          5    1    4    4  502    0 -0.45652007278E+02  0.56639162656E+01 -0.55440302023E+02  0.72193509434E+02  0.47000000000E+01 0. -1.
         -5    1    4    4    0  502  0.37380829059E+02  0.22614087195E+02 -0.17297022436E+03  0.17846431530E+03  0.47000000000E+01 0. -1.
          5    1    5    5  503    0 -0.20913754327E+02  0.13393787621E+02  0.33362697406E+02  0.41856161376E+02  0.47000000000E+01 0.  1.
         -5    1    5    5    0  503  0.29184932546E+02 -0.41671791081E+02 -0.85307615074E+02  0.99437305119E+02  0.47000000000E+01 0.  1.
<mgrwt>
<rscale>  0 0.27390991E+03</rscale>
<asrwt>0</asrwt>
<pdfrwt beam="1">  1        2 0.85842963E-02 0.27390991E+03</pdfrwt>
<pdfrwt beam="2">  1       -2 0.51715901E-01 0.27390991E+03</pdfrwt>
<totfact> 0.27784714E+03</totfact>
</mgrwt>
</event>
<event>
 9    1  0.2073852E-002  0.2755312E+03  0.7818608E-02  0.1098155E+00
         -2   -1    0    0    0  501 -0.00000000000E+00  0.00000000000E+00  0.46030667932E+01  0.46030667932E+01  0.00000000000E+00 0.  1.
          2   -1    0    0  501    0  0.00000000000E+00 -0.00000000000E+00 -0.41231983026E+04  0.41231983026E+04  0.00000000000E+00 0.  1.
         36    2    1    2    0    0  0.00000000000E+00  0.71054273576E-14 -0.41185952358E+04  0.41278013694E+04  0.27553117565E+03 0.  0.
         25    2    3    3    0    0 -0.32073231877E+02 -0.61701760084E+01 -0.13599749746E+04  0.13660653848E+04  0.12464325420E+03 0.  0.
         25    2    3    3    0    0  0.32073231877E+02  0.61701760084E+01 -0.27586202612E+04  0.27617359845E+04  0.12701629665E+03 0.  0.
          5    1    4    4  502    0  0.19265009883E+02 -0.37520314531E+02 -0.19666674770E+03  0.20119347469E+03  0.47000000000E+01 0. -1.
         -5    1    4    4    0  502 -0.51338241760E+02  0.31350138523E+02 -0.11633082269E+04  0.11648719102E+04  0.47000000000E+01 0. -1.
          5    1    5    5  503    0  0.26329260871E+02  0.58708820927E+02 -0.20967569758E+04  0.20977492369E+04  0.47000000000E+01 0.  1.
         -5    1    5    5    0  503  0.57439710059E+01 -0.52538644918E+02 -0.66186328542E+03  0.66398674761E+03  0.47000000000E+01 0.  1.
<mgrwt>
<rscale>  0 0.27553118E+03</rscale>
<asrwt>0</asrwt>
<pdfrwt beam="1">  1        2 0.63434043E+00 0.27553118E+03</pdfrwt>
<pdfrwt beam="2">  1       -2 0.70816163E-03 0.27553118E+03</pdfrwt>
<totfact> 0.12590991E+03</totfact>
</mgrwt>
</event>
<event>
 9    1  0.2073852E-002  0.2749157E+03  0.7818608E-02  0.1098499E+00
          1   -1    0    0  501    0  0.00000000000E+00  0.00000000000E+00  0.55699420893E+03  0.55699420893E+03  0.00000000000E+00 0. -1.
         -1   -1    0    0    0  501 -0.00000000000E+00 -0.00000000000E+00 -0.33922550422E+02  0.33922550422E+02  0.00000000000E+00 0. -1.
         36    2    1    2    0    0  0.00000000000E+00  0.35527136788E-14  0.52307165851E+03  0.59091675935E+03  0.27491572627E+03 0.  0.
         25    2    3    3    0    0 -0.15701326732E+02 -0.68237352444E+01  0.16039341909E+03  0.20597210837E+03  0.12808343185E+03 0.  0.
         25    2    3    3    0    0  0.15701326732E+02  0.68237352444E+01  0.36267823942E+03  0.38494465098E+03  0.12788191409E+03 0.  0.
          5    1    4    4  502    0 -0.27998128298E+02 -0.14812541510E+02 -0.11022595371E+02  0.33865826180E+02  0.47000000000E+01 0. -1.
         -5    1    4    4    0  502  0.12296801566E+02  0.79888062653E+01  0.17141601446E+03  0.17210628219E+03  0.47000000000E+01 0. -1.
          5    1    5    5  503    0  0.41336930611E+02 -0.49250726461E+02  0.14568392658E+03  0.15931187135E+03  0.47000000000E+01 0.  1.
         -5    1    5    5    0  503 -0.25635603879E+02  0.56074461706E+02  0.21699431283E+03  0.22563277963E+03  0.47000000000E+01 0.  1.
<mgrwt>
<rscale>  0 0.27491573E+03</rscale>
<asrwt>0</asrwt>
<pdfrwt beam="1">  1        1 0.85691410E-01 0.27491573E+03</pdfrwt>
<pdfrwt beam="2">  1       -1 0.52188543E-02 0.27491573E+03</pdfrwt>
<totfact> 0.64076752E+03</totfact>
</mgrwt>
</event>
<event>
 9    1  0.2073852E-002  0.2756083E+03  0.7818608E-02  0.1098112E+00
         -2   -1    0    0    0  501 -0.00000000000E+00  0.00000000000E+00  0.28464261579E+04  0.28464261579E+04  0.00000000000E+00 0. -1.
          2   -1    0    0  501    0  0.00000000000E+00 -0.00000000000E+00 -0.66715170299E+01  0.66715170299E+01  0.00000000000E+00 0. -1.
         36    2    1    2    0    0  0.71054273576E-14 -0.71054273576E-14  0.28397546409E+04  0.28530976750E+04  0.27560827699E+03 0.  0.
         25    2    3    3    0    0 -0.24067478811E+02  0.52111381559E+02  0.13857432936E+04  0.13925616437E+04  0.12509442918E+03 0.  0.
         25    2    3    3    0    0  0.24067478811E+02 -0.52111381559E+02  0.14540113473E+04  0.14605360313E+04  0.12538604712E+03 0.  0.
          5    1    4    4  502    0  0.46837276011E+02  0.92082862037E+01  0.31803795671E+03  0.32163450510E+03  0.47000000000E+01 0.  1.
         -5    1    4    4    0  502 -0.70904754822E+02  0.42903095355E+02  0.10677053369E+04  0.10709271386E+04  0.47000000000E+01 0.  1.
          5    1    5    5  503    0  0.39452433614E+02 -0.88905209241E+02  0.97962504557E+03  0.98445312263E+03  0.47000000000E+01 0.  1.
         -5    1    5    5    0  503 -0.15384954803E+02  0.36793827682E+02  0.47438630177E+03  0.47608290863E+03  0.47000000000E+01 0.  1.
<mgrwt>
<rscale>  0 0.27560828E+03</rscale>
<asrwt>0</asrwt>
<pdfrwt beam="1">  1        2 0.10263895E-02 0.27560828E+03</pdfrwt>
<pdfrwt beam="2">  1       -2 0.43791075E+00 0.27560828E+03</pdfrwt>
<totfact> 0.71331622E+01</totfact>
</mgrwt>
</event>
<event>
 9    1  0.2073852E-002  0.2739780E+03  0.7818608E-02  0.1099024E+00
          2   -1    0    0  501    0  0.00000000000E+00  0.00000000000E+00  0.11927756674E+04  0.11927756674E+04  0.00000000000E+00 0. -1.
         -2   -1    0    0    0  501 -0.00000000000E+00 -0.00000000000E+00 -0.15733037004E+02  0.15733037004E+02  0.00000000000E+00 0. -1.
         36    2    1    2    0    0 -0.14210854715E-13 -0.35527136788E-14  0.11770426304E+04  0.12085087044E+04  0.27397798241E+03 0.  0.
         25    2    3    3    0    0 -0.52258121216E+02 -0.27003331117E+02  0.70458418544E+03  0.71643402685E+03  0.11566654370E+03 0.  0.
         25    2    3    3    0    0  0.52258121216E+02  0.27003331117E+02  0.47245844492E+03  0.49207467752E+03  0.12433991698E+03 0.  0.
          5    1    4    4  502    0 -0.39406424112E+02  0.39581356751E+02  0.42624370480E+03  0.42991317256E+03  0.47000000000E+01 0.  1.
         -5    1    4    4    0  502 -0.12851697104E+02 -0.66584687869E+02  0.27834048064E+03  0.28652085428E+03  0.47000000000E+01 0.  1.
          5    1    5    5  503    0  0.32642966894E+02  0.23795727890E+02  0.33631737255E+02  0.52772944813E+02  0.47000000000E+01 0.  1.
         -5    1    5    5    0  503  0.19615154322E+02  0.32076032273E+01  0.43882670767E+03  0.43930173271E+03  0.47000000000E+01 0.  1.
<mgrwt>
<rscale>  0 0.27397798E+03</rscale>
<asrwt>0</asrwt>
<pdfrwt beam="1">  1        2 0.18350388E+00 0.27397798E+03</pdfrwt>
<pdfrwt beam="2">  1       -2 0.24204682E-02 0.27397798E+03</pdfrwt>
<totfact> 0.11743832E+04</totfact>
</mgrwt>
</event>
<event>
 9    1  0.2073852E-002  0.2769348E+03  0.7818608E-02  0.1097375E+00
          2   -1    0    0  501    0  0.00000000000E+00  0.00000000000E+00  0.55457618007E+03  0.55457618007E+03  0.00000000000E+00 0.  1.
         -2   -1    0    0    0  501 -0.00000000000E+00 -0.00000000000E+00 -0.34572734033E+02  0.34572734033E+02  0.00000000000E+00 0.  1.
         36    2    1    2    0    0  0.00000000000E+00  0.00000000000E+00  0.52000344604E+03  0.58914891410E+03  0.27693475603E+03 0.  0.
         25    2    3    3    0    0  0.44063575902E+02 -0.41243458308E+02  0.26111883300E+03  0.29503935505E+03  0.12337971674E+03 0.  0.
         25    2    3    3    0    0 -0.44063575902E+02  0.41243458308E+02  0.25888461303E+03  0.29410955905E+03  0.12584342767E+03 0.  0.
          5    1    4    4  502    0  0.68657848186E+02 -0.42744735105E+02  0.25719212471E+03  0.26964957168E+03  0.47000000000E+01 0. -1.
         -5    1    4    4    0  502 -0.24594272284E+02  0.15012767970E+01  0.39267082948E+01  0.25389783363E+02  0.47000000000E+01 0. -1.
          5    1    5    5  503    0 -0.36116954358E+02 -0.23965361690E+02  0.20331980607E+03  0.20794183440E+03  0.47000000000E+01 0. -1.
         -5    1    5    5    0  503 -0.79466215441E+01  0.65208819998E+02  0.55564806961E+02  0.86167724654E+02  0.47000000000E+01 0. -1.
<mgrwt>
<rscale>  0 0.27693476E+03</rscale>
<asrwt>0</asrwt>
<pdfrwt beam="1">  1        2 0.85319406E-01 0.27693476E+03</pdfrwt>
<pdfrwt beam="2">  1       -2 0.53188826E-02 0.27693476E+03</pdfrwt>
<totfact> 0.98030915E+03</totfact>
</mgrwt>
</event>
<event>
 9    1  0.2073852E-002  0.2743697E+03  0.7818608E-02  0.1098804E+00
          3   -1    0    0  501    0  0.00000000000E+00  0.00000000000E+00  0.11998677527E+04  0.11998677527E+04  0.00000000000E+00 0.  1.
         -3   -1    0    0    0  501 -0.00000000000E+00 -0.00000000000E+00 -0.15684793604E+02  0.15684793604E+02  0.00000000000E+00 0.  1.
         36    2    1    2    0    0  0.35527136788E-14  0.35527136788E-14  0.11841829591E+04  0.12155525463E+04  0.27436966344E+03 0.  0.
         25    2    3    3    0    0 -0.31078020853E+02  0.30949106770E+02  0.48071396075E+03  0.49981708688E+03  0.12964381082E+03 0.  0.
         25    2    3    3    0    0  0.31078020853E+02 -0.30949106770E+02  0.70346899836E+03  0.71573545944E+03  0.12443844124E+03 0.  0.
          5    1    4    4  502    0 -0.56754851541E+02 -0.43072720109E+01  0.42541324557E+03  0.42922975814E+03  0.47000000000E+01 0. -1.
         -5    1    4    4    0  502  0.25676830688E+02  0.35256378781E+02  0.55300715178E+02  0.70587328737E+02  0.47000000000E+01 0. -1.
          5    1    5    5  503    0 -0.31514835975E+02 -0.55753067703E+02  0.36429838788E+03  0.36991484812E+03  0.47000000000E+01 0.  1.
         -5    1    5    5    0  503  0.62592856828E+02  0.24803960933E+02  0.33917061048E+03  0.34582061133E+03  0.47000000000E+01 0.  1.
<mgrwt>
<rscale>  0 0.27436966E+03</rscale>
<asrwt>0</asrwt>
<pdfrwt beam="1">  1        3 0.18459497E+00 0.27436966E+03</pdfrwt>
<pdfrwt beam="2">  1       -3 0.24130461E-02 0.27436966E+03</pdfrwt>
<totfact> 0.36158144E+02</totfact>
</mgrwt>
</event>
<event>
 9    1  0.2073852E-002  0.2745905E+03  0.7818608E-02  0.1098681E+00
         -2   -1    0    0    0  501 -0.00000000000E+00  0.00000000000E+00  0.20149842460E+02  0.20149842460E+02  0.00000000000E+00 0. -1.
          2   -1    0    0  501    0  0.00000000000E+00 -0.00000000000E+00 -0.93549053953E+03  0.93549053953E+03  0.00000000000E+00 0. -1.
         36    2    1    2    0    0 -0.71054273576E-14  0.00000000000E+00 -0.91534069707E+03  0.95564038199E+03  0.27459050963E+03 0.  0.
         25    2    3    3    0    0 -0.44028177599E+01  0.48852469817E+02 -0.50504496345E+03  0.52477989455E+03  0.13385654263E+03 0.  0.
         25    2    3    3    0    0  0.44028177599E+01 -0.48852469817E+02 -0.41029573362E+03  0.43086048744E+03  0.12203369207E+03 0.  0.
          5    1    4    4  502    0 -0.66359468396E+02  0.37015616053E+02 -0.32969600005E+03  0.33837150785E+03  0.47000000000E+01 0. -1.
         -5    1    4    4    0  502  0.61956650636E+02  0.11836853764E+02 -0.17534896340E+03  0.18640838670E+03  0.47000000000E+01 0. -1.
          5    1    5    5  503    0  0.31018316707E+02 -0.47058761238E+02 -0.39640551047E+03  0.40041988177E+03  0.47000000000E+01 0.  1.
         -5    1    5    5    0  503 -0.26615498947E+02 -0.17937085791E+01 -0.13890223142E+02  0.30440605671E+02  0.47000000000E+01 0.  1.
<mgrwt>
<rscale>  0 0.27459051E+03</rscale>
<asrwt>0</asrwt>
<pdfrwt beam="1">  1        2 0.14392160E+00 0.27459051E+03</pdfrwt>
<pdfrwt beam="2">  1       -2 0.30999762E-02 0.27459051E+03</pdfrwt>
<totfact> 0.11590084E+04</totfact>
</mgrwt>
</event>
<event>
 9    1  0.2073852E-002  0.2759225E+03  0.7818608E-02  0.1097937E+00
         -2   -1    0    0    0  501 -0.00000000000E+00  0.00000000000E+00  0.12268179660E+03  0.12268179660E+03  0.00000000000E+00 0.  1.
          2   -1    0    0  501    0  0.00000000000E+00 -0.00000000000E+00 -0.15514373121E+03  0.15514373121E+03  0.00000000000E+00 0.  1.
         36    2    1    2    0    0  0.35527136788E-14 -0.71054273576E-14 -0.32461934611E+02  0.27782552780E+03  0.27592253750E+03 0.  0.
         25    2    3    3    0    0 -0.28622651515E+02 -0.74648782628E+01  0.28641482839E+02  0.13563071590E+03  0.12922993450E+03 0.  0.
         25    2    3    3    0    0  0.28622651515E+02  0.74648782628E+01 -0.61103417450E+02  0.14219481190E+03  0.12494301229E+03 0.  0.
          5    1    4    4  502    0  0.34870417881E+02  0.39602711496E+02  0.16791010146E+02  0.55572914471E+02  0.47000000000E+01 0. -1.
         -5    1    4    4    0  502 -0.63493069396E+02 -0.47067589759E+02  0.11850472693E+02  0.80057801432E+02  0.47000000000E+01 0. -1.
          5    1    5    5  503    0  0.38373272071E+02 -0.51870754407E+02 -0.15348176907E+02  0.66488643440E+02  0.47000000000E+01 0.  1.
         -5    1    5    5    0  503 -0.97506205561E+01  0.59335632670E+02 -0.45755240543E+02  0.75706168459E+02  0.47000000000E+01 0.  1.
<mgrwt>
<rscale>  0 0.27592254E+03</rscale>
<asrwt>0</asrwt>
<pdfrwt beam="1">  1        2 0.23868266E-01 0.27592254E+03</pdfrwt>
<pdfrwt beam="2">  1       -2 0.18874123E-01 0.27592254E+03</pdfrwt>
<totfact> 0.52287261E+03</totfact>
</mgrwt>
</event>
<event>
 9    1  0.2073852E-002  0.2763284E+03  0.7818608E-02  0.1097711E+00
         -3   -1    0    0    0  501 -0.00000000000E+00  0.00000000000E+00  0.23398822623E+03  0.23398822623E+03  0.00000000000E+00 0.  1.
          3   -1    0    0  501    0  0.00000000000E+00 -0.00000000000E+00 -0.81582522044E+02  0.81582522044E+02  0.00000000000E+00 0.  1.
         36    2    1    2    0    0  0.00000000000E+00  0.71054273576E-14  0.15240570419E+03  0.31557074828E+03  0.27632842506E+03 0.  0.
         25    2    3    3    0    0 -0.16480885715E+02  0.45660377571E+01  0.43997148426E+02  0.13475201218E+03  0.12621365782E+03 0.  0.
         25    2    3    3    0    0  0.16480885715E+02 -0.45660377571E+01  0.10840855576E+03  0.18081873610E+03  0.14370292992E+03 0.  0.
          5    1    4    4  502    0 -0.60707164391E+01  0.52479844280E+02 -0.17600113224E+02  0.55882391138E+02  0.47000000000E+01 0. -1.
         -5    1    4    4    0  502 -0.10410169276E+02 -0.47913806523E+02  0.61597261651E+02  0.78869621038E+02  0.47000000000E+01 0. -1.
          5    1    5    5  503    0  0.46797402636E+02  0.45269442583E+02  0.96019203393E+01  0.65981862655E+02  0.47000000000E+01 0. -1.
         -5    1    5    5    0  503 -0.30316516921E+02 -0.49835480340E+02  0.98806635424E+02  0.11483687345E+03  0.47000000000E+01 0. -1.
<mgrwt>
<rscale>  0 0.27632843E+03</rscale>
<asrwt>0</asrwt>
<pdfrwt beam="1">  1        3 0.12551157E-01 0.27632843E+03</pdfrwt>
<pdfrwt beam="2">  1       -3 0.35998188E-01 0.27632843E+03</pdfrwt>
<totfact> 0.97479112E+02</totfact>
</mgrwt>
</event>
<event>
 9    1  0.2073852E-002  0.2770448E+03  0.7818608E-02  0.1097314E+00
          4   -1    0    0  501    0  0.00000000000E+00  0.00000000000E+00  0.29417361742E+03  0.29417361742E+03  0.00000000000E+00 0.  1.
         -4   -1    0    0    0  501 -0.00000000000E+00 -0.00000000000E+00 -0.65228313437E+02  0.65228313437E+02  0.00000000000E+00 0.  1.
         36    2    1    2    0    0  0.00000000000E+00 -0.17763568394E-14  0.22894530398E+03  0.35940193085E+03  0.27704475394E+03 0.  0.
         25    2    3    3    0    0 -0.34710101023E+02 -0.15652543892E+02  0.16876254874E+03  0.21659302629E+03  0.13031480322E+03 0.  0.
         25    2    3    3    0    0  0.34710101023E+02  0.15652543892E+02  0.60182755244E+02  0.14280890457E+03  0.12378459497E+03 0.  0.
          5    1    4    4  502    0  0.18706676045E+02 -0.25807978037E+02 -0.66396071915E+01  0.32896289193E+02  0.47000000000E+01 0.  1.
         -5    1    4    4    0  502 -0.53416777068E+02  0.10155434145E+02  0.17540215593E+03  0.18369673709E+03  0.47000000000E+01 0.  1.
          5    1    5    5  503    0  0.91972959843E+01 -0.40023866778E+02  0.69320978930E+02  0.80709282521E+02  0.47000000000E+01 0. -1.
         -5    1    5    5    0  503  0.25512805039E+02  0.55676410670E+02 -0.91382236853E+01  0.62099622045E+02  0.47000000000E+01 0. -1.
<mgrwt>
<rscale>  0 0.27704475E+03</rscale>
<asrwt>0</asrwt>
<pdfrwt beam="1">  1        4 0.45257479E-01 0.27704475E+03</pdfrwt>
<pdfrwt beam="2">  1       -4 0.10035125E-01 0.27704475E+03</pdfrwt>
<totfact> 0.67248216E+02</totfact>
</mgrwt>
</event>
<event>
 9    1  0.2073852E-002  0.2769486E+03  0.7818608E-02  0.1097367E+00
          1   -1    0    0  501    0  0.00000000000E+00  0.00000000000E+00  0.16187097300E+03  0.16187097300E+03  0.00000000000E+00 0. -1.
         -1   -1    0    0    0  501 -0.00000000000E+00 -0.00000000000E+00 -0.11845937238E+03  0.11845937238E+03  0.00000000000E+00 0. -1.
         36    2    1    2    0    0  0.00000000000E+00  0.00000000000E+00  0.43411600620E+02  0.28033034538E+03  0.27694861522E+03 0.  0.
         25    2    3    3    0    0  0.34383542186E+02 -0.20418666432E+02  0.10192375365E+02  0.14516207080E+03  0.13917252735E+03 0.  0.
         25    2    3    3    0    0 -0.34383542186E+02  0.20418666432E+02  0.33219225255E+02  0.13516827458E+03  0.12477097264E+03 0.  0.
          5    1    4    4  502    0  0.39541672036E+02  0.10500008866E+02  0.67848283770E+02  0.79367963462E+02  0.47000000000E+01 0. -1.
         -5    1    4    4    0  502 -0.51581298503E+01 -0.30918675298E+02 -0.57655908405E+02  0.65794107333E+02  0.47000000000E+01 0. -1.
          5    1    5    5  503    0 -0.61126982768E+02  0.57838427293E+02  0.15744254336E+02  0.85742423798E+02  0.47000000000E+01 0. -1.
         -5    1    5    5    0  503  0.26743440582E+02 -0.37419760861E+02  0.17474970919E+02  0.49425850784E+02  0.47000000000E+01 0. -1.
<mgrwt>
<rscale>  0 0.27694862E+03</rscale>
<asrwt>0</asrwt>
<pdfrwt beam="1">  1        1 0.24903227E-01 0.27694862E+03</pdfrwt>
<pdfrwt beam="2">  1       -1 0.18224519E-01 0.27694862E+03</pdfrwt>
<totfact> 0.44854476E+03</totfact>
</mgrwt>
</event>
<event>
 9    1  0.2073852E-002  0.2761099E+03  0.7818608E-02  0.1097833E+00
          2   -1    0    0  501    0  0.00000000000E+00  0.00000000000E+00  0.15332531674E+03  0.15332531674E+03  0.00000000000E+00 0. -1.
         -2   -1    0    0    0  501 -0.00000000000E+00 -0.00000000000E+00 -0.12430542070E+03  0.12430542070E+03  0.00000000000E+00 0. -1.
         36    2    1    2    0    0  0.00000000000E+00  0.00000000000E+00  0.29019896039E+02  0.27763073743E+03  0.27610989117E+03 0.  0.
         25    2    3    3    0    0 -0.44819033867E+02  0.27409032057E+02 -0.18270904573E+02  0.13509206908E+03  0.12310987101E+03 0.  0.
         25    2    3    3    0    0  0.44819033867E+02 -0.27409032057E+02  0.47290800612E+02  0.14253866835E+03  0.12377742653E+03 0.  0.
          5    1    4    4  502    0  0.22471723367E+02 -0.17684538778E+02  0.29156400544E+02  0.41108477903E+02  0.47000000000E+01 0.  1.
         -5    1    4    4    0  502 -0.67290757234E+02  0.45093570835E+02 -0.47427305116E+02  0.93983591176E+02  0.47000000000E+01 0.  1.
          5    1    5    5  503    0  0.37043469259E+02  0.46298049676E+02  0.28382871746E+02  0.65904517502E+02  0.47000000000E+01 0.  1.
         -5    1    5    5    0  503  0.77755646074E+01 -0.73707081733E+02  0.18907928866E+02  0.76634150851E+02  0.47000000000E+01 0.  1.
<mgrwt>
<rscale>  0 0.27610989E+03</rscale>
<asrwt>0</asrwt>
<pdfrwt beam="1">  1        2 0.23588510E-01 0.27610989E+03</pdfrwt>
<pdfrwt beam="2">  1       -2 0.19123911E-01 0.27610989E+03</pdfrwt>
<totfact> 0.51815061E+03</totfact>
</mgrwt>
</event>
<event>
 9    1  0.2073852E-002  0.2750304E+03  0.7818608E-02  0.1098435E+00
          1   -1    0    0  501    0  0.00000000000E+00  0.00000000000E+00  0.12512570616E+04  0.12512570616E+04  0.00000000000E+00 0.  1.
         -1   -1    0    0    0  501 -0.00000000000E+00 -0.00000000000E+00 -0.15113146444E+02  0.15113146444E+02  0.00000000000E+00 0.  1.
         36    2    1    2    0    0  0.17763568394E-14 -0.71054273576E-14  0.12361439152E+04  0.12663702081E+04  0.27503040713E+03 0.  0.
         25    2    3    3    0    0  0.15992214981E+01  0.50439764567E+02  0.66917095499E+03  0.68273159927E+03  0.12564211983E+03 0.  0.
         25    2    3    3    0    0 -0.15992214981E+01 -0.50439764567E+02  0.56697296020E+03  0.58363860882E+03  0.12895332776E+03 0.  0.
          5    1    4    4  502    0  0.13953147672E+02  0.90204809512E+02  0.39931521173E+03  0.40964170480E+03  0.47000000000E+01 0. -1.
         -5    1    4    4    0  502 -0.12353926174E+02 -0.39765044945E+02  0.26985574326E+03  0.27308989447E+03  0.47000000000E+01 0. -1.
          5    1    5    5  503    0  0.16937461430E+02 -0.90848268847E+02  0.34398425161E+03  0.35621277477E+03  0.47000000000E+01 0. -1.
         -5    1    5    5    0  503 -0.18536682928E+02  0.40408504280E+02  0.22298870859E+03  0.22742583405E+03  0.47000000000E+01 0. -1.
<mgrwt>
<rscale>  0 0.27503041E+03</rscale>
<asrwt>0</asrwt>
<pdfrwt beam="1">  1        1 0.19250101E+00 0.27503041E+03</pdfrwt>
<pdfrwt beam="2">  1       -1 0.23251004E-02 0.27503041E+03</pdfrwt>
<totfact> 0.57944327E+03</totfact>
</mgrwt>
</event>
<event>
 9    1  0.2073852E-002  0.2744112E+03  0.7818608E-02  0.1098781E+00
          4   -1    0    0  501    0  0.00000000000E+00  0.00000000000E+00  0.83115717677E+02  0.83115717677E+02  0.00000000000E+00 0.  1.
         -4   -1    0    0    0  501 -0.00000000000E+00 -0.00000000000E+00 -0.22649600534E+03  0.22649600534E+03  0.00000000000E+00 0.  1.
         36    2    1    2    0    0 -0.71054273576E-14  0.00000000000E+00 -0.14338028767E+03  0.30961172302E+03  0.27441120994E+03 0.  0.
         25    2    3    3    0    0  0.35478244081E+02  0.39036277529E+02 -0.94836212408E+02  0.16344543795E+03  0.12222097708E+03 0.  0.
         25    2    3    3    0    0 -0.35478244081E+02 -0.39036277529E+02 -0.48544075258E+02  0.14616628507E+03  0.12737942880E+03 0.  0.
          5    1    4    4  502    0  0.34686311240E+02  0.64637357664E+02 -0.93716579279E+01  0.74101593542E+02  0.47000000000E+01 0.  1.
         -5    1    4    4    0  502  0.79193284067E+00 -0.25601080134E+02 -0.85464554480E+02  0.89343844411E+02  0.47000000000E+01 0.  1.
          5    1    5    5  503    0  0.32482701352E+02 -0.40198496479E+02  0.13923442729E+02  0.53730785065E+02  0.47000000000E+01 0.  1.
         -5    1    5    5    0  503 -0.67960945433E+02  0.11622189492E+01 -0.62467517988E+02  0.92435500002E+02  0.47000000000E+01 0.  1.
<mgrwt>
<rscale>  0 0.27441121E+03</rscale>
<asrwt>0</asrwt>
<pdfrwt beam="1">  1        4 0.12787034E-01 0.27441121E+03</pdfrwt>
<pdfrwt beam="2">  1       -4 0.34845539E-01 0.27441121E+03</pdfrwt>
<totfact> 0.74426738E+02</totfact>
</mgrwt>
</event>
<event>
 9    1  0.2073852E-002  0.2752521E+03  0.7818608E-02  0.1098311E+00
         -2   -1    0    0    0  501 -0.00000000000E+00  0.00000000000E+00  0.19988280844E+02  0.19988280844E+02  0.00000000000E+00 0.  1.
          2   -1    0    0  501    0  0.00000000000E+00 -0.00000000000E+00 -0.94760172343E+03  0.94760172343E+03  0.00000000000E+00 0.  1.
         36    2    1    2    0    0  0.00000000000E+00  0.00000000000E+00 -0.92761344258E+03  0.96759000427E+03  0.27525209809E+03 0.  0.
         25    2    3    3    0    0  0.16357083681E+02  0.40601285367E+02 -0.34840405949E+03  0.37392495395E+03  0.12852417653E+03 0.  0.
         25    2    3    3    0    0 -0.16357083681E+02 -0.40601285367E+02 -0.57920938309E+03  0.59366505032E+03  0.12263223050E+03 0.  0.
          5    1    4    4  502    0  0.10099905798E+02  0.78290152495E+02 -0.30852823998E+03  0.31850136725E+03  0.47000000000E+01 0. -1.
         -5    1    4    4    0  502  0.62571778831E+01 -0.37688867127E+02 -0.39875819510E+02  0.55423586693E+02  0.47000000000E+01 0. -1.
          5    1    5    5  503    0  0.38459926601E+02 -0.38079688954E+02 -0.12723851274E+03  0.13835085033E+03  0.47000000000E+01 0.  1.
         -5    1    5    5    0  503 -0.54817010282E+02 -0.25215964139E+01 -0.45197087035E+03  0.45531419999E+03  0.47000000000E+01 0.  1.
<mgrwt>
<rscale>  0 0.27525210E+03</rscale>
<asrwt>0</asrwt>
<pdfrwt beam="1">  1        2 0.14578491E+00 0.27525210E+03</pdfrwt>
<pdfrwt beam="2">  1       -2 0.30751194E-02 0.27525210E+03</pdfrwt>
<totfact> 0.11526246E+04</totfact>
</mgrwt>
</event>
<event>
 9    1  0.2073852E-002  0.2765892E+03  0.7818608E-02  0.1097567E+00
         -2   -1    0    0    0  501 -0.00000000000E+00  0.00000000000E+00  0.25495903671E+02  0.25495903671E+02  0.00000000000E+00 0.  1.
          2   -1    0    0  501    0  0.00000000000E+00 -0.00000000000E+00 -0.75013614601E+03  0.75013614601E+03  0.00000000000E+00 0.  1.
         36    2    1    2    0    0  0.00000000000E+00 -0.44408920985E-15 -0.72464024234E+03  0.77563204969E+03  0.27658921829E+03 0.  0.
         25    2    3    3    0    0  0.20751676800E+02  0.13389374198E+01 -0.19247037025E+03  0.22926312314E+03  0.12281820452E+03 0.  0.
         25    2    3    3    0    0 -0.20751676800E+02 -0.13389374198E+01 -0.53216987209E+03  0.54636892655E+03  0.12199100907E+03 0.  0.
          5    1    4    4  502    0  0.55290215414E+02 -0.17698699744E+01 -0.18543531519E+03  0.19356778265E+03  0.47000000000E+01 0.  1.
         -5    1    4    4    0  502 -0.34538538614E+02  0.31088073942E+01 -0.70350550658E+01  0.35695340491E+02  0.47000000000E+01 0.  1.
          5    1    5    5  503    0 -0.27978758614E+02 -0.56699474052E+02 -0.35282233383E+03  0.35847361205E+03  0.47000000000E+01 0. -1.
         -5    1    5    5    0  503  0.72270818147E+01  0.55360536632E+02 -0.17934753826E+03  0.18789531449E+03  0.47000000000E+01 0. -1.
<mgrwt>
<rscale>  0 0.27658922E+03</rscale>
<asrwt>0</asrwt>
<pdfrwt beam="1">  1        2 0.11540555E+00 0.27658922E+03</pdfrwt>
<pdfrwt beam="2">  1       -2 0.39224470E-02 0.27658922E+03</pdfrwt>
<totfact> 0.10860554E+04</totfact>
</mgrwt>
</event>
<event>
 9    1  0.2073852E-002  0.2756354E+03  0.7818608E-02  0.1098097E+00
         -2   -1    0    0    0  501 -0.00000000000E+00  0.00000000000E+00  0.97038621838E+01  0.97038621838E+01  0.00000000000E+00 0. -1.
          2   -1    0    0  501    0  0.00000000000E+00 -0.00000000000E+00 -0.19573360882E+04  0.19573360882E+04  0.00000000000E+00 0. -1.
         36    2    1    2    0    0 -0.14210854715E-13  0.00000000000E+00 -0.19476322260E+04  0.19670399504E+04  0.27563540881E+03 0.  0.
         25    2    3    3    0    0  0.33041812862E+02  0.49189283977E+02 -0.88530597755E+03  0.89601447309E+03  0.12475542091E+03 0.  0.
         25    2    3    3    0    0 -0.33041812862E+02 -0.49189283977E+02 -0.10623262485E+04  0.10710254773E+04  0.12266689764E+03 0.  0.
          5    1    4    4  502    0 -0.42701433161E+02  0.44558712543E+02 -0.37415242857E+03  0.37923742044E+03  0.47000000000E+01 0.  1.
         -5    1    4    4    0  502  0.75743246024E+02  0.46305714336E+01 -0.51115354897E+03  0.51677705264E+03  0.47000000000E+01 0.  1.
          5    1    5    5  503    0 -0.24002659747E+02 -0.70007716875E+02 -0.32573793289E+03  0.33407259544E+03  0.47000000000E+01 0.  1.
         -5    1    5    5    0  503 -0.90391531158E+01  0.20818432899E+02 -0.73658831561E+03  0.73695288189E+03  0.47000000000E+01 0.  1.
<mgrwt>
<rscale>  0 0.27563541E+03</rscale>
<asrwt>0</asrwt>
<pdfrwt beam="1">  1        2 0.30112861E+00 0.27563541E+03</pdfrwt>
<pdfrwt beam="2">  1       -2 0.14929020E-02 0.27563541E+03</pdfrwt>
<totfact> 0.92948189E+03</totfact>
</mgrwt>
</event>
<event>
 9    1  0.2073852E-002  0.2763335E+03  0.7818608E-02  0.1097709E+00
          2   -1    0    0  501    0  0.00000000000E+00  0.00000000000E+00  0.13080447442E+04  0.13080447442E+04  0.00000000000E+00 0.  1.
         -2   -1    0    0    0  501 -0.00000000000E+00 -0.00000000000E+00 -0.14594341187E+02  0.14594341187E+02  0.00000000000E+00 0.  1.
         36    2    1    2    0    0  0.00000000000E+00  0.35527136788E-14  0.12934504030E+04  0.13226390854E+04  0.27633350347E+03 0.  0.
         25    2    3    3    0    0  0.19881805849E+02 -0.25381921125E+02  0.52064792579E+03  0.53938583017E+03  0.13719797022E+03 0.  0.
         25    2    3    3    0    0 -0.19881805849E+02  0.25381921125E+02  0.77280247723E+03  0.78325325523E+03  0.12337935356E+03 0.  0.
          5    1    4    4  502    0  0.61525635036E+02  0.18275886262E+02  0.39160106576E+03  0.39685374697E+03  0.47000000000E+01 0.  1.
         -5    1    4    4    0  502 -0.41643829187E+02 -0.43657807387E+02  0.12904686003E+03  0.14253208319E+03  0.47000000000E+01 0.  1.
          5    1    5    5  503    0 -0.33429007398E+02  0.71550306222E+02  0.46750148091E+03  0.47414836234E+03  0.47000000000E+01 0.  1.
         -5    1    5    5    0  503  0.13547201550E+02 -0.46168385098E+02  0.30530099632E+03  0.30910489289E+03  0.47000000000E+01 0.  1.
<mgrwt>
<rscale>  0 0.27633350E+03</rscale>
<asrwt>0</asrwt>
<pdfrwt beam="1">  1        2 0.20123756E+00 0.27633350E+03</pdfrwt>
<pdfrwt beam="2">  1       -2 0.22452843E-02 0.27633350E+03</pdfrwt>
<totfact> 0.11310209E+04</totfact>
</mgrwt>
</event>
<event>
 9    1  0.2073852E-002  0.2746286E+03  0.7818608E-02  0.1098659E+00
         -2   -1    0    0    0  501 -0.00000000000E+00  0.00000000000E+00  0.11293039772E+02  0.11293039772E+02  0.00000000000E+00 0.  1.
          2   -1    0    0  501    0  0.00000000000E+00 -0.00000000000E+00 -0.16696320211E+04  0.16696320211E+04  0.00000000000E+00 0.  1.
         36    2    1    2    0    0  0.00000000000E+00  0.00000000000E+00 -0.16583389814E+04  0.16809250609E+04  0.27462862793E+03 0.  0.
         25    2    3    3    0    0 -0.16998033153E+02 -0.17370428359E+02 -0.11561894446E+04  0.11633080284E+04  0.12617793825E+03 0.  0.
         25    2    3    3    0    0  0.16998033153E+02  0.17370428359E+02 -0.50214953677E+03  0.51761703256E+03  0.12321757266E+03 0.  0.
          5    1    4    4  502    0 -0.43698186706E+02 -0.27446745181E+02 -0.10880655635E+04  0.10892986807E+04  0.47000000000E+01 0.  1.
         -5    1    4    4    0  502  0.26700153553E+02  0.10076316822E+02 -0.68123881120E+02  0.74009347648E+02  0.47000000000E+01 0.  1.
          5    1    5    5  503    0 -0.19548068600E+02  0.27577963761E+02 -0.34928054797E+02  0.48833698233E+02  0.47000000000E+01 0. -1.
         -5    1    5    5    0  503  0.36546101753E+02 -0.10207535402E+02 -0.46722148197E+03  0.46878333433E+03  0.47000000000E+01 0. -1.
<mgrwt>
<rscale>  0 0.27462863E+03</rscale>
<asrwt>0</asrwt>
<pdfrwt beam="1">  1        2 0.25686638E+00 0.27462863E+03</pdfrwt>
<pdfrwt beam="2">  1       -2 0.17373913E-02 0.27462863E+03</pdfrwt>
<totfact> 0.10541961E+04</totfact>
</mgrwt>
</event>
<event>
 9    1  0.2073852E-002  0.2746596E+03  0.7818608E-02  0.1098642E+00
          1   -1    0    0  501    0  0.00000000000E+00  0.00000000000E+00  0.35654531613E+03  0.35654531613E+03  0.00000000000E+00 0.  1.
         -1   -1    0    0    0  501 -0.00000000000E+00 -0.00000000000E+00 -0.52895013570E+02  0.52895013570E+02  0.00000000000E+00 0.  1.
         36    2    1    2    0    0  0.00000000000E+00  0.00000000000E+00  0.30365030256E+03  0.40944032970E+03  0.27465956626E+03 0.  0.
         25    2    3    3    0    0  0.43088695884E+02 -0.17891229141E+02  0.94675704498E+02  0.16180038171E+03  0.12263418246E+03 0.  0.
         25    2    3    3    0    0 -0.43088695884E+02  0.17891229141E+02  0.20897459806E+03  0.24763994799E+03  0.12441233625E+03 0.  0.
          5    1    4    4  502    0  0.91108565536E+01  0.36246733856E+02 -0.10080564580E+02  0.38994117565E+02  0.47000000000E+01 0. -1.
         -5    1    4    4    0  502  0.33977839330E+02 -0.54137962997E+02  0.10475626908E+03  0.12280626415E+03  0.47000000000E+01 0. -1.
          5    1    5    5  503    0 -0.42690432383E+02  0.32620257616E+02  0.22135423949E+03  0.22782963715E+03  0.47000000000E+01 0.  1.
         -5    1    5    5    0  503 -0.39826350148E+00 -0.14729028474E+02 -0.12379641427E+02  0.19810310837E+02  0.47000000000E+01 0.  1.
<mgrwt>
<rscale>  0 0.27465957E+03</rscale>
<asrwt>0</asrwt>
<pdfrwt beam="1">  1        1 0.54853124E-01 0.27465957E+03</pdfrwt>
<pdfrwt beam="2">  1       -1 0.81376946E-02 0.27465957E+03</pdfrwt>
<totfact> 0.58573406E+03</totfact>
</mgrwt>
</event>
<event>
 9    1  0.2073852E-002  0.2757860E+03  0.7818608E-02  0.1098013E+00
          2   -1    0    0  501    0  0.00000000000E+00  0.00000000000E+00  0.14148374663E+04  0.14148374663E+04  0.00000000000E+00 0. -1.
         -2   -1    0    0    0  501 -0.00000000000E+00 -0.00000000000E+00 -0.13439335582E+02  0.13439335582E+02  0.00000000000E+00 0. -1.
         36    2    1    2    0    0  0.35527136788E-14  0.00000000000E+00  0.14013981307E+04  0.14282768019E+04  0.27578597139E+03 0.  0.
         25    2    3    3    0    0  0.83190708423E+01  0.22971858483E+02  0.98552727963E+03  0.99316582399E+03  0.12048826421E+03 0.  0.
         25    2    3    3    0    0 -0.83190708423E+01 -0.22971858483E+02  0.41587085107E+03  0.43511097788E+03  0.12560288643E+03 0.  0.
          5    1    4    4  502    0 -0.18687132792E+02  0.58372962311E+02  0.79814438387E+03  0.80050806315E+03  0.47000000000E+01 0. -1.
         -5    1    4    4    0  502  0.27006203635E+02 -0.35401103828E+02  0.18738289576E+03  0.19265776084E+03  0.47000000000E+01 0. -1.
          5    1    5    5  503    0 -0.65795893758E+02 -0.23016745977E+00  0.21309805558E+03  0.22307403234E+03  0.47000000000E+01 0. -1.
         -5    1    5    5    0  503  0.57476822916E+02 -0.22741691024E+02  0.20277279549E+03  0.21203694554E+03  0.47000000000E+01 0. -1.
<mgrwt>
<rscale>  0 0.27578597E+03</rscale>
<asrwt>0</asrwt>
<pdfrwt beam="1">  1        2 0.21766718E+00 0.27578597E+03</pdfrwt>
<pdfrwt beam="2">  1       -2 0.20675912E-02 0.27578597E+03</pdfrwt>
<totfact> 0.11163873E+04</totfact>
</mgrwt>
</event>
<event>
 9    1  0.2073852E-002  0.2752080E+03  0.7818608E-02  0.1098335E+00
          2   -1    0    0  501    0  0.00000000000E+00  0.00000000000E+00  0.18972487511E+04  0.18972487511E+04  0.00000000000E+00 0.  1.
         -2   -1    0    0    0  501 -0.00000000000E+00 -0.00000000000E+00 -0.99801680457E+01  0.99801680457E+01  0.00000000000E+00 0.  1.
         36    2    1    2    0    0 -0.71054273576E-14  0.35527136788E-14  0.18872685831E+04  0.19072289192E+04  0.27520800396E+03 0.  0.
         25    2    3    3    0    0 -0.57409635720E+02  0.25230693861E+02  0.93682957050E+03  0.94679316100E+03  0.12179980039E+03 0.  0.
         25    2    3    3    0    0  0.57409635720E+02 -0.25230693861E+02  0.95043901257E+03  0.96043575815E+03  0.12316685733E+03 0.  0.
          5    1    4    4  502    0  0.15023648164E+02  0.28077896065E+02  0.65374547846E+03  0.65453748468E+03  0.47000000000E+01 0. -1.
         -5    1    4    4    0  502 -0.72433283884E+02 -0.28472022041E+01  0.28308409204E+03  0.29225567632E+03  0.47000000000E+01 0. -1.
          5    1    5    5  503    0 -0.38317057115E+02 -0.16452170933E+02  0.28487546153E+03  0.28794962993E+03  0.47000000000E+01 0. -1.
         -5    1    5    5    0  503  0.95726692835E+02 -0.87785229279E+01  0.66556355103E+03  0.67248612822E+03  0.47000000000E+01 0. -1.
<mgrwt>
<rscale>  0 0.27520800E+03</rscale>
<asrwt>0</asrwt>
<pdfrwt beam="1">  1        2 0.29188414E+00 0.27520800E+03</pdfrwt>
<pdfrwt beam="2">  1       -2 0.15354120E-02 0.27520800E+03</pdfrwt>
<totfact> 0.95929369E+03</totfact>
</mgrwt>
</event>
<event>
 9    1  0.2073852E-002  0.2747128E+03  0.7818608E-02  0.1098612E+00
          1   -1    0    0  501    0  0.00000000000E+00  0.00000000000E+00  0.66567814545E+03  0.66567814545E+03  0.00000000000E+00 0. -1.
         -1   -1    0    0    0  501 -0.00000000000E+00 -0.00000000000E+00 -0.28342197548E+02  0.28342197548E+02  0.00000000000E+00 0. -1.
         36    2    1    2    0    0  0.00000000000E+00 -0.35527136788E-14  0.63733594790E+03  0.69402034300E+03  0.27471280641E+03 0.  0.
         25    2    3    3    0    0  0.51638410779E+02  0.16940666368E-01  0.24899411532E+03  0.28301449988E+03  0.12422806416E+03 0.  0.
         25    2    3    3    0    0 -0.51638410779E+02 -0.16940666368E-01  0.38834183259E+03  0.41100584312E+03  0.12429762020E+03 0.  0.
          5    1    4    4  502    0  0.63729388627E+02 -0.26590234968E+02  0.24319272795E+03  0.25285028870E+03  0.47000000000E+01 0. -1.
         -5    1    4    4    0  502 -0.12090977848E+02  0.26607175635E+02  0.58013873720E+01  0.30164211178E+02  0.47000000000E+01 0. -1.
          5    1    5    5  503    0 -0.51290824789E+00 -0.53179274016E+02  0.23216512463E+03  0.23822475386E+03  0.47000000000E+01 0.  1.
         -5    1    5    5    0  503 -0.51125502531E+02  0.53162333350E+02  0.15617670796E+03  0.17278108926E+03  0.47000000000E+01 0.  1.
<mgrwt>
<rscale>  0 0.27471281E+03</rscale>
<asrwt>0</asrwt>
<pdfrwt beam="1">  1        1 0.10241201E+00 0.27471281E+03</pdfrwt>
<pdfrwt beam="2">  1       -1 0.43603386E-02 0.27471281E+03</pdfrwt>
<totfact> 0.65371827E+03</totfact>
</mgrwt>
</event>
<event>
 9    1  0.2073852E-002  0.2752297E+03  0.7818608E-02  0.1098323E+00
         -2   -1    0    0    0  501 -0.00000000000E+00  0.00000000000E+00  0.18406038990E+02  0.18406038990E+02  0.00000000000E+00 0. -1.
          2   -1    0    0  501    0  0.00000000000E+00 -0.00000000000E+00 -0.10288930059E+04  0.10288930059E+04  0.00000000000E+00 0. -1.
         36    2    1    2    0    0  0.00000000000E+00 -0.14210854715E-13 -0.10104869669E+04  0.10472990449E+04  0.27522968432E+03 0.  0.
         25    2    3    3    0    0  0.34703117711E+02  0.35949314589E+02 -0.60484785789E+03  0.61966255748E+03  0.12507635409E+03 0.  0.
         25    2    3    3    0    0 -0.34703117711E+02 -0.35949314589E+02 -0.40563910898E+03  0.42763648737E+03  0.12583011959E+03 0.  0.
          5    1    4    4  502    0 -0.31977460011E+02  0.12867097018E+02 -0.53617709342E+02  0.63914543646E+02  0.47000000000E+01 0. -1.
         -5    1    4    4    0  502  0.66680577722E+02  0.23082217571E+02 -0.55123014855E+03  0.55574801384E+03  0.47000000000E+01 0. -1.
          5    1    5    5  503    0 -0.46484792419E+02 -0.57235430893E+02 -0.11997727858E+03  0.14090197959E+03  0.47000000000E+01 0.  1.
         -5    1    5    5    0  503  0.11781674708E+02  0.21286116304E+02 -0.28566183040E+03  0.28673450778E+03  0.47000000000E+01 0.  1.
<mgrwt>
<rscale>  0 0.27522968E+03</rscale>
<asrwt>0</asrwt>
<pdfrwt beam="1">  1        2 0.15829123E+00 0.27522968E+03</pdfrwt>
<pdfrwt beam="2">  1       -2 0.28316984E-02 0.27522968E+03</pdfrwt>
<totfact> 0.11610859E+04</totfact>
</mgrwt>
</event>
<event>
 9    1  0.2073852E-002  0.2750629E+03  0.7818608E-02  0.1098416E+00
         -3   -1    0    0    0  501 -0.00000000000E+00  0.00000000000E+00  0.31889350824E+02  0.31889350824E+02  0.00000000000E+00 0. -1.
          3   -1    0    0  501    0  0.00000000000E+00 -0.00000000000E+00 -0.59314155450E+03  0.59314155450E+03  0.00000000000E+00 0. -1.
         36    2    1    2    0    0 -0.71054273576E-14  0.00000000000E+00 -0.56125220368E+03  0.62503090533E+03  0.27506289550E+03 0.  0.
         25    2    3    3    0    0 -0.46081304228E+02  0.18527233638E+02 -0.33352400485E+03  0.36081317581E+03  0.12837889641E+03 0.  0.
         25    2    3    3    0    0  0.46081304228E+02 -0.18527233638E+02 -0.22772819883E+03  0.26421772952E+03  0.12443524847E+03 0.  0.
          5    1    4    4  502    0  0.35898063428E+02  0.31119651001E+02 -0.71815952029E+02  0.86236445904E+02  0.47000000000E+01 0. -1.
         -5    1    4    4    0  502 -0.81979367656E+02 -0.12592417363E+02 -0.26170805282E+03  0.27457672991E+03  0.47000000000E+01 0. -1.
          5    1    5    5  503    0  0.72660736226E+02  0.11292865594E+02 -0.20539491880E+03  0.21821153514E+03  0.47000000000E+01 0. -1.
         -5    1    5    5    0  503 -0.26579431999E+02 -0.29820099233E+02 -0.22333280038E+02  0.46006194375E+02  0.47000000000E+01 0. -1.
<mgrwt>
<rscale>  0 0.27506290E+03</rscale>
<asrwt>0</asrwt>
<pdfrwt beam="1">  1        3 0.91252542E-01 0.27506290E+03</pdfrwt>
<pdfrwt beam="2">  1       -3 0.49060542E-02 0.27506290E+03</pdfrwt>
<totfact> 0.66546881E+02</totfact>
</mgrwt>
</event>
<event>
 9    1  0.2073852E-002  0.2734942E+03  0.7818608E-02  0.1099296E+00
         -2   -1    0    0    0  501 -0.00000000000E+00  0.00000000000E+00  0.13278863693E+02  0.13278863693E+02  0.00000000000E+00 0. -1.
          2   -1    0    0  501    0  0.00000000000E+00 -0.00000000000E+00 -0.14082359443E+04  0.14082359443E+04  0.00000000000E+00 0. -1.
         36    2    1    2    0    0  0.71054273576E-14 -0.35527136788E-14 -0.13949570806E+04  0.14215148080E+04  0.27349422774E+03 0.  0.
         25    2    3    3    0    0 -0.47797905223E+02 -0.65426721927E+01 -0.83816743382E+03  0.84878356010E+03  0.12482563224E+03 0.  0.
         25    2    3    3    0    0  0.47797905223E+02  0.65426721927E+01 -0.55678964681E+03  0.57273124792E+03  0.12521551521E+03 0.  0.
          5    1    4    4  502    0  0.64307283192E+00 -0.26844907670E+02 -0.37395419477E+02  0.46277100259E+02  0.47000000000E+01 0. -1.
         -5    1    4    4    0  502 -0.48440978055E+02  0.20302235477E+02 -0.80077201435E+03  0.80250645984E+03  0.47000000000E+01 0. -1.
          5    1    5    5  503    0 -0.14741619998E+02  0.37747355814E+02 -0.38577256904E+03  0.38792363070E+03  0.47000000000E+01 0.  1.
         -5    1    5    5    0  503  0.62539525221E+02 -0.31204683621E+02 -0.17101707777E+03  0.18480761722E+03  0.47000000000E+01 0.  1.
<mgrwt>
<rscale>  0 0.27349423E+03</rscale>
<asrwt>0</asrwt>
<pdfrwt beam="1">  1        2 0.21665153E+00 0.27349423E+03</pdfrwt>
<pdfrwt beam="2">  1       -2 0.20429036E-02 0.27349423E+03</pdfrwt>
<totfact> 0.11454874E+04</totfact>
</mgrwt>
</event>
<event>
 9    1  0.2073852E-002  0.2749593E+03  0.7818608E-02  0.1098474E+00
          4   -1    0    0  501    0  0.00000000000E+00  0.00000000000E+00  0.27938600834E+03  0.27938600834E+03  0.00000000000E+00 0.  1.
         -4   -1    0    0    0  501 -0.00000000000E+00 -0.00000000000E+00 -0.67650695320E+02  0.67650695320E+02  0.00000000000E+00 0.  1.
         36    2    1    2    0    0  0.71054273576E-14  0.00000000000E+00  0.21173531302E+03  0.34703670366E+03  0.27495932592E+03 0.  0.
         25    2    3    3    0    0  0.13689071885E+02  0.39265459334E+02  0.15403668445E+03  0.20458862311E+03  0.12806263141E+03 0.  0.
         25    2    3    3    0    0 -0.13689071885E+02 -0.39265459334E+02  0.57698628572E+02  0.14244808055E+03  0.12342267591E+03 0.  0.
          5    1    4    4  502    0  0.65489667326E+02  0.34350687433E+02  0.12363804336E+03  0.14414340782E+03  0.47000000000E+01 0.  1.
         -5    1    4    4    0  502 -0.51800595442E+02  0.49147719007E+01  0.30398641095E+02  0.60445215289E+02  0.47000000000E+01 0.  1.
          5    1    5    5  503    0  0.11751024399E+02 -0.39049508306E+02 -0.30109454236E+02  0.50907955250E+02  0.47000000000E+01 0.  1.
         -5    1    5    5    0  503 -0.25440096284E+02 -0.21595102775E+00  0.87808082808E+02  0.91540125301E+02  0.47000000000E+01 0.  1.
<mgrwt>
<rscale>  0 0.27495933E+03</rscale>
<asrwt>0</asrwt>
<pdfrwt beam="1">  1        4 0.42982462E-01 0.27495933E+03</pdfrwt>
<pdfrwt beam="2">  1       -4 0.10407799E-01 0.27495933E+03</pdfrwt>
<totfact> 0.70053740E+02</totfact>
</mgrwt>
</event>
<event>
 9    1  0.2073852E-002  0.2744144E+03  0.7818608E-02  0.1098779E+00
          1   -1    0    0  501    0  0.00000000000E+00  0.00000000000E+00  0.75313532810E+03  0.75313532810E+03  0.00000000000E+00 0.  1.
         -1   -1    0    0    0  501 -0.00000000000E+00 -0.00000000000E+00 -0.24996588791E+02  0.24996588791E+02  0.00000000000E+00 0.  1.
         36    2    1    2    0    0  0.00000000000E+00  0.00000000000E+00  0.72813873931E+03  0.77813191689E+03  0.27441438811E+03 0.  0.
         25    2    3    3    0    0  0.40015730899E+02  0.17627720561E+02  0.49955151204E+03  0.51516204498E+03  0.11801789760E+03 0.  0.
         25    2    3    3    0    0 -0.40015730899E+02 -0.17627720561E+02  0.22858722727E+03  0.26296987191E+03  0.12242972601E+03 0.  0.
          5    1    4    4  502    0 -0.12356658415E+02 -0.24910749235E+02  0.31625556921E+02  0.42373320441E+02  0.47000000000E+01 0. -1.
         -5    1    4    4    0  502  0.52372389315E+02  0.42538469796E+02  0.46792595512E+03  0.47278872454E+03  0.47000000000E+01 0. -1.
          5    1    5    5  503    0 -0.26024307852E+02 -0.48359678648E+02  0.22136093361E+03  0.22811987210E+03  0.47000000000E+01 0. -1.
         -5    1    5    5    0  503 -0.13991423047E+02  0.30731958087E+02  0.72262936557E+01  0.34849999810E+02  0.47000000000E+01 0. -1.
<mgrwt>
<rscale>  0 0.27441439E+03</rscale>
<asrwt>0</asrwt>
<pdfrwt beam="1">  1        1 0.11586696E+00 0.27441439E+03</pdfrwt>
<pdfrwt beam="2">  1       -1 0.38456296E-02 0.27441439E+03</pdfrwt>
<totfact> 0.65760911E+03</totfact>
</mgrwt>
</event>
<event>
 9    1  0.2073852E-002  0.2750756E+03  0.7818608E-02  0.1098409E+00
         -2   -1    0    0    0  501 -0.00000000000E+00  0.00000000000E+00  0.36912388945E+02  0.36912388945E+02  0.00000000000E+00 0. -1.
          2   -1    0    0  501    0  0.00000000000E+00 -0.00000000000E+00 -0.51247433710E+03  0.51247433710E+03  0.00000000000E+00 0. -1.
         36    2    1    2    0    0 -0.71054273576E-14 -0.35527136788E-14 -0.47556194815E+03  0.54938672604E+03  0.27507564091E+03 0.  0.
         25    2    3    3    0    0 -0.24678780049E+02 -0.28477048936E+02 -0.15775333445E+03  0.20586244154E+03  0.12678030526E+03 0.  0.
         25    2    3    3    0    0  0.24678780049E+02  0.28477048936E+02 -0.31780861370E+03  0.34352428451E+03  0.12484644410E+03 0.  0.
          5    1    4    4  502    0  0.37059562683E+02 -0.28594241138E+02 -0.12954497387E+03  0.13782246575E+03  0.47000000000E+01 0.  1.
         -5    1    4    4    0  502 -0.61738342732E+02  0.11719220189E+00 -0.28208360586E+02  0.68039975781E+02  0.47000000000E+01 0.  1.
          5    1    5    5  503    0 -0.32963575613E+00  0.44229042732E+02 -0.28841728792E+02  0.53011811895E+02  0.47000000000E+01 0.  1.
         -5    1    5    5    0  503  0.25008415805E+02 -0.15751993795E+02 -0.28896688491E+03  0.29051247261E+03  0.47000000000E+01 0.  1.
<mgrwt>
<rscale>  0 0.27507564E+03</rscale>
<asrwt>0</asrwt>
<pdfrwt beam="1">  1        2 0.78842209E-01 0.27507564E+03</pdfrwt>
<pdfrwt beam="2">  1       -2 0.56788289E-02 0.27507564E+03</pdfrwt>
<totfact> 0.96971218E+03</totfact>
</mgrwt>
</event>
<event>
 9    1  0.2073852E-002  0.2749888E+03  0.7818608E-02  0.1098458E+00
         -1   -1    0    0    0  501 -0.00000000000E+00  0.00000000000E+00  0.17633467439E+03  0.17633467439E+03  0.00000000000E+00 0.  1.
          1   -1    0    0  501    0  0.00000000000E+00 -0.00000000000E+00 -0.10720927203E+03  0.10720927203E+03  0.00000000000E+00 0.  1.
         36    2    1    2    0    0  0.00000000000E+00 -0.14210854715E-13  0.69125402366E+02  0.28354394642E+03  0.27498881486E+03 0.  0.
         25    2    3    3    0    0 -0.20700601778E+01  0.52234793433E+02  0.85316591112E+01  0.13427971237E+03  0.12339162514E+03 0.  0.
         25    2    3    3    0    0  0.20700601778E+01 -0.52234793433E+02  0.60593743255E+02  0.14926423405E+03  0.12599782161E+03 0.  0.
          5    1    4    4  502    0  0.57581113489E+01  0.67017379837E+02  0.53497948800E+02  0.86073257010E+02  0.47000000000E+01 0.  1.
         -5    1    4    4    0  502 -0.78281715268E+01 -0.14782586404E+02 -0.44966289689E+02  0.48206455363E+02  0.47000000000E+01 0.  1.
          5    1    5    5  503    0  0.31946065013E+01 -0.77520706818E+02  0.84018017252E+02  0.11445865070E+03  0.47000000000E+01 0. -1.
         -5    1    5    5    0  503 -0.11245463235E+01  0.25285913385E+02 -0.23424273997E+02  0.34805583351E+02  0.47000000000E+01 0. -1.
<mgrwt>
<rscale>  0 0.27498881E+03</rscale>
<asrwt>0</asrwt>
<pdfrwt beam="1">  1        1 0.16493734E-01 0.27498881E+03</pdfrwt>
<pdfrwt beam="2">  1       -1 0.27128412E-01 0.27498881E+03</pdfrwt>
<totfact> 0.39647771E+03</totfact>
</mgrwt>
</event>
<event>
 9    1  0.2073852E-002  0.2746981E+03  0.7818608E-02  0.1098620E+00
         -2   -1    0    0    0  501 -0.00000000000E+00  0.00000000000E+00  0.96043060492E+02  0.96043060492E+02  0.00000000000E+00 0. -1.
          2   -1    0    0  501    0  0.00000000000E+00 -0.00000000000E+00 -0.19641976496E+03  0.19641976496E+03  0.00000000000E+00 0. -1.
         36    2    1    2    0    0  0.71054273576E-14 -0.71054273576E-14 -0.10037670447E+03  0.29246282545E+03  0.27469805509E+03 0.  0.
         25    2    3    3    0    0 -0.41673041984E+02  0.24088328632E+02 -0.35680182486E+02  0.14001022277E+03  0.12654207622E+03 0.  0.
         25    2    3    3    0    0  0.41673041984E+02 -0.24088328632E+02 -0.64696521984E+02  0.15245260268E+03  0.12938031575E+03 0.  0.
          5    1    4    4  502    0 -0.40595329914E+02  0.62436396781E+02 -0.58772357444E+02  0.94987180469E+02  0.47000000000E+01 0.  1.
         -5    1    4    4    0  502 -0.10777120701E+01 -0.38348068149E+02  0.23092174959E+02  0.45023042305E+02  0.47000000000E+01 0.  1.
          5    1    5    5  503    0  0.49660910286E+01  0.24928778711E+02 -0.84147322891E+02  0.88028222849E+02  0.47000000000E+01 0.  1.
         -5    1    5    5    0  503  0.36706950955E+02 -0.49017107344E+02  0.19450800907E+02  0.64424379832E+02  0.47000000000E+01 0.  1.
<mgrwt>
<rscale>  0 0.27469806E+03</rscale>
<asrwt>0</asrwt>
<pdfrwt beam="1">  1        2 0.30218425E-01 0.27469806E+03</pdfrwt>
<pdfrwt beam="2">  1       -2 0.14775856E-01 0.27469806E+03</pdfrwt>
<totfact> 0.60601422E+03</totfact>
</mgrwt>
</event>
<event>
 9    1  0.2073852E-002  0.2745271E+03  0.7818608E-02  0.1098716E+00
         -2   -1    0    0    0  501 -0.00000000000E+00  0.00000000000E+00  0.23975504952E+02  0.23975504952E+02  0.00000000000E+00 0. -1.
          2   -1    0    0  501    0  0.00000000000E+00 -0.00000000000E+00 -0.78585570821E+03  0.78585570821E+03  0.00000000000E+00 0. -1.
         36    2    1    2    0    0 -0.14210854715E-13  0.00000000000E+00 -0.76188020326E+03  0.80983121316E+03  0.27452713836E+03 0.  0.
         25    2    3    3    0    0 -0.51537023527E+02 -0.11750055589E+01 -0.42382702394E+03  0.44520941568E+03  0.12619283719E+03 0.  0.
         25    2    3    3    0    0  0.51537023527E+02  0.11750055589E+01 -0.33805317932E+03  0.36462179748E+03  0.12653717920E+03 0.  0.
          5    1    4    4  502    0 -0.48484493445E+02 -0.32928219701E+02 -0.76975752874E+02  0.96862636180E+02  0.47000000000E+01 0. -1.
         -5    1    4    4    0  502 -0.30525300825E+01  0.31753214142E+02 -0.34685127107E+03  0.34834677950E+03  0.47000000000E+01 0. -1.
          5    1    5    5  503    0 -0.33820674786E+00  0.22806842161E+02 -0.28881422419E+03  0.28975163939E+03  0.47000000000E+01 0. -1.
         -5    1    5    5    0  503  0.51875230275E+02 -0.21631836602E+02 -0.49238955128E+02  0.74870158094E+02  0.47000000000E+01 0. -1.
<mgrwt>
<rscale>  0 0.27452714E+03</rscale>
<asrwt>0</asrwt>
<pdfrwt beam="1">  1        2 0.12090089E+00 0.27452714E+03</pdfrwt>
<pdfrwt beam="2">  1       -2 0.36885390E-02 0.27452714E+03</pdfrwt>
<totfact> 0.11233277E+04</totfact>
</mgrwt>
</event>
<event>
 9    1  0.2073852E-002  0.2756671E+03  0.7818608E-02  0.1098079E+00
          2   -1    0    0  501    0  0.00000000000E+00  0.00000000000E+00  0.38221726897E+03  0.38221726897E+03  0.00000000000E+00 0. -1.
         -2   -1    0    0    0  501 -0.00000000000E+00 -0.00000000000E+00 -0.49704928263E+02  0.49704928263E+02  0.00000000000E+00 0. -1.
         36    2    1    2    0    0 -0.35527136788E-14  0.71054273576E-14  0.33251234071E+03  0.43192219724E+03  0.27566705959E+03 0.  0.
         25    2    3    3    0    0  0.26274246516E+02  0.22630171431E+02  0.24098263012E+03  0.27366774282E+03  0.12497577666E+03 0.  0.
         25    2    3    3    0    0 -0.26274246516E+02 -0.22630171431E+02  0.91529710592E+02  0.15825445442E+03  0.12435563410E+03 0.  0.
          5    1    4    4  502    0 -0.81603374781E+01  0.70007467358E+02  0.14079461255E+03  0.15752094945E+03  0.47000000000E+01 0.  1.
         -5    1    4    4    0  502  0.34434583994E+02 -0.47377295928E+02  0.10018801757E+03  0.11614679337E+03  0.47000000000E+01 0.  1.
          5    1    5    5  503    0 -0.51205776033E+02 -0.42420666942E+02  0.10417911797E+03  0.12368073053E+03  0.47000000000E+01 0. -1.
         -5    1    5    5    0  503  0.24931529517E+02  0.19790495511E+02 -0.12649407378E+02  0.34573723891E+02  0.47000000000E+01 0. -1.
<mgrwt>
<rscale>  0 0.27566706E+03</rscale>
<asrwt>0</asrwt>
<pdfrwt beam="1">  1        2 0.58802655E-01 0.27566706E+03</pdfrwt>
<pdfrwt beam="2">  1       -2 0.76469123E-02 0.27566706E+03</pdfrwt>
<totfact> 0.84608249E+03</totfact>
</mgrwt>
</event>
<event>
 9    1  0.2073852E-002  0.2766578E+03  0.7818608E-02  0.1097529E+00
         -2   -1    0    0    0  501 -0.00000000000E+00  0.00000000000E+00  0.43777178930E+03  0.43777178930E+03  0.00000000000E+00 0.  1.
          2   -1    0    0  501    0  0.00000000000E+00 -0.00000000000E+00 -0.43709727305E+02  0.43709727305E+02  0.00000000000E+00 0.  1.
         36    2    1    2    0    0  0.35527136788E-14 -0.44408920985E-14  0.39406206199E+03  0.48148151660E+03  0.27665780692E+03 0.  0.
         25    2    3    3    0    0 -0.21555472915E+02  0.69698097501E+01  0.97222869505E+02  0.15942557749E+03  0.12430209870E+03 0.  0.
         25    2    3    3    0    0  0.21555472915E+02 -0.69698097501E+01  0.29683919249E+03  0.32205593912E+03  0.12285481293E+03 0.  0.
          5    1    4    4  502    0  0.34462022935E+02 -0.35367756354E+02  0.16370549506E+02  0.52235946487E+02  0.47000000000E+01 0. -1.
         -5    1    4    4    0  502 -0.56017495850E+02  0.42337566104E+02  0.80852319999E+02  0.10718963100E+03  0.47000000000E+01 0. -1.
          5    1    5    5  503    0  0.36477188625E+01 -0.70673859355E+01 -0.10599455029E+02  0.14060307386E+02  0.47000000000E+01 0.  1.
         -5    1    5    5    0  503  0.17907754053E+02  0.97576185361E-01  0.30743864752E+03  0.30799563173E+03  0.47000000000E+01 0.  1.
<mgrwt>
<rscale>  0 0.27665781E+03</rscale>
<asrwt>0</asrwt>
<pdfrwt beam="1">  1        2 0.67245737E-02 0.27665781E+03</pdfrwt>
<pdfrwt beam="2">  1       -2 0.67349503E-01 0.27665781E+03</pdfrwt>
<totfact> 0.22005417E+03</totfact>
</mgrwt>
</event>
<event>
 9    1  0.2073852E-002  0.2738834E+03  0.7818608E-02  0.1099077E+00
         -1   -1    0    0    0  501 -0.00000000000E+00  0.00000000000E+00  0.40998022751E+02  0.40998022751E+02  0.00000000000E+00 0. -1.
          1   -1    0    0  501    0  0.00000000000E+00 -0.00000000000E+00 -0.45741304731E+03  0.45741304731E+03  0.00000000000E+00 0. -1.
         36    2    1    2    0    0  0.00000000000E+00  0.00000000000E+00 -0.41641502456E+03  0.49841107006E+03  0.27388340965E+03 0.  0.
         25    2    3    3    0    0  0.31978707152E+02 -0.39648941394E+02 -0.21274512350E+03  0.25423905577E+03  0.12954664658E+03 0.  0.
         25    2    3    3    0    0 -0.31978707152E+02  0.39648941394E+02 -0.20366990106E+03  0.24417201429E+03  0.12467504844E+03 0.  0.
          5    1    4    4  502    0  0.46549143407E+02 -0.60970491029E+02 -0.21457890043E+03  0.22792634345E+03  0.47000000000E+01 0.  1.
         -5    1    4    4    0  502 -0.14570436255E+02  0.21321549636E+02  0.18337769325E+01  0.26312712315E+02  0.47000000000E+01 0.  1.
          5    1    5    5  503    0 -0.71290678780E+02  0.54397396527E+02 -0.11461019922E+03  0.14559885094E+03  0.47000000000E+01 0.  1.
         -5    1    5    5    0  503  0.39311971628E+02 -0.14748455134E+02 -0.89059701835E+02  0.98573163352E+02  0.47000000000E+01 0.  1.
<mgrwt>
<rscale>  0 0.27388341E+03</rscale>
<asrwt>0</asrwt>
<pdfrwt beam="1">  1        1 0.70371244E-01 0.27388341E+03</pdfrwt>
<pdfrwt beam="2">  1       -1 0.63073876E-02 0.27388341E+03</pdfrwt>
<totfact> 0.62622571E+03</totfact>
</mgrwt>
</event>
<event>
 9    1  0.2073852E-002  0.2756998E+03  0.7818608E-02  0.1098061E+00
          1   -1    0    0  501    0  0.00000000000E+00  0.00000000000E+00  0.52807059524E+03  0.52807059524E+03  0.00000000000E+00 0.  1.
         -1   -1    0    0    0  501 -0.00000000000E+00 -0.00000000000E+00 -0.35984951113E+02  0.35984951113E+02  0.00000000000E+00 0.  1.
         36    2    1    2    0    0  0.00000000000E+00 -0.71054273576E-14  0.49208564413E+03  0.56405554636E+03  0.27569979727E+03 0.  0.
         25    2    3    3    0    0 -0.34371260269E+02 -0.49770682868E+02  0.26993478066E+03  0.30301485776E+03  0.12367179876E+03 0.  0.
         25    2    3    3    0    0  0.34371260269E+02  0.49770682868E+02  0.22215086347E+03  0.26104068859E+03  0.12301516392E+03 0.  0.
          5    1    4    4  502    0  0.17051091045E+02 -0.34809237582E+02  0.13975657116E+02  0.41470853846E+02  0.47000000000E+01 0.  1.
         -5    1    4    4    0  502 -0.51422351314E+02 -0.14961445285E+02  0.25595912354E+03  0.26154400392E+03  0.47000000000E+01 0.  1.
          5    1    5    5  503    0  0.10252488891E+01  0.77323645562E+02  0.19481715531E+03  0.20965641249E+03  0.47000000000E+01 0. -1.
         -5    1    5    5    0  503  0.33346011380E+02 -0.27552962695E+02  0.27333708165E+02  0.51384276099E+02  0.47000000000E+01 0. -1.
<mgrwt>
<rscale>  0 0.27569980E+03</rscale>
<asrwt>0</asrwt>
<pdfrwt beam="1">  1        1 0.81241624E-01 0.27569980E+03</pdfrwt>
<pdfrwt beam="2">  1       -1 0.55361467E-02 0.27569980E+03</pdfrwt>
<totfact> 0.63033075E+03</totfact>
</mgrwt>
</event>
<event>
 9    1  0.2073852E-002  0.2749612E+03  0.7818608E-02  0.1098473E+00
          1   -1    0    0  501    0  0.00000000000E+00  0.00000000000E+00  0.55550225685E+03  0.55550225685E+03  0.00000000000E+00 0.  1.
         -1   -1    0    0    0  501 -0.00000000000E+00 -0.00000000000E+00 -0.34024901003E+02  0.34024901003E+02  0.00000000000E+00 0.  1.
         36    2    1    2    0    0  0.00000000000E+00  0.00000000000E+00  0.52147735584E+03  0.58952715785E+03  0.27496115578E+03 0.  0.
         25    2    3    3    0    0  0.43693876850E+02  0.46118513053E+01  0.16335058207E+03  0.20774683389E+03  0.12060228141E+03 0.  0.
         25    2    3    3    0    0 -0.43693876850E+02 -0.46118513053E+01  0.35812677378E+03  0.38178032396E+03  0.12478383558E+03 0.  0.
          5    1    4    4  502    0  0.39674156648E+02  0.47285310954E+02  0.15053068489E+03  0.16276214680E+03  0.47000000000E+01 0. -1.
         -5    1    4    4    0  502  0.40197202021E+01 -0.42673459649E+02  0.12819897182E+02  0.44984687091E+02  0.47000000000E+01 0. -1.
          5    1    5    5  503    0 -0.63914697250E+02  0.21528494155E+02  0.95315566402E+02  0.11685765608E+03  0.47000000000E+01 0. -1.
         -5    1    5    5    0  503  0.20220820400E+02 -0.26140345460E+02  0.26281120737E+03  0.26492266789E+03  0.47000000000E+01 0. -1.
<mgrwt>
<rscale>  0 0.27496116E+03</rscale>
<asrwt>0</asrwt>
<pdfrwt beam="1">  1        1 0.85461879E-01 0.27496116E+03</pdfrwt>
<pdfrwt beam="2">  1       -1 0.52346006E-02 0.27496116E+03</pdfrwt>
<totfact> 0.64021394E+03</totfact>
</mgrwt>
</event>
<event>
 9    1  0.2073852E-002  0.2773293E+03  0.7818608E-02  0.1097157E+00
          4   -1    0    0  501    0  0.00000000000E+00  0.00000000000E+00  0.61836623793E+03  0.61836623793E+03  0.00000000000E+00 0.  1.
         -4   -1    0    0    0  501 -0.00000000000E+00 -0.00000000000E+00 -0.31094653124E+02  0.31094653124E+02  0.00000000000E+00 0.  1.
         36    2    1    2    0    0  0.71054273576E-14  0.00000000000E+00  0.58727158480E+03  0.64946089105E+03  0.27732928927E+03 0.  0.
         25    2    3    3    0    0 -0.44059261983E+02  0.24865268230E+02  0.18281295119E+03  0.22242665798E+03  0.11616171026E+03 0.  0.
         25    2    3    3    0    0  0.44059261983E+02 -0.24865268230E+02  0.40445863362E+03  0.42703423307E+03  0.12732615511E+03 0.  0.
          5    1    4    4  502    0  0.52303053247E+01 -0.74246894204E+01  0.15797997459E+03  0.15831059496E+03  0.47000000000E+01 0.  1.
         -5    1    4    4    0  502 -0.49289567307E+02  0.32289957650E+02  0.24832976597E+02  0.64116063019E+02  0.47000000000E+01 0.  1.
          5    1    5    5  503    0  0.56381589600E+02 -0.69987273999E+02  0.26714300017E+03  0.28189461631E+03  0.47000000000E+01 0.  1.
         -5    1    5    5    0  503 -0.12322327617E+02  0.45122005769E+02  0.13731563345E+03  0.14513961676E+03  0.47000000000E+01 0.  1.
<mgrwt>
<rscale>  0 0.27732929E+03</rscale>
<asrwt>0</asrwt>
<pdfrwt beam="1">  1        4 0.95133258E-01 0.27732929E+03</pdfrwt>
<pdfrwt beam="2">  1       -4 0.47837933E-02 0.27732929E+03</pdfrwt>
<totfact> 0.46105717E+02</totfact>
</mgrwt>
</event>
<event>
 9    1  0.2073852E-002  0.2745766E+03  0.7818608E-02  0.1098688E+00
         -1   -1    0    0    0  501 -0.00000000000E+00  0.00000000000E+00  0.31520107102E+03  0.31520107102E+03  0.00000000000E+00 0.  1.
          1   -1    0    0  501    0  0.00000000000E+00 -0.00000000000E+00 -0.59797002015E+02  0.59797002015E+02  0.00000000000E+00 0.  1.
         36    2    1    2    0    0  0.00000000000E+00  0.71054273576E-14  0.25540406901E+03  0.37499807304E+03  0.27457661284E+03 0.  0.
         25    2    3    3    0    0 -0.17753014156E+02  0.45506279879E+02  0.14327862644E+03  0.20012646805E+03  0.13090396250E+03 0.  0.
         25    2    3    3    0    0  0.17753014156E+02 -0.45506279879E+02  0.11212544256E+03  0.17487160499E+03  0.12498788877E+03 0.  0.
          5    1    4    4  502    0 -0.46905718123E+02  0.28253318568E+02  0.15461845227E+03  0.16409555809E+03  0.47000000000E+01 0. -1.
         -5    1    4    4    0  502  0.29152703967E+02  0.17252961311E+02 -0.11339825829E+02  0.36030909958E+02  0.47000000000E+01 0. -1.
          5    1    5    5  503    0  0.32515851794E+02  0.36241624323E+02  0.56765310877E+02  0.74934147559E+02  0.47000000000E+01 0.  1.
         -5    1    5    5    0  503 -0.14762837637E+02 -0.81747904202E+02  0.55360131686E+02  0.99937457426E+02  0.47000000000E+01 0.  1.
<mgrwt>
<rscale>  0 0.27457661E+03</rscale>
<asrwt>0</asrwt>
<pdfrwt beam="1">  1        1 0.91995389E-02 0.27457661E+03</pdfrwt>
<pdfrwt beam="2">  1       -1 0.48492472E-01 0.27457661E+03</pdfrwt>
<totfact> 0.31124528E+03</totfact>
</mgrwt>
</event>
<event>
 9    1  0.2073852E-002  0.2723234E+03  0.7818608E-02  0.1099957E+00
         -2   -1    0    0    0  501 -0.00000000000E+00  0.00000000000E+00  0.60084412762E+02  0.60084412762E+02  0.00000000000E+00 0.  1.
          2   -1    0    0  501    0  0.00000000000E+00 -0.00000000000E+00 -0.30856598364E+03  0.30856598364E+03  0.00000000000E+00 0.  1.
         36    2    1    2    0    0 -0.71054273576E-14 -0.71054273576E-14 -0.24848157088E+03  0.36865039640E+03  0.27232338075E+03 0.  0.
         25    2    3    3    0    0 -0.33033189714E+02 -0.40693469882E+02 -0.13475351718E+03  0.19183774870E+03  0.12607958328E+03 0.  0.
         25    2    3    3    0    0  0.33033189714E+02  0.40693469882E+02 -0.11372805370E+03  0.17681264770E+03  0.12482584698E+03 0.  0.
          5    1    4    4  502    0  0.48957568730E+00 -0.70726338392E+02 -0.12767786951E+03  0.14603486909E+03  0.47000000000E+01 0. -1.
         -5    1    4    4    0  502 -0.33522765401E+02  0.30032868509E+02 -0.70756476687E+01  0.45802879614E+02  0.47000000000E+01 0. -1.
          5    1    5    5  503    0 -0.34062961498E+02 -0.23524589206E+02 -0.26957043231E+02  0.49623218588E+02  0.47000000000E+01 0. -1.
         -5    1    5    5    0  503  0.67096151211E+02  0.64218059088E+02 -0.86771010468E+02  0.12718942911E+03  0.47000000000E+01 0. -1.
<mgrwt>
<rscale>  0 0.27232338E+03</rscale>
<asrwt>0</asrwt>
<pdfrwt beam="1">  1        2 0.47471691E-01 0.27232338E+03</pdfrwt>
<pdfrwt beam="2">  1       -2 0.92437556E-02 0.27232338E+03</pdfrwt>
<totfact> 0.79132279E+03</totfact>
</mgrwt>
</event>
<event>
 9    1  0.2073852E-002  0.2756892E+03  0.7818608E-02  0.1098067E+00
         -1   -1    0    0    0  501 -0.00000000000E+00  0.00000000000E+00  0.53474406273E+02  0.53474406273E+02  0.00000000000E+00 0. -1.
          1   -1    0    0  501    0  0.00000000000E+00 -0.00000000000E+00 -0.35533143703E+03  0.35533143703E+03  0.00000000000E+00 0. -1.
         36    2    1    2    0    0  0.00000000000E+00  0.53290705182E-14 -0.30185703076E+03  0.40880584330E+03  0.27568922812E+03 0.  0.
         25    2    3    3    0    0  0.57856642127E+02  0.13627461703E+02 -0.16512614576E+03  0.21429990379E+03  0.12298254348E+03 0.  0.
         25    2    3    3    0    0 -0.57856642127E+02 -0.13627461703E+02 -0.13673088499E+03  0.19450593951E+03  0.12491647947E+03 0.  0.
          5    1    4    4  502    0 -0.30443025595E+02 -0.24548801340E+02 -0.59483880011E+02  0.71343138673E+02  0.47000000000E+01 0.  1.
         -5    1    4    4    0  502  0.88299667722E+02  0.38176263043E+02 -0.10564226575E+03  0.14295676512E+03  0.47000000000E+01 0.  1.
          5    1    5    5  503    0 -0.36036984992E+02  0.13866594774E+02  0.12713671176E+02  0.40922783052E+02  0.47000000000E+01 0.  1.
         -5    1    5    5    0  503 -0.21819657135E+02 -0.27494056477E+02 -0.14944455617E+03  0.15358315646E+03  0.47000000000E+01 0.  1.
<mgrwt>
<rscale>  0 0.27568923E+03</rscale>
<asrwt>0</asrwt>
<pdfrwt beam="1">  1        1 0.54666374E-01 0.27568923E+03</pdfrwt>
<pdfrwt beam="2">  1       -1 0.82268319E-02 0.27568923E+03</pdfrwt>
<totfact> 0.57862749E+03</totfact>
</mgrwt>
</event>
<event>
 9    1  0.2073852E-002  0.2746162E+03  0.7818608E-02  0.1098666E+00
         -1   -1    0    0    0  501 -0.00000000000E+00  0.00000000000E+00  0.97463784694E+01  0.97463784694E+01  0.00000000000E+00 0. -1.
          1   -1    0    0  501    0  0.00000000000E+00 -0.00000000000E+00 -0.19344119895E+04  0.19344119895E+04  0.00000000000E+00 0. -1.
         36    2    1    2    0    0  0.00000000000E+00  0.00000000000E+00 -0.19246656110E+04  0.19441583680E+04  0.27461617844E+03 0.  0.
         25    2    3    3    0    0  0.22333432033E+02 -0.32683223027E+02 -0.71242901453E+03  0.72502030846E+03  0.12857827063E+03 0.  0.
         25    2    3    3    0    0 -0.22333432033E+02  0.32683223027E+02 -0.12122365965E+04  0.12191380595E+04  0.12334126236E+03 0.  0.
          5    1    4    4  502    0 -0.48805967425E+02  0.70728447048E+01 -0.35161161206E+03  0.35508430453E+03  0.47000000000E+01 0. -1.
         -5    1    4    4    0  502  0.71139399458E+02 -0.39756067732E+02 -0.36081740248E+03  0.36993600393E+03  0.47000000000E+01 0. -1.
          5    1    5    5  503    0  0.23622948547E+02  0.33305531509E+02 -0.14005707900E+03  0.14596361706E+03  0.47000000000E+01 0.  1.
         -5    1    5    5    0  503 -0.45956380580E+02 -0.62230848147E+00 -0.10721795175E+04  0.10731744425E+04  0.47000000000E+01 0.  1.
<mgrwt>
<rscale>  0 0.27461618E+03</rscale>
<asrwt>0</asrwt>
<pdfrwt beam="1">  1        1 0.29760232E+00 0.27461618E+03</pdfrwt>
<pdfrwt beam="2">  1       -1 0.14994404E-02 0.27461618E+03</pdfrwt>
<totfact> 0.38862491E+03</totfact>
</mgrwt>
</event>
<event>
 9    1  0.2073852E-002  0.2752754E+03  0.7818608E-02  0.1098298E+00
          3   -1    0    0  501    0  0.00000000000E+00  0.00000000000E+00  0.67550931837E+03  0.67550931837E+03  0.00000000000E+00 0. -1.
         -3   -1    0    0    0  501 -0.00000000000E+00 -0.00000000000E+00 -0.28044217576E+02  0.28044217576E+02  0.00000000000E+00 0. -1.
         36    2    1    2    0    0 -0.35527136788E-14 -0.35527136788E-14  0.64746510080E+03  0.70355353595E+03  0.27527535523E+03 0.  0.
         25    2    3    3    0    0 -0.24429041596E+02 -0.24786189989E+02  0.43332844567E+03  0.45265695936E+03  0.12614930734E+03 0.  0.
         25    2    3    3    0    0  0.24429041596E+02  0.24786189989E+02  0.21413665513E+03  0.25089657659E+03  0.12602956712E+03 0.  0.
          5    1    4    4  502    0 -0.29306477665E+02 -0.40471911129E+02  0.57024417366E+02  0.75965251263E+02  0.47000000000E+01 0.  1.
         -5    1    4    4    0  502  0.48774360685E+01  0.15685721140E+02  0.37630402830E+03  0.37669170809E+03  0.47000000000E+01 0.  1.
          5    1    5    5  503    0  0.14720023607E+01 -0.31600549080E+02  0.17604709802E+03  0.17892856735E+03  0.47000000000E+01 0.  1.
         -5    1    5    5    0  503  0.22957039236E+02  0.56386739069E+02  0.38089557109E+02  0.71968009241E+02  0.47000000000E+01 0.  1.
<mgrwt>
<rscale>  0 0.27527536E+03</rscale>
<asrwt>0</asrwt>
<pdfrwt beam="1">  1        3 0.10392450E+00 0.27527536E+03</pdfrwt>
<pdfrwt beam="2">  1       -3 0.43144955E-02 0.27527536E+03</pdfrwt>
<totfact> 0.60680467E+02</totfact>
</mgrwt>
</event>
<event>
 9    1  0.2073852E-002  0.2742517E+03  0.7818608E-02  0.1098871E+00
          1   -1    0    0  501    0  0.00000000000E+00  0.00000000000E+00  0.45046958572E+03  0.45046958572E+03  0.00000000000E+00 0.  1.
         -1   -1    0    0    0  501 -0.00000000000E+00 -0.00000000000E+00 -0.41741991120E+02  0.41741991120E+02  0.00000000000E+00 0.  1.
         36    2    1    2    0    0  0.17763568394E-14 -0.71054273576E-14  0.40872759460E+03  0.49221157684E+03  0.27425169058E+03 0.  0.
         25    2    3    3    0    0 -0.11022237944E+02  0.31773288274E+02  0.28760407941E+03  0.31538150722E+03  0.12497342527E+03 0.  0.
         25    2    3    3    0    0  0.11022237944E+02 -0.31773288274E+02  0.12112351518E+03  0.17683006962E+03  0.12436613692E+03 0.  0.
          5    1    4    4  502    0 -0.93389391321E+01  0.85885875955E+01 -0.10005831875E+02  0.16828139901E+02  0.47000000000E+01 0. -1.
         -5    1    4    4    0  502 -0.16832988116E+01  0.23184700679E+02  0.29760991129E+03  0.29855336732E+03  0.47000000000E+01 0. -1.
          5    1    5    5  503    0  0.42980065854E+02  0.31905110050E+02  0.31664837531E+02  0.62369656436E+02  0.47000000000E+01 0.  1.
         -5    1    5    5    0  503 -0.31957827910E+02 -0.63678398325E+02  0.89458677653E+02  0.11446041318E+03  0.47000000000E+01 0.  1.
<mgrwt>
<rscale>  0 0.27425169E+03</rscale>
<asrwt>0</asrwt>
<pdfrwt beam="1">  1        1 0.69303010E-01 0.27425169E+03</pdfrwt>
<pdfrwt beam="2">  1       -1 0.64218451E-02 0.27425169E+03</pdfrwt>
<totfact> 0.62174450E+03</totfact>
</mgrwt>
</event>
<event>
 9    1  0.2073852E-002  0.2748706E+03  0.7818608E-02  0.1098524E+00
         -1   -1    0    0    0  501 -0.00000000000E+00  0.00000000000E+00  0.50209486074E+02  0.50209486074E+02  0.00000000000E+00 0.  1.
          1   -1    0    0  501    0  0.00000000000E+00 -0.00000000000E+00 -0.37619305805E+03  0.37619305805E+03  0.00000000000E+00 0.  1.
         36    2    1    2    0    0 -0.71054273576E-14  0.00000000000E+00 -0.32598357197E+03  0.42640254412E+03  0.27487058853E+03 0.  0.
         25    2    3    3    0    0 -0.29669064526E+02  0.48221499407E+02 -0.18716905028E+03  0.23151520969E+03  0.12394140770E+03 0.  0.
         25    2    3    3    0    0  0.29669064526E+02 -0.48221499407E+02 -0.13881452169E+03  0.19488733443E+03  0.12452323194E+03 0.  0.
          5    1    4    4  502    0  0.38891504183E+02  0.67947967012E+01 -0.16737696675E+02  0.43138832272E+02  0.47000000000E+01 0. -1.
         -5    1    4    4    0  502 -0.68560568709E+02  0.41426702706E+02 -0.17043135360E+03  0.18837637742E+03  0.47000000000E+01 0. -1.
          5    1    5    5  503    0 -0.21382661126E+02 -0.30054000024E+02 -0.13537359226E+03  0.14038718102E+03  0.47000000000E+01 0. -1.
         -5    1    5    5    0  503  0.51051725652E+02 -0.18167499383E+02 -0.34409294334E+01  0.54500153405E+02  0.47000000000E+01 0. -1.
<mgrwt>
<rscale>  0 0.27487059E+03</rscale>
<asrwt>0</asrwt>
<pdfrwt beam="1">  1        1 0.57875854E-01 0.27487059E+03</pdfrwt>
<pdfrwt beam="2">  1       -1 0.77245365E-02 0.27487059E+03</pdfrwt>
<totfact> 0.59240025E+03</totfact>
</mgrwt>
</event>
<event>
 9    1  0.2073852E-002  0.2783619E+03  0.7818608E-02  0.1096587E+00
          2   -1    0    0  501    0  0.00000000000E+00  0.00000000000E+00  0.37308455266E+03  0.37308455266E+03  0.00000000000E+00 0. -1.
         -2   -1    0    0    0  501 -0.00000000000E+00 -0.00000000000E+00 -0.51922095119E+02  0.51922095119E+02  0.00000000000E+00 0. -1.
         36    2    1    2    0    0  0.00000000000E+00  0.00000000000E+00  0.32116245754E+03  0.42500664778E+03  0.27836186255E+03 0.  0.
         25    2    3    3    0    0  0.29444823961E+02 -0.26755143709E+02  0.87859611265E+02  0.15815532316E+03  0.12534336671E+03 0.  0.
         25    2    3    3    0    0 -0.29444823961E+02  0.26755143709E+02  0.23330284628E+03  0.26685132462E+03  0.12327439312E+03 0.  0.
          5    1    4    4  502    0  0.36912932039E+02 -0.59286322498E+02  0.10022850285E+03  0.12225087064E+03  0.47000000000E+01 0.  1.
         -5    1    4    4    0  502 -0.74681080772E+01  0.32531178789E+02 -0.12368891589E+02  0.35904452521E+02  0.47000000000E+01 0.  1.
          5    1    5    5  503    0  0.23376939331E+02  0.60825111577E+02  0.10080134999E+03  0.12012151203E+03  0.47000000000E+01 0. -1.
         -5    1    5    5    0  503 -0.52821763292E+02 -0.34069967868E+02  0.13250149628E+03  0.14672981260E+03  0.47000000000E+01 0. -1.
<mgrwt>
<rscale>  0 0.27836186E+03</rscale>
<asrwt>0</asrwt>
<pdfrwt beam="1">  1        2 0.57397622E-01 0.27836186E+03</pdfrwt>
<pdfrwt beam="2">  1       -2 0.79880149E-02 0.27836186E+03</pdfrwt>
<totfact> 0.81166179E+03</totfact>
</mgrwt>
</event>
<event>
 9    1  0.2073852E-002  0.2771562E+03  0.7818608E-02  0.1097252E+00
          2   -1    0    0  501    0  0.00000000000E+00  0.00000000000E+00  0.23832685272E+04  0.23832685272E+04  0.00000000000E+00 0.  1.
         -2   -1    0    0    0  501 -0.00000000000E+00 -0.00000000000E+00 -0.80577974644E+01  0.80577974644E+01  0.00000000000E+00 0.  1.
         36    2    1    2    0    0  0.71054273576E-14  0.00000000000E+00  0.23752107297E+04  0.23913263246E+04  0.27715623821E+03 0.  0.
         25    2    3    3    0    0  0.49990922261E+02 -0.18645639500E+02  0.12262434168E+04  0.12341049382E+04  0.12843414213E+03 0.  0.
         25    2    3    3    0    0 -0.49990922261E+02  0.18645639500E+02  0.11489673129E+04  0.11572213865E+04  0.12723481874E+03 0.  0.
          5    1    4    4  502    0 -0.35242146683E+02  0.54108862425E+01  0.65802019407E+03  0.65900224005E+03  0.47000000000E+01 0. -1.
         -5    1    4    4    0  502  0.85233068945E+02 -0.24056525742E+02  0.56822322276E+03  0.57510269810E+03  0.47000000000E+01 0. -1.
          5    1    5    5  503    0  0.42466458460E+02 -0.12893395292E+01  0.40569740138E+03  0.40794305237E+03  0.47000000000E+01 0. -1.
         -5    1    5    5    0  503 -0.92457380722E+02  0.19934979029E+02  0.74326991148E+03  0.74927833410E+03  0.47000000000E+01 0. -1.
<mgrwt>
<rscale>  0 0.27715624E+03</rscale>
<asrwt>0</asrwt>
<pdfrwt beam="1">  1        2 0.36665614E+00 0.27715624E+03</pdfrwt>
<pdfrwt beam="2">  1       -2 0.12396630E-02 0.27715624E+03</pdfrwt>
<totfact> 0.72390488E+03</totfact>
</mgrwt>
</event>
<event>
 9    1  0.2073852E-002  0.2827254E+03  0.7818608E-02  0.1094210E+00
          2   -1    0    0  501    0  0.00000000000E+00  0.00000000000E+00  0.12447716607E+04  0.12447716607E+04  0.00000000000E+00 0. -1.
         -2   -1    0    0    0  501 -0.00000000000E+00 -0.00000000000E+00 -0.16053876161E+02  0.16053876161E+02  0.00000000000E+00 0. -1.
         36    2    1    2    0    0  0.00000000000E+00  0.14210854715E-13  0.12287177845E+04  0.12608255368E+04  0.28272537975E+03 0.  0.
         25    2    3    3    0    0 -0.27998155081E+02 -0.62616966647E+02  0.48599353998E+03  0.50463373893E+03  0.11730604575E+03 0.  0.
         25    2    3    3    0    0  0.27998155081E+02  0.62616966647E+02  0.74272424454E+03  0.75619179791E+03  0.12442648671E+03 0.  0.
          5    1    4    4  502    0 -0.22692964569E+02  0.32433663173E+02  0.12082228241E+03  0.12722824794E+03  0.47000000000E+01 0.  1.
         -5    1    4    4    0  502 -0.53051905119E+01 -0.95050629820E+02  0.36517125757E+03  0.37740549099E+03  0.47000000000E+01 0.  1.
          5    1    5    5  503    0 -0.12675900914E+02 -0.29787724903E+02  0.31474556214E+03  0.31644090429E+03  0.47000000000E+01 0.  1.
         -5    1    5    5    0  503  0.40674055995E+02  0.92404691550E+02  0.42797868240E+03  0.43975089362E+03  0.47000000000E+01 0.  1.
<mgrwt>
<rscale>  0 0.28272538E+03</rscale>
<asrwt>0</asrwt>
<pdfrwt beam="1">  1        2 0.19150326E+00 0.28272538E+03</pdfrwt>
<pdfrwt beam="2">  1       -2 0.24698281E-02 0.28272538E+03</pdfrwt>
<totfact> 0.10660746E+04</totfact>
</mgrwt>
</event>
<event>
 9    1  0.2073852E-002  0.2749893E+03  0.7818608E-02  0.1098458E+00
          1   -1    0    0  501    0  0.00000000000E+00  0.00000000000E+00  0.50239062195E+02  0.50239062195E+02  0.00000000000E+00 0. -1.
         -1   -1    0    0    0  501 -0.00000000000E+00 -0.00000000000E+00 -0.37629628871E+03  0.37629628871E+03  0.00000000000E+00 0. -1.
         36    2    1    2    0    0  0.00000000000E+00  0.00000000000E+00 -0.32605722651E+03  0.42653535090E+03  0.27498925544E+03 0.  0.
         25    2    3    3    0    0  0.12978493216E+02  0.53645434571E+02 -0.11467291448E+03  0.17465200384E+03  0.11961258794E+03 0.  0.
         25    2    3    3    0    0 -0.12978493216E+02 -0.53645434571E+02 -0.21138431203E+03  0.25188334706E+03  0.12536195283E+03 0.  0.
          5    1    4    4  502    0  0.91723281202E+01  0.48739600228E+02 -0.13976567595E+03  0.14837861843E+03  0.47000000000E+01 0.  1.
         -5    1    4    4    0  502  0.38061650963E+01  0.49058343427E+01  0.25092761463E+02  0.26273385416E+02  0.47000000000E+01 0.  1.
          5    1    5    5  503    0 -0.56288081166E+02  0.87408374727E+01 -0.62581543869E+02  0.84754291656E+02  0.47000000000E+01 0. -1.
         -5    1    5    5    0  503  0.43309587949E+02 -0.62386272044E+02 -0.14880276816E+03  0.16712905540E+03  0.47000000000E+01 0. -1.
<mgrwt>
<rscale>  0 0.27498926E+03</rscale>
<asrwt>0</asrwt>
<pdfrwt beam="1">  1        1 0.77290861E-02 0.27498926E+03</pdfrwt>
<pdfrwt beam="2">  1       -1 0.57891739E-01 0.27498926E+03</pdfrwt>
<totfact> 0.28294073E+03</totfact>
</mgrwt>
</event>
<event>
 9    1  0.2073852E-002  0.2774296E+03  0.7818608E-02  0.1097101E+00
         -3   -1    0    0    0  501 -0.00000000000E+00  0.00000000000E+00  0.11277176642E+02  0.11277176642E+02  0.00000000000E+00 0. -1.
          3   -1    0    0  501    0  0.00000000000E+00 -0.00000000000E+00 -0.17062599994E+04  0.17062599994E+04  0.00000000000E+00 0. -1.
         36    2    1    2    0    0  0.71054273576E-14 -0.71054273576E-14 -0.16949828228E+04  0.17175371760E+04  0.27742959763E+03 0.  0.
         25    2    3    3    0    0 -0.62134996673E+02  0.43758768410E+01 -0.83362420366E+03  0.84502432902E+03  0.12351881474E+03 0.  0.
         25    2    3    3    0    0  0.62134996673E+02 -0.43758768410E+01 -0.86135861910E+03  0.87251284703E+03  0.12433861596E+03 0.  0.
          5    1    4    4  502    0 -0.91505134106E+02 -0.20245367750E+02 -0.68793628906E+03  0.69430648296E+03  0.47000000000E+01 0. -1.
         -5    1    4    4    0  502  0.29370137433E+02  0.24621244591E+02 -0.14568791460E+03  0.15071784606E+03  0.47000000000E+01 0. -1.
          5    1    5    5  503    0  0.58715809834E+02 -0.55613954112E+02 -0.64635443034E+03  0.65141123557E+03  0.47000000000E+01 0. -1.
         -5    1    5    5    0  503  0.34191868386E+01  0.51238077271E+02 -0.21500418876E+03  0.22110161145E+03  0.47000000000E+01 0. -1.
<mgrwt>
<rscale>  0 0.27742960E+03</rscale>
<asrwt>0</asrwt>
<pdfrwt beam="1">  1        3 0.26250142E+00 0.27742960E+03</pdfrwt>
<pdfrwt beam="2">  1       -3 0.17349511E-02 0.27742960E+03</pdfrwt>
<totfact> 0.21216593E+02</totfact>
</mgrwt>
</event>
<event>
 9    1  0.2073852E-002  0.2777559E+03  0.7818608E-02  0.1096921E+00
          2   -1    0    0  501    0  0.00000000000E+00  0.00000000000E+00  0.69525500292E+03  0.69525500292E+03  0.00000000000E+00 0.  1.
         -2   -1    0    0    0  501 -0.00000000000E+00 -0.00000000000E+00 -0.27741024513E+02  0.27741024513E+02  0.00000000000E+00 0.  1.
         36    2    1    2    0    0  0.00000000000E+00  0.00000000000E+00  0.66751397841E+03  0.72299602744E+03  0.27775590780E+03 0.  0.
         25    2    3    3    0    0  0.13802287693E+02 -0.63259226114E+00  0.19838479703E+03  0.24174237165E+03  0.13744796557E+03 0.  0.
         25    2    3    3    0    0 -0.13802287693E+02  0.63259226114E+00  0.46912918138E+03  0.48125365578E+03  0.10645181571E+03 0.  0.
          5    1    4    4  502    0  0.62825833599E+02  0.20263852885E+02  0.16719410802E+03  0.17981565243E+03  0.47000000000E+01 0.  1.
         -5    1    4    4    0  502 -0.49023545905E+02 -0.20896445146E+02  0.31190689010E+02  0.61926719223E+02  0.47000000000E+01 0.  1.
          5    1    5    5  503    0  0.15532109153E+02 -0.37667941965E+02  0.35356011808E+03  0.35593112728E+03  0.47000000000E+01 0.  1.
         -5    1    5    5    0  503 -0.29334396846E+02  0.38300534226E+02  0.11556906329E+03  0.12532252850E+03  0.47000000000E+01 0.  1.
<mgrwt>
<rscale>  0 0.27775591E+03</rscale>
<asrwt>0</asrwt>
<pdfrwt beam="1">  1        2 0.10696230E+00 0.27775591E+03</pdfrwt>
<pdfrwt beam="2">  1       -2 0.42678504E-02 0.27775591E+03</pdfrwt>
<totfact> 0.10500110E+04</totfact>
</mgrwt>
</event>
<event>
 9    1  0.2073852E-002  0.2754712E+03  0.7818608E-02  0.1098188E+00
         -1   -1    0    0    0  501 -0.00000000000E+00  0.00000000000E+00  0.28471067318E+02  0.28471067318E+02  0.00000000000E+00 0.  1.
          1   -1    0    0  501    0  0.00000000000E+00 -0.00000000000E+00 -0.66632915273E+03  0.66632915273E+03  0.00000000000E+00 0.  1.
         36    2    1    2    0    0  0.00000000000E+00  0.00000000000E+00 -0.63785808541E+03  0.69480022005E+03  0.27547124833E+03 0.  0.
         25    2    3    3    0    0  0.13364479349E+02 -0.52590583939E+02 -0.23635779451E+03  0.27085107061E+03  0.12062718018E+03 0.  0.
         25    2    3    3    0    0 -0.13364479349E+02  0.52590583939E+02 -0.40150029091E+03  0.42394914944E+03  0.12484397817E+03 0.  0.
          5    1    4    4  502    0  0.35815788953E+02  0.26547570790E+02 -0.50373302570E+02  0.67432216818E+02  0.47000000000E+01 0.  1.
         -5    1    4    4    0  502 -0.22451309603E+02 -0.79138154729E+02 -0.18598449194E+03  0.20341885379E+03  0.47000000000E+01 0.  1.
          5    1    5    5  503    0  0.13747507381E+02  0.22881997336E+02 -0.37404391384E+03  0.37502469151E+03  0.47000000000E+01 0. -1.
         -5    1    5    5    0  503 -0.27111986731E+02  0.29708586603E+02 -0.27456377072E+02  0.48924457936E+02  0.47000000000E+01 0. -1.
<mgrwt>
<rscale>  0 0.27547125E+03</rscale>
<asrwt>0</asrwt>
<pdfrwt beam="1">  1        1 0.10251218E+00 0.27547125E+03</pdfrwt>
<pdfrwt beam="2">  1       -1 0.43801641E-02 0.27547125E+03</pdfrwt>
<totfact> 0.64844958E+03</totfact>
</mgrwt>
</event>
<event>
 9    1  0.2073852E-002  0.2750636E+03  0.7818608E-02  0.1098416E+00
          2   -1    0    0  501    0  0.00000000000E+00  0.00000000000E+00  0.42244315114E+03  0.42244315114E+03  0.00000000000E+00 0.  1.
         -2   -1    0    0    0  501 -0.00000000000E+00 -0.00000000000E+00 -0.44775247389E+02  0.44775247389E+02  0.00000000000E+00 0.  1.
         36    2    1    2    0    0  0.00000000000E+00  0.71054273576E-14  0.37766790375E+03  0.46721839853E+03  0.27506360428E+03 0.  0.
         25    2    3    3    0    0 -0.10455438944E+02 -0.26485613692E+02  0.13072273108E+03  0.18691133576E+03  0.13052436967E+03 0.  0.
         25    2    3    3    0    0  0.10455438944E+02  0.26485613692E+02  0.24694517267E+03  0.28030706277E+03  0.12953504235E+03 0.  0.
          5    1    4    4  502    0  0.49242756454E+02 -0.40818801289E+02  0.34911135535E+02  0.73019867065E+02  0.47000000000E+01 0.  1.
         -5    1    4    4    0  502 -0.59698195398E+02  0.14333187597E+02  0.95811595544E+02  0.11389146869E+03  0.47000000000E+01 0.  1.
          5    1    5    5  503    0  0.24551685884E+02 -0.49366072184E+02  0.10317873412E+03  0.11708003902E+03  0.47000000000E+01 0.  1.
         -5    1    5    5    0  503 -0.14096246940E+02  0.75851685876E+02  0.14376643855E+03  0.16322702375E+03  0.47000000000E+01 0.  1.
<mgrwt>
<rscale>  0 0.27506360E+03</rscale>
<asrwt>0</asrwt>
<pdfrwt beam="1">  1        2 0.64991251E-01 0.27506360E+03</pdfrwt>
<pdfrwt beam="2">  1       -2 0.68884999E-02 0.27506360E+03</pdfrwt>
<totfact> 0.89232108E+03</totfact>
</mgrwt>
</event>
<event>
 9    1  0.2073852E-002  0.2773969E+03  0.7818608E-02  0.1097119E+00
         -1   -1    0    0    0  501 -0.00000000000E+00  0.00000000000E+00  0.11706571093E+04  0.11706571093E+04  0.00000000000E+00 0.  1.
          1   -1    0    0  501    0  0.00000000000E+00 -0.00000000000E+00 -0.16432877203E+02  0.16432877203E+02  0.00000000000E+00 0.  1.
         36    2    1    2    0    0 -0.44408920985E-15  0.00000000000E+00  0.11542242321E+04  0.11870899865E+04  0.27739693239E+03 0.  0.
         25    2    3    3    0    0 -0.28545456087E+01  0.64778363926E+02  0.64794441467E+03  0.66179141477E+03  0.11803189100E+03 0.  0.
         25    2    3    3    0    0  0.28545456087E+01 -0.64778363926E+02  0.50627981743E+03  0.52529857174E+03  0.12415696143E+03 0.  0.
          5    1    4    4  502    0  0.11707349507E+01  0.28511504126E+02  0.26395814485E+02  0.39154891267E+02  0.47000000000E+01 0.  1.
         -5    1    4    4    0  502 -0.40252805595E+01  0.36266859800E+02  0.62154860019E+03  0.62263652350E+03  0.47000000000E+01 0.  1.
          5    1    5    5  503    0  0.22063708458E+02  0.15815993716E+02  0.25932469321E+02  0.37835642630E+02  0.47000000000E+01 0.  1.
         -5    1    5    5    0  503 -0.19209162849E+02 -0.80594357642E+02  0.48034734811E+03  0.48746292911E+03  0.47000000000E+01 0.  1.
<mgrwt>
<rscale>  0 0.27739693E+03</rscale>
<asrwt>0</asrwt>
<pdfrwt beam="1">  1        1 0.25281359E-02 0.27739693E+03</pdfrwt>
<pdfrwt beam="2">  1       -1 0.18010103E+00 0.27739693E+03</pdfrwt>
<totfact> 0.99109924E+02</totfact>
</mgrwt>
</event>
<event>
 9    1  0.2073852E-002  0.2759525E+03  0.7818608E-02  0.1097920E+00
          1   -1    0    0  501    0  0.00000000000E+00  0.00000000000E+00  0.23993852855E+03  0.23993852855E+03  0.00000000000E+00 0. -1.
         -1   -1    0    0    0  501 -0.00000000000E+00 -0.00000000000E+00 -0.79343030720E+02  0.79343030720E+02  0.00000000000E+00 0. -1.
         36    2    1    2    0    0  0.71054273576E-14  0.00000000000E+00  0.16059549783E+03  0.31928155927E+03  0.27595253245E+03 0.  0.
         25    2    3    3    0    0 -0.63415129323E+02  0.18275602345E+01  0.82502659842E+02  0.16026465881E+03  0.12187392411E+03 0.  0.
         25    2    3    3    0    0  0.63415129323E+02 -0.18275602345E+01  0.78092837988E+02  0.15901690046E+03  0.12313839646E+03 0.  0.
          5    1    4    4  502    0  0.19960044415E+02  0.38816315718E+02  0.40532303701E+02  0.59750040855E+02  0.47000000000E+01 0.  1.
         -5    1    4    4    0  502 -0.83375173737E+02 -0.36988755483E+02  0.41970356141E+02  0.10051461795E+03  0.47000000000E+01 0.  1.
          5    1    5    5  503    0  0.13420910637E+02 -0.57220623934E+02  0.55345515445E+02  0.80867402120E+02  0.47000000000E+01 0.  1.
         -5    1    5    5    0  503  0.49994218685E+02  0.55393063700E+02  0.22747322543E+02  0.78149498340E+02  0.47000000000E+01 0.  1.
<mgrwt>
<rscale>  0 0.27595253E+03</rscale>
<asrwt>0</asrwt>
<pdfrwt beam="1">  1        1 0.36913619E-01 0.27595253E+03</pdfrwt>
<pdfrwt beam="2">  1       -1 0.12206620E-01 0.27595253E+03</pdfrwt>
<totfact> 0.51539076E+03</totfact>
</mgrwt>
</event>
<event>
 9    1  0.2073852E-002  0.2739066E+03  0.7818608E-02  0.1099064E+00
         -1   -1    0    0    0  501 -0.00000000000E+00  0.00000000000E+00  0.49271823649E+02  0.49271823649E+02  0.00000000000E+00 0.  1.
          1   -1    0    0  501    0  0.00000000000E+00 -0.00000000000E+00 -0.38066801885E+03  0.38066801885E+03  0.00000000000E+00 0.  1.
         36    2    1    2    0    0  0.00000000000E+00 -0.35527136788E-14 -0.33139619520E+03  0.42993984250E+03  0.27390660813E+03 0.  0.
         25    2    3    3    0    0  0.52199057703E+02 -0.99000982398E+01 -0.24095927048E+03  0.26604417950E+03  0.99475533897E+02 0.  0.
         25    2    3    3    0    0 -0.52199057703E+02  0.99000982398E+01 -0.90436924723E+02  0.16389566300E+03  0.12593727577E+03 0.  0.
          5    1    4    4  502    0  0.18080930963E+02 -0.33774769972E+02 -0.24840142211E+02  0.45899649413E+02  0.47000000000E+01 0.  1.
         -5    1    4    4    0  502  0.34118126740E+02  0.23874671732E+02 -0.21611912827E+03  0.22014453009E+03  0.47000000000E+01 0.  1.
          5    1    5    5  503    0 -0.23525442345E+01  0.14386722486E+02 -0.10917826764E+03  0.11024743250E+03  0.47000000000E+01 0.  1.
         -5    1    5    5    0  503 -0.49846513468E+02 -0.44866242462E+01  0.18741342915E+02  0.53648230505E+02  0.47000000000E+01 0.  1.
<mgrwt>
<rscale>  0 0.27390661E+03</rscale>
<asrwt>0</asrwt>
<pdfrwt beam="1">  1        1 0.58564309E-01 0.27390661E+03</pdfrwt>
<pdfrwt beam="2">  1       -1 0.75802808E-02 0.27390661E+03</pdfrwt>
<totfact> 0.60047564E+03</totfact>
</mgrwt>
</event>
<event>
 9    1  0.2073852E-002  0.2757696E+03  0.7818608E-02  0.1098022E+00
         -3   -1    0    0    0  501 -0.00000000000E+00  0.00000000000E+00  0.16450088866E+03  0.16450088866E+03  0.00000000000E+00 0. -1.
          3   -1    0    0  501    0  0.00000000000E+00 -0.00000000000E+00 -0.11557515152E+03  0.11557515152E+03  0.00000000000E+00 0. -1.
         36    2    1    2    0    0 -0.71054273576E-14 -0.71054273576E-14  0.48925737136E+02  0.28007604017E+03  0.27576957868E+03 0.  0.
         25    2    3    3    0    0  0.52026884551E+01  0.39433557521E+02  0.62718963271E+02  0.15036340010E+03  0.13074176957E+03 0.  0.
         25    2    3    3    0    0 -0.52026884551E+01 -0.39433557521E+02 -0.13793226135E+02  0.12971264007E+03  0.12269084106E+03 0.  0.
          5    1    4    4  502    0 -0.42200482604E+02  0.66367783869E+02  0.52544607065E+02  0.94702635651E+02  0.47000000000E+01 0. -1.
         -5    1    4    4    0  502  0.47403171059E+02 -0.26934226347E+02  0.10174356206E+02  0.55660764454E+02  0.47000000000E+01 0. -1.
          5    1    5    5  503    0 -0.60354015577E+02 -0.12818759323E+02 -0.25956042131E+02  0.67102413593E+02  0.47000000000E+01 0.  1.
         -5    1    5    5    0  503  0.55151327122E+02 -0.26614798198E+02  0.12162815996E+02  0.62610226476E+02  0.47000000000E+01 0.  1.
<mgrwt>
<rscale>  0 0.27576958E+03</rscale>
<asrwt>0</asrwt>
<pdfrwt beam="1">  1        3 0.17780793E-01 0.27576958E+03</pdfrwt>
<pdfrwt beam="2">  1       -3 0.25307829E-01 0.27576958E+03</pdfrwt>
<totfact> 0.10322477E+03</totfact>
</mgrwt>
</event>
<event>
 9    1  0.2073852E-002  0.2759126E+03  0.7818608E-02  0.1097943E+00
         -1   -1    0    0    0  501 -0.00000000000E+00  0.00000000000E+00  0.57773159399E+01  0.57773159399E+01  0.00000000000E+00 0. -1.
          1   -1    0    0  501    0  0.00000000000E+00 -0.00000000000E+00 -0.32942523677E+04  0.32942523677E+04  0.00000000000E+00 0. -1.
         36    2    1    2    0    0  0.00000000000E+00  0.71054273576E-14 -0.32884750517E+04  0.33000296836E+04  0.27591257103E+03 0.  0.
         25    2    3    3    0    0  0.22435334446E+02  0.33534615582E+02 -0.17733757489E+04  0.17785641667E+04  0.12961880115E+03 0.  0.
         25    2    3    3    0    0 -0.22435334446E+02 -0.33534615582E+02 -0.15150993029E+04  0.15214655169E+04  0.13305452654E+03 0.  0.
          5    1    4    4  502    0  0.45642362657E+02  0.14105603534E+01 -0.22304925814E+03  0.22772412369E+03  0.47000000000E+01 0.  1.
         -5    1    4    4    0  502 -0.23207028211E+02  0.32124055228E+02 -0.15503264907E+04  0.15508400430E+04  0.47000000000E+01 0.  1.
          5    1    5    5  503    0 -0.73489128001E+02 -0.28428602490E+02 -0.11555996947E+04  0.11582925286E+04  0.47000000000E+01 0. -1.
         -5    1    5    5    0  503  0.51053793556E+02 -0.51060130913E+01 -0.35949960815E+03  0.36317298835E+03  0.47000000000E+01 0. -1.
<mgrwt>
<rscale>  0 0.27591257E+03</rscale>
<asrwt>0</asrwt>
<pdfrwt beam="1">  1        1 0.50680704E+00 0.27591257E+03</pdfrwt>
<pdfrwt beam="2">  1       -1 0.88881963E-03 0.27591257E+03</pdfrwt>
<totfact> 0.99482495E+02</totfact>
</mgrwt>
</event>
<event>
 9    1  0.2073852E-002  0.2753412E+03  0.7818608E-02  0.1098261E+00
          1   -1    0    0  501    0  0.00000000000E+00  0.00000000000E+00  0.20591947150E+02  0.20591947150E+02  0.00000000000E+00 0.  1.
         -1   -1    0    0    0  501 -0.00000000000E+00 -0.00000000000E+00 -0.92041780376E+03  0.92041780376E+03  0.00000000000E+00 0.  1.
         36    2    1    2    0    0  0.00000000000E+00  0.00000000000E+00 -0.89982585662E+03  0.94100975091E+03  0.27534120484E+03 0.  0.
         25    2    3    3    0    0 -0.50331172552E+02  0.26195185211E+02 -0.40065157542E+03  0.42372246632E+03  0.12569657480E+03 0.  0.
         25    2    3    3    0    0  0.50331172552E+02 -0.26195185211E+02 -0.49917428119E+03  0.51728728460E+03  0.12325484633E+03 0.  0.
          5    1    4    4  502    0 -0.71624330148E+02 -0.26911344258E+02 -0.27668739179E+03  0.28711020165E+03  0.47000000000E+01 0.  1.
         -5    1    4    4    0  502  0.21293157596E+02  0.53106529469E+02 -0.12396418364E+03  0.13661226467E+03  0.47000000000E+01 0.  1.
          5    1    5    5  503    0 -0.30016154069E+02  0.24813699619E+02 -0.17826538704E+03  0.18253034655E+03  0.47000000000E+01 0.  1.
         -5    1    5    5    0  503  0.80347326620E+02 -0.51008884829E+02 -0.32090889415E+03  0.33475693805E+03  0.47000000000E+01 0.  1.
<mgrwt>
<rscale>  0 0.27534120E+03</rscale>
<asrwt>0</asrwt>
<pdfrwt beam="1">  1        1 0.31679920E-02 0.27534120E+03</pdfrwt>
<pdfrwt beam="2">  1       -1 0.14160273E+00 0.27534120E+03</pdfrwt>
<totfact> 0.13854443E+03</totfact>
</mgrwt>
</event>
<event>
 9    1  0.2073852E-002  0.2758844E+03  0.7818608E-02  0.1097958E+00
          1   -1    0    0  501    0  0.00000000000E+00  0.00000000000E+00  0.20337736067E+04  0.20337736067E+04  0.00000000000E+00 0.  1.
         -1   -1    0    0    0  501 -0.00000000000E+00 -0.00000000000E+00 -0.93560313029E+01  0.93560313029E+01  0.00000000000E+00 0.  1.
         36    2    1    2    0    0  0.00000000000E+00 -0.35527136788E-14  0.20244175754E+04  0.20431296380E+04  0.27588439265E+03 0.  0.
         25    2    3    3    0    0  0.43406576634E+02  0.12674359026E+02  0.78645789092E+03  0.79794148680E+03  0.12708198884E+03 0.  0.
         25    2    3    3    0    0 -0.43406576634E+02 -0.12674359026E+02  0.12379596844E+04  0.12451881512E+04  0.12611336664E+03 0.  0.
          5    1    4    4  502    0  0.19832226034E+02 -0.44628557402E+02  0.13704856978E+03  0.14556588131E+03  0.47000000000E+01 0. -1.
         -5    1    4    4    0  502  0.23574350600E+02  0.57302916428E+02  0.64940932114E+03  0.65237560548E+03  0.47000000000E+01 0. -1.
          5    1    5    5  503    0 -0.26913234284E+02  0.72588354702E+00  0.49616737749E+02  0.56645915576E+02  0.47000000000E+01 0.  1.
         -5    1    5    5    0  503 -0.16493342350E+02 -0.13400242573E+02  0.11883429467E+04  0.11885422356E+04  0.47000000000E+01 0.  1.
<mgrwt>
<rscale>  0 0.27588439E+03</rscale>
<asrwt>0</asrwt>
<pdfrwt beam="1">  1        1 0.31288789E+00 0.27588439E+03</pdfrwt>
<pdfrwt beam="2">  1       -1 0.14393911E-02 0.27588439E+03</pdfrwt>
<totfact> 0.35550146E+03</totfact>
</mgrwt>
</event>
<event>
 9    1  0.2073852E-002  0.2761661E+03  0.7818608E-02  0.1097802E+00
          2   -1    0    0  501    0  0.00000000000E+00  0.00000000000E+00  0.10286049036E+04  0.10286049036E+04  0.00000000000E+00 0. -1.
         -2   -1    0    0    0  501 -0.00000000000E+00 -0.00000000000E+00 -0.18536693916E+02  0.18536693916E+02  0.00000000000E+00 0. -1.
         36    2    1    2    0    0  0.00000000000E+00  0.17763568394E-14  0.10100682096E+04  0.10471415975E+04  0.27616614027E+03 0.  0.
         25    2    3    3    0    0 -0.57749484373E+02 -0.10376420221E+02  0.55572756104E+03  0.57265323400E+03  0.12512366390E+03 0.  0.
         25    2    3    3    0    0  0.57749484373E+02  0.10376420221E+02  0.45434064860E+03  0.47448836348E+03  0.12357632888E+03 0.  0.
          5    1    4    4  502    0 -0.44708724239E+02 -0.18633377499E+02  0.55432577253E+03  0.55645774761E+03  0.47000000000E+01 0.  1.
         -5    1    4    4    0  502 -0.13040760133E+02  0.82569572779E+01  0.14017885057E+01  0.16195486388E+02  0.47000000000E+01 0.  1.
          5    1    5    5  503    0  0.80302886285E+01 -0.45215595113E+02  0.29382837355E+03  0.29743257838E+03  0.47000000000E+01 0.  1.
         -5    1    5    5    0  503  0.49719195744E+02  0.55592015334E+02  0.16051227505E+03  0.17705578510E+03  0.47000000000E+01 0.  1.
<mgrwt>
<rscale>  0 0.27616614E+03</rscale>
<asrwt>0</asrwt>
<pdfrwt beam="1">  1        2 0.15824686E+00 0.27616614E+03</pdfrwt>
<pdfrwt beam="2">  1       -2 0.28517999E-02 0.27616614E+03</pdfrwt>
<totfact> 0.11495301E+04</totfact>
</mgrwt>
</event>
<event>
 9    1  0.2073852E-002  0.2807375E+03  0.7818608E-02  0.1095287E+00
         -3   -1    0    0    0  501 -0.00000000000E+00  0.00000000000E+00  0.75626294381E+03  0.75626294381E+03  0.00000000000E+00 0. -1.
          3   -1    0    0  501    0  0.00000000000E+00 -0.00000000000E+00 -0.26053622418E+02  0.26053622418E+02  0.00000000000E+00 0. -1.
         36    2    1    2    0    0  0.00000000000E+00  0.35527136788E-14  0.73020932139E+03  0.78231656623E+03  0.28073752287E+03 0.  0.
         25    2    3    3    0    0  0.50484088306E+02 -0.14853984604E+02  0.19764498667E+03  0.23255053475E+03  0.11066583225E+03 0.  0.
         25    2    3    3    0    0 -0.50484088306E+02  0.14853984604E+02  0.53256433472E+03  0.54976603147E+03  0.12589136076E+03 0.  0.
          5    1    4    4  502    0  0.16979416158E+02  0.37693212373E+02  0.24072066630E+02  0.48069046422E+02  0.47000000000E+01 0.  1.
         -5    1    4    4    0  502  0.33504672148E+02 -0.52547196977E+02  0.17357292004E+03  0.18448148833E+03  0.47000000000E+01 0.  1.
          5    1    5    5  503    0 -0.66669716054E+02  0.44624348855E+02  0.48239326194E+03  0.48904144274E+03  0.47000000000E+01 0.  1.
         -5    1    5    5    0  503  0.16185627748E+02 -0.29770364251E+02  0.50171072783E+02  0.60724588738E+02  0.47000000000E+01 0.  1.
<mgrwt>
<rscale>  0 0.28073752E+03</rscale>
<asrwt>0</asrwt>
<pdfrwt beam="1">  1        3 0.40082502E-02 0.28073752E+03</pdfrwt>
<pdfrwt beam="2">  1       -3 0.11634813E+00 0.28073752E+03</pdfrwt>
<totfact> 0.52310581E+02</totfact>
</mgrwt>
</event>
<event>
 9    1  0.2073852E-002  0.2745763E+03  0.7818608E-02  0.1098689E+00
          2   -1    0    0  501    0  0.00000000000E+00  0.00000000000E+00  0.23272527057E+03  0.23272527057E+03  0.00000000000E+00 0.  1.
         -2   -1    0    0    0  501 -0.00000000000E+00 -0.00000000000E+00 -0.80988373748E+02  0.80988373748E+02  0.00000000000E+00 0.  1.
         36    2    1    2    0    0 -0.35527136788E-14  0.00000000000E+00  0.15173689682E+03  0.31371364432E+03  0.27457633688E+03 0.  0.
         25    2    3    3    0    0 -0.28792235468E+02  0.68598507837E+01  0.22799111676E+02  0.13315266718E+03  0.12780368894E+03 0.  0.
         25    2    3    3    0    0  0.28792235468E+02 -0.68598507837E+01  0.12893778515E+03  0.18056097714E+03  0.12288719889E+03 0.  0.
          5    1    4    4  502    0 -0.34369561420E+02 -0.16591459792E+02  0.70044443189E+02  0.79905302151E+02  0.47000000000E+01 0.  1.
         -5    1    4    4    0  502  0.55773259521E+01  0.23451310575E+02 -0.47245331513E+02  0.53247365027E+02  0.47000000000E+01 0.  1.
          5    1    5    5  503    0 -0.12210426092E+02 -0.45509885384E+02  0.11189941100E+03  0.12150642928E+03  0.47000000000E+01 0. -1.
         -5    1    5    5    0  503  0.41002661561E+02  0.38650034600E+02  0.17038374142E+02  0.59054547861E+02  0.47000000000E+01 0. -1.
<mgrwt>
<rscale>  0 0.27457634E+03</rscale>
<asrwt>0</asrwt>
<pdfrwt beam="1">  1        2 0.35803887E-01 0.27457634E+03</pdfrwt>
<pdfrwt beam="2">  1       -2 0.12459750E-01 0.27457634E+03</pdfrwt>
<totfact> 0.66560597E+03</totfact>
</mgrwt>
</event>
<event>
 9    1  0.2073852E-002  0.2750214E+03  0.7818608E-02  0.1098440E+00
          2   -1    0    0  501    0  0.00000000000E+00  0.00000000000E+00  0.32535914111E+04  0.32535914111E+04  0.00000000000E+00 0. -1.
         -2   -1    0    0    0  501 -0.00000000000E+00 -0.00000000000E+00 -0.58117894306E+01  0.58117894306E+01  0.00000000000E+00 0. -1.
         36    2    1    2    0    0  0.00000000000E+00  0.00000000000E+00  0.32477796216E+04  0.32594032005E+04  0.27502136771E+03 0.  0.
         25    2    3    3    0    0  0.12378944832E+01 -0.64318084198E+02  0.22093109103E+04  0.22138510007E+04  0.12626641006E+03 0.  0.
         25    2    3    3    0    0 -0.12378944832E+01  0.64318084198E+02  0.10384687113E+04  0.10455521998E+04  0.10307177049E+03 0.  0.
          5    1    4    4  502    0  0.48791697896E+02 -0.74677162058E+02  0.16459621855E+04  0.16483843346E+04  0.47000000000E+01 0. -1.
         -5    1    4    4    0  502 -0.47553803412E+02  0.10359077860E+02  0.56334872479E+03  0.56546666607E+03  0.47000000000E+01 0. -1.
          5    1    5    5  503    0  0.35804747409E+02  0.10741462108E+02  0.68931161910E+03  0.69034046468E+03  0.47000000000E+01 0.  1.
         -5    1    5    5    0  503 -0.37042641892E+02  0.53576622091E+02  0.34915709222E+03  0.35521173516E+03  0.47000000000E+01 0.  1.
<mgrwt>
<rscale>  0 0.27502137E+03</rscale>
<asrwt>0</asrwt>
<pdfrwt beam="1">  1        2 0.50055107E+00 0.27502137E+03</pdfrwt>
<pdfrwt beam="2">  1       -2 0.89412405E-03 0.27502137E+03</pdfrwt>
<totfact> 0.36639427E+03</totfact>
</mgrwt>
</event>
<event>
 9    1  0.2073852E-002  0.2750009E+03  0.7818608E-02  0.1098451E+00
         -1   -1    0    0    0  501 -0.00000000000E+00  0.00000000000E+00  0.96249624160E+02  0.96249624160E+02  0.00000000000E+00 0. -1.
          1   -1    0    0  501    0  0.00000000000E+00 -0.00000000000E+00 -0.19643056480E+03  0.19643056480E+03  0.00000000000E+00 0. -1.
         36    2    1    2    0    0 -0.35527136788E-14  0.00000000000E+00 -0.10018094064E+03  0.29268018896E+03  0.27500085844E+03 0.  0.
         25    2    3    3    0    0 -0.17962554554E+02 -0.19822880861E+02 -0.22995491620E+01  0.13118820039E+03  0.12841127686E+03 0.  0.
         25    2    3    3    0    0  0.17962554554E+02  0.19822880861E+02 -0.97881391482E+02  0.16149198857E+03  0.12563158680E+03 0.  0.
          5    1    4    4  502    0  0.25338234579E+02 -0.19773736221E+02 -0.54350920587E+02  0.63317764840E+02  0.47000000000E+01 0.  1.
         -5    1    4    4    0  502 -0.43300789133E+02 -0.49144640244E-01  0.52051371425E+02  0.67870435552E+02  0.47000000000E+01 0.  1.
          5    1    5    5  503    0  0.46432184301E+02 -0.97547839987E+01 -0.10876952245E+03  0.11876027351E+03  0.47000000000E+01 0. -1.
         -5    1    5    5    0  503 -0.28469629747E+02  0.29577664860E+02  0.10888130965E+02  0.42731715065E+02  0.47000000000E+01 0. -1.
<mgrwt>
<rscale>  0 0.27500086E+03</rscale>
<asrwt>0</asrwt>
<pdfrwt beam="1">  1        1 0.30220087E-01 0.27500086E+03</pdfrwt>
<pdfrwt beam="2">  1       -1 0.14807634E-01 0.27500086E+03</pdfrwt>
<totfact> 0.48903419E+03</totfact>
</mgrwt>
</event>
<event>
 9    1  0.2073852E-002  0.2752279E+03  0.7818608E-02  0.1098324E+00
         -2   -1    0    0    0  501 -0.00000000000E+00  0.00000000000E+00  0.19637780759E+02  0.19637780759E+02  0.00000000000E+00 0.  1.
          2   -1    0    0  501    0  0.00000000000E+00 -0.00000000000E+00 -0.96434524306E+03  0.96434524306E+03  0.00000000000E+00 0.  1.
         36    2    1    2    0    0 -0.71054273576E-14 -0.35527136788E-14 -0.94470746230E+03  0.98398302382E+03  0.27522790890E+03 0.  0.
         25    2    3    3    0    0 -0.44902611488E+02 -0.15516636071E+02 -0.46708090400E+03  0.48690568579E+03  0.12905644295E+03 0.  0.
         25    2    3    3    0    0  0.44902611488E+02  0.15516636071E+02 -0.47762655830E+03  0.49707733802E+03  0.12923521295E+03 0.  0.
          5    1    4    4  502    0 -0.30083068306E+01  0.15103254702E+02 -0.40724754044E+03  0.40756570932E+03  0.47000000000E+01 0. -1.
         -5    1    4    4    0  502 -0.41894304658E+02 -0.30619890772E+02 -0.59833363552E+02  0.79339976479E+02  0.47000000000E+01 0. -1.
          5    1    5    5  503    0  0.27066494299E+02  0.50493183386E+02 -0.43558657862E+03  0.43936307783E+03  0.47000000000E+01 0. -1.
         -5    1    5    5    0  503  0.17836117189E+02 -0.34976547315E+02 -0.42039979683E+02  0.57714260198E+02  0.47000000000E+01 0. -1.
<mgrwt>
<rscale>  0 0.27522791E+03</rscale>
<asrwt>0</asrwt>
<pdfrwt beam="1">  1        2 0.14836080E+00 0.27522791E+03</pdfrwt>
<pdfrwt beam="2">  1       -2 0.30211972E-02 0.27522791E+03</pdfrwt>
<totfact> 0.11551653E+04</totfact>
</mgrwt>
</event>
<event>
 9    1  0.2073852E-002  0.2751292E+03  0.7818608E-02  0.1098379E+00
          1   -1    0    0  501    0  0.00000000000E+00  0.00000000000E+00  0.73253351015E+02  0.73253351015E+02  0.00000000000E+00 0.  1.
         -1   -1    0    0    0  501 -0.00000000000E+00 -0.00000000000E+00 -0.25833649080E+03  0.25833649080E+03  0.00000000000E+00 0.  1.
         36    2    1    2    0    0  0.00000000000E+00  0.71054273576E-14 -0.18508313978E+03  0.33158984181E+03  0.27512915978E+03 0.  0.
         25    2    3    3    0    0 -0.37840443908E+02 -0.24748106303E+02 -0.45320066731E+02  0.14071130584E+03  0.12530520812E+03 0.  0.
         25    2    3    3    0    0  0.37840443908E+02  0.24748106303E+02 -0.13976307305E+03  0.19087853597E+03  0.12188736992E+03 0.  0.
          5    1    4    4  502    0 -0.47706862208E+02 -0.20730548805E+02 -0.84776144766E+02  0.99573013798E+02  0.47000000000E+01 0. -1.
         -5    1    4    4    0  502  0.98664182996E+01 -0.40175574973E+01  0.39456078034E+02  0.41138292042E+02  0.47000000000E+01 0. -1.
          5    1    5    5  503    0  0.17434854296E+02 -0.47838284313E+02 -0.36030989784E+02  0.62552360587E+02  0.47000000000E+01 0.  1.
         -5    1    5    5    0  503  0.20405589612E+02  0.72586390615E+02 -0.10373208327E+03  0.12832617539E+03  0.47000000000E+01 0.  1.
<mgrwt>
<rscale>  0 0.27512916E+03</rscale>
<asrwt>0</asrwt>
<pdfrwt beam="1">  1        1 0.11269746E-01 0.27512916E+03</pdfrwt>
<pdfrwt beam="2">  1       -1 0.39744075E-01 0.27512916E+03</pdfrwt>
<totfact> 0.33939953E+03</totfact>
</mgrwt>
</event>
<event>
 9    1  0.2073852E-002  0.2753223E+03  0.7818608E-02  0.1098272E+00
          1   -1    0    0  501    0  0.00000000000E+00  0.00000000000E+00  0.36614827139E+02  0.36614827139E+02  0.00000000000E+00 0.  1.
         -1   -1    0    0    0  501 -0.00000000000E+00 -0.00000000000E+00 -0.51756622675E+03  0.51756622675E+03  0.00000000000E+00 0.  1.
         36    2    1    2    0    0  0.71054273576E-14 -0.71054273576E-14 -0.48095139961E+03  0.55418105388E+03  0.27532234145E+03 0.  0.
         25    2    3    3    0    0  0.26501610507E+02 -0.44034518416E+02 -0.22488610233E+03  0.26496544045E+03  0.13035164533E+03 0.  0.
         25    2    3    3    0    0 -0.26501610507E+02  0.44034518416E+02 -0.25606529727E+03  0.28921561343E+03  0.12423711367E+03 0.  0.
          5    1    4    4  502    0 -0.22975799146E+02 -0.69352878784E+02 -0.17666434565E+03  0.19123307812E+03  0.47000000000E+01 0. -1.
         -5    1    4    4    0  502  0.49477409654E+02  0.25318360368E+02 -0.48221756683E+02  0.73732362334E+02  0.47000000000E+01 0. -1.
          5    1    5    5  503    0 -0.38958781916E+02  0.57164230253E+02 -0.26085487699E+03  0.26991275027E+03  0.47000000000E+01 0.  1.
         -5    1    5    5    0  503  0.12457171408E+02 -0.13129711837E+02  0.47895797168E+01  0.19302863163E+02  0.47000000000E+01 0.  1.
<mgrwt>
<rscale>  0 0.27532234E+03</rscale>
<asrwt>0</asrwt>
<pdfrwt beam="1">  1        1 0.56330505E-02 0.27532234E+03</pdfrwt>
<pdfrwt beam="2">  1       -1 0.79625571E-01 0.27532234E+03</pdfrwt>
<totfact> 0.23188993E+03</totfact>
</mgrwt>
</event>
<event>
 9    1  0.2073852E-002  0.2748206E+03  0.7818608E-02  0.1098552E+00
         -2   -1    0    0    0  501 -0.00000000000E+00  0.00000000000E+00  0.72446778124E+01  0.72446778124E+01  0.00000000000E+00 0.  1.
          2   -1    0    0  501    0  0.00000000000E+00 -0.00000000000E+00 -0.26062712372E+04  0.26062712372E+04  0.00000000000E+00 0.  1.
         36    2    1    2    0    0  0.14210854715E-13 -0.71054273576E-14 -0.25990265594E+04  0.26135159150E+04  0.27482063536E+03 0.  0.
         25    2    3    3    0    0 -0.49308816515E+02  0.20923273457E+02 -0.10916093307E+04  0.11000987616E+04  0.12544804374E+03 0.  0.
         25    2    3    3    0    0  0.49308816515E+02 -0.20923273457E+02 -0.15074172288E+04  0.15134171535E+04  0.12351370812E+03 0.  0.
          5    1    4    4  502    0 -0.61193912215E+02 -0.14420318982E+02 -0.98578021001E+03  0.98779418552E+03  0.47000000000E+01 0. -1.
         -5    1    4    4    0  502  0.11885095700E+02  0.35343592439E+02 -0.10582912064E+03  0.11230457605E+03  0.47000000000E+01 0. -1.
          5    1    5    5  503    0 -0.18478940963E+02  0.35495963104E+02 -0.70579800566E+03  0.70694720415E+03  0.47000000000E+01 0.  1.
         -5    1    5    5    0  503  0.67787757479E+02 -0.56419236562E+02 -0.80161922311E+03  0.80646994933E+03  0.47000000000E+01 0.  1.
<mgrwt>
<rscale>  0 0.27482064E+03</rscale>
<asrwt>0</asrwt>
<pdfrwt beam="1">  1        2 0.40096528E+00 0.27482064E+03</pdfrwt>
<pdfrwt beam="2">  1       -2 0.11145645E-02 0.27482064E+03</pdfrwt>
<totfact> 0.63795932E+03</totfact>
</mgrwt>
</event>
<event>
 9    1  0.2073852E-002  0.2727636E+03  0.7818608E-02  0.1099708E+00
          1   -1    0    0  501    0  0.00000000000E+00  0.00000000000E+00  0.12987289745E+04  0.12987289745E+04  0.00000000000E+00 0.  1.
         -1   -1    0    0    0  501 -0.00000000000E+00 -0.00000000000E+00 -0.14321695114E+02  0.14321695114E+02  0.00000000000E+00 0.  1.
         36    2    1    2    0    0  0.00000000000E+00  0.00000000000E+00  0.12844072794E+04  0.13130506696E+04  0.27276363693E+03 0.  0.
         25    2    3    3    0    0 -0.33723576229E+02  0.35391504047E+02  0.54194305808E+03  0.55855527602E+03  0.12606300016E+03 0.  0.
         25    2    3    3    0    0  0.33723576229E+02 -0.35391504047E+02  0.74246422127E+03  0.75449539357E+03  0.12498136218E+03 0.  0.
          5    1    4    4  502    0 -0.12763063146E+02  0.44506876757E+02  0.53055051342E+03  0.53258773470E+03  0.47000000000E+01 0. -1.
         -5    1    4    4    0  502 -0.20960513083E+02 -0.91153727094E+01  0.11392544666E+02  0.25967541322E+02  0.47000000000E+01 0. -1.
          5    1    5    5  503    0 -0.44841205100E+02 -0.32222839302E+02  0.30105640631E+03  0.30611451261E+03  0.47000000000E+01 0. -1.
         -5    1    5    5    0  503  0.78564781329E+02 -0.31686647454E+01  0.44140781496E+03  0.44838088096E+03  0.47000000000E+01 0. -1.
<mgrwt>
<rscale>  0 0.27276364E+03</rscale>
<asrwt>0</asrwt>
<pdfrwt beam="1">  1        1 0.19980436E+00 0.27276364E+03</pdfrwt>
<pdfrwt beam="2">  1       -1 0.22033387E-02 0.27276364E+03</pdfrwt>
<totfact> 0.58153566E+03</totfact>
</mgrwt>
</event>
<event>
 9    1  0.2073852E-002  0.2749083E+03  0.7818608E-02  0.1098503E+00
         -4   -1    0    0    0  501 -0.00000000000E+00  0.00000000000E+00  0.19880766149E+02  0.19880766149E+02  0.00000000000E+00 0. -1.
          4   -1    0    0  501    0  0.00000000000E+00 -0.00000000000E+00 -0.95034806355E+03  0.95034806355E+03  0.00000000000E+00 0. -1.
         36    2    1    2    0    0  0.00000000000E+00  0.71054273576E-14 -0.93046729740E+03  0.97022882970E+03  0.27490833099E+03 0.  0.
         25    2    3    3    0    0  0.14501768904E+02 -0.45786138825E+02 -0.37039021922E+03  0.39438038225E+03  0.12665030438E+03 0.  0.
         25    2    3    3    0    0 -0.14501768904E+02  0.45786138825E+02 -0.56007707818E+03  0.57584844745E+03  0.12493369889E+03 0.  0.
          5    1    4    4  502    0  0.28419830611E+02 -0.50279986035E+01 -0.92772638599E+01  0.30677763390E+02  0.47000000000E+01 0. -1.
         -5    1    4    4    0  502 -0.13918061706E+02 -0.40758140222E+02 -0.36111295536E+03  0.36370261886E+03  0.47000000000E+01 0. -1.
          5    1    5    5  503    0  0.73909317545E+01  0.50451776054E+02 -0.54721890634E+03  0.54960952415E+03  0.47000000000E+01 0. -1.
         -5    1    5    5    0  503 -0.21892700659E+02 -0.46656372292E+01 -0.12858171840E+02  0.26238923300E+02  0.47000000000E+01 0. -1.
<mgrwt>
<rscale>  0 0.27490833E+03</rscale>
<asrwt>0</asrwt>
<pdfrwt beam="1">  1        4 0.14620737E+00 0.27490833E+03</pdfrwt>
<pdfrwt beam="2">  1       -4 0.30585798E-02 0.27490833E+03</pdfrwt>
<totfact> 0.33083908E+02</totfact>
</mgrwt>
</event>
<event>
 9    1  0.2073852E-002  0.2750064E+03  0.7818608E-02  0.1098448E+00
          2   -1    0    0  501    0  0.00000000000E+00  0.00000000000E+00  0.18404922946E+03  0.18404922946E+03  0.00000000000E+00 0. -1.
         -2   -1    0    0    0  501 -0.00000000000E+00 -0.00000000000E+00 -0.10272862215E+03  0.10272862215E+03  0.00000000000E+00 0. -1.
         36    2    1    2    0    0 -0.14210854715E-13 -0.71054273576E-14  0.81320607313E+02  0.28677785160E+03  0.27500635447E+03 0.  0.
         25    2    3    3    0    0 -0.40428495870E+02 -0.28634019023E+02  0.62495165256E+02  0.14990615962E+03  0.12693242567E+03 0.  0.
         25    2    3    3    0    0  0.40428495870E+02  0.28634019023E+02  0.18825442057E+02  0.13687169199E+03  0.12619466104E+03 0.  0.
          5    1    4    4  502    0  0.29521439697E+02  0.15430451606E+02 -0.14687719610E+02  0.36707401786E+02  0.47000000000E+01 0.  1.
         -5    1    4    4    0  502 -0.69949935568E+02 -0.44064470630E+02  0.77182884866E+02  0.11319875783E+03  0.47000000000E+01 0.  1.
          5    1    5    5  503    0  0.21797981648E+02 -0.36863001516E+02  0.46343791219E+02  0.63276139810E+02  0.47000000000E+01 0.  1.
         -5    1    5    5    0  503  0.18630514223E+02  0.65497020539E+02 -0.27518349163E+02  0.73595552178E+02  0.47000000000E+01 0.  1.
<mgrwt>
<rscale>  0 0.27500635E+03</rscale>
<asrwt>0</asrwt>
<pdfrwt beam="1">  1        2 0.28315266E-01 0.27500635E+03</pdfrwt>
<pdfrwt beam="2">  1       -2 0.15804403E-01 0.27500635E+03</pdfrwt>
<totfact> 0.58235865E+03</totfact>
</mgrwt>
</event>
<event>
 9    1  0.2073852E-002  0.2743831E+03  0.7818608E-02  0.1098797E+00
         -2   -1    0    0    0  501 -0.00000000000E+00  0.00000000000E+00  0.34701430299E+02  0.34701430299E+02  0.00000000000E+00 0. -1.
          2   -1    0    0  501    0  0.00000000000E+00 -0.00000000000E+00 -0.54238469321E+03  0.54238469321E+03  0.00000000000E+00 0. -1.
         36    2    1    2    0    0 -0.71054273576E-14  0.00000000000E+00 -0.50768326291E+03  0.57708612351E+03  0.27438312358E+03 0.  0.
         25    2    3    3    0    0 -0.44741071816E+02  0.51028024693E+02 -0.28201162946E+03  0.31564760973E+03  0.12448787718E+03 0.  0.
         25    2    3    3    0    0  0.44741071816E+02 -0.51028024693E+02 -0.22567163345E+03  0.26143851379E+03  0.11321125180E+03 0.  0.
          5    1    4    4  502    0  0.19428727698E+02  0.23387751298E+02 -0.65913022630E+01  0.31464227883E+02  0.47000000000E+01 0. -1.
         -5    1    4    4    0  502 -0.64169799514E+02  0.27640273394E+02 -0.27542032720E+03  0.28418338184E+03  0.47000000000E+01 0. -1.
          5    1    5    5  503    0  0.59950569233E+02 -0.72654702972E+02 -0.21033960914E+03  0.23051598163E+03  0.47000000000E+01 0. -1.
         -5    1    5    5    0  503 -0.15209497417E+02  0.21626678279E+02 -0.15332024313E+02  0.30922532151E+02  0.47000000000E+01 0. -1.
<mgrwt>
<rscale>  0 0.27438312E+03</rscale>
<asrwt>0</asrwt>
<pdfrwt beam="1">  1        2 0.83443794E-01 0.27438312E+03</pdfrwt>
<pdfrwt beam="2">  1       -2 0.53386819E-02 0.27438312E+03</pdfrwt>
<totfact> 0.99939132E+03</totfact>
</mgrwt>
</event>
<event>
 9    1  0.2073852E-002  0.2752302E+03  0.7818608E-02  0.1098323E+00
          2   -1    0    0  501    0  0.00000000000E+00  0.00000000000E+00  0.17142213999E+04  0.17142213999E+04  0.00000000000E+00 0.  1.
         -2   -1    0    0    0  501 -0.00000000000E+00 -0.00000000000E+00 -0.11047532227E+02  0.11047532227E+02  0.00000000000E+00 0.  1.
         36    2    1    2    0    0  0.14210854715E-13  0.00000000000E+00  0.17031738677E+04  0.17252689321E+04  0.27523020299E+03 0.  0.
         25    2    3    3    0    0  0.34304836069E+02 -0.12377796795E+02  0.54190295310E+03  0.55760943278E+03  0.12625148440E+03 0.  0.
         25    2    3    3    0    0 -0.34304836069E+02  0.12377796795E+02  0.11612709146E+04  0.11676594993E+04  0.11639818623E+03 0.  0.
          5    1    4    4  502    0 -0.41568061253E+02  0.16981960017E+02  0.27030244370E+03  0.27404706120E+03  0.47000000000E+01 0.  1.
         -5    1    4    4    0  502  0.75872897321E+02 -0.29359756811E+02  0.27160050941E+03  0.28356237158E+03  0.47000000000E+01 0.  1.
          5    1    5    5  503    0 -0.10913839363E+02  0.62856404698E+02  0.50916058099E+03  0.51316335288E+03  0.47000000000E+01 0. -1.
         -5    1    5    5    0  503 -0.23390996705E+02 -0.50478607903E+02  0.65211033356E+03  0.65449614645E+03  0.47000000000E+01 0. -1.
<mgrwt>
<rscale>  0 0.27523020E+03</rscale>
<asrwt>0</asrwt>
<pdfrwt beam="1">  1        2 0.26372616E+00 0.27523020E+03</pdfrwt>
<pdfrwt beam="2">  1       -2 0.16996217E-02 0.27523020E+03</pdfrwt>
<totfact> 0.10314378E+04</totfact>
</mgrwt>
</event>
<event>
 9    1  0.2073852E-002  0.2749241E+03  0.7818608E-02  0.1098494E+00
         -1   -1    0    0    0  501 -0.00000000000E+00  0.00000000000E+00  0.16951918791E+02  0.16951918791E+02  0.00000000000E+00 0.  1.
          1   -1    0    0  501    0  0.00000000000E+00 -0.00000000000E+00 -0.11146711163E+04  0.11146711163E+04  0.00000000000E+00 0.  1.
         36    2    1    2    0    0  0.71054273576E-14 -0.35527136788E-14 -0.10977191976E+04  0.11316230351E+04  0.27492409311E+03 0.  0.
         25    2    3    3    0    0  0.54439824217E+02  0.21106347368E+02 -0.56082418826E+03  0.57729353445E+03  0.12383409230E+03 0.  0.
         25    2    3    3    0    0 -0.54439824217E+02 -0.21106347368E+02 -0.53689500929E+03  0.55432950069E+03  0.12496308243E+03 0.  0.
          5    1    4    4  502    0  0.74734983334E+02 -0.26415510385E+02 -0.41461656744E+03  0.42215173211E+03  0.47000000000E+01 0.  1.
         -5    1    4    4    0  502 -0.20295159118E+02  0.47521857754E+02 -0.14620762082E+03  0.15514180234E+03  0.47000000000E+01 0.  1.
          5    1    5    5  503    0 -0.16309336368E+02  0.38990939234E+02 -0.37518405672E+03  0.37758635332E+03  0.47000000000E+01 0.  1.
         -5    1    5    5    0  503 -0.38130487849E+02 -0.60097286603E+02 -0.16171095257E+03  0.17674314737E+03  0.47000000000E+01 0.  1.
<mgrwt>
<rscale>  0 0.27492409E+03</rscale>
<asrwt>0</asrwt>
<pdfrwt beam="1">  1        1 0.17148784E+00 0.27492409E+03</pdfrwt>
<pdfrwt beam="2">  1       -1 0.26079879E-02 0.27492409E+03</pdfrwt>
<totfact> 0.61071969E+03</totfact>
</mgrwt>
</event>
<event>
 9    1  0.2073852E-002  0.2768466E+03  0.7818608E-02  0.1097424E+00
         -1   -1    0    0    0  501 -0.00000000000E+00  0.00000000000E+00  0.14660218722E+03  0.14660218722E+03  0.00000000000E+00 0. -1.
          1   -1    0    0  501    0  0.00000000000E+00 -0.00000000000E+00 -0.13070074405E+03  0.13070074405E+03  0.00000000000E+00 0. -1.
         36    2    1    2    0    0 -0.71054273576E-14 -0.35527136788E-14  0.15901443174E+02  0.27730293127E+03  0.27684663588E+03 0.  0.
         25    2    3    3    0    0 -0.51796633046E+02 -0.26481068993E+02  0.19162748788E+02  0.13823895041E+03  0.12393005390E+03 0.  0.
         25    2    3    3    0    0  0.51796633046E+02  0.26481068993E+02 -0.32613056136E+01  0.13906398086E+03  0.12626961808E+03 0.  0.
          5    1    4    4  502    0 -0.31236403425E+02 -0.31900388666E+01 -0.51729574493E+02  0.60695371522E+02  0.47000000000E+01 0. -1.
         -5    1    4    4    0  502 -0.20560229620E+02 -0.23291030127E+02  0.70892323281E+02  0.77543578887E+02  0.47000000000E+01 0. -1.
          5    1    5    5  503    0  0.89311458718E+02  0.35733430442E+02 -0.16977209275E+02  0.97794326749E+02  0.47000000000E+01 0.  1.
         -5    1    5    5    0  503 -0.37514825672E+02 -0.92523614485E+01  0.13715903662E+02  0.41269654116E+02  0.47000000000E+01 0.  1.
<mgrwt>
<rscale>  0 0.27684664E+03</rscale>
<asrwt>0</asrwt>
<pdfrwt beam="1">  1        1 0.20107807E-01 0.27684664E+03</pdfrwt>
<pdfrwt beam="2">  1       -1 0.22554183E-01 0.27684664E+03</pdfrwt>
<totfact> 0.41689058E+03</totfact>
</mgrwt>
</event>
<event>
 9    1  0.2073852E-002  0.2746083E+03  0.7818608E-02  0.1098671E+00
          1   -1    0    0  501    0  0.00000000000E+00  0.00000000000E+00  0.43227669849E+03  0.43227669849E+03  0.00000000000E+00 0.  1.
         -1   -1    0    0    0  501 -0.00000000000E+00 -0.00000000000E+00 -0.43611946871E+02  0.43611946871E+02  0.00000000000E+00 0.  1.
         36    2    1    2    0    0  0.35527136788E-14 -0.71054273576E-14  0.38866475162E+03  0.47588864537E+03  0.27460829127E+03 0.  0.
         25    2    3    3    0    0  0.18784909168E+02  0.53247426264E+02  0.17824610666E+03  0.22427005443E+03  0.12384353660E+03 0.  0.
         25    2    3    3    0    0 -0.18784909168E+02 -0.53247426264E+02  0.21041864496E+03  0.25161859093E+03  0.12588783873E+03 0.  0.
          5    1    4    4  502    0 -0.62941872702E+01 -0.15082593880E+02 -0.11806170208E+02  0.20702103432E+02  0.47000000000E+01 0.  1.
         -5    1    4    4    0  502  0.25079096438E+02  0.68330020144E+02  0.19005227687E+03  0.20356795100E+03  0.47000000000E+01 0.  1.
          5    1    5    5  503    0 -0.46277256467E+02 -0.61885453724E+02  0.58804684470E+02  0.97218695549E+02  0.47000000000E+01 0.  1.
         -5    1    5    5    0  503  0.27492347299E+02  0.86380274595E+01  0.15161396049E+03  0.15439989538E+03  0.47000000000E+01 0.  1.
<mgrwt>
<rscale>  0 0.27460829E+03</rscale>
<asrwt>0</asrwt>
<pdfrwt beam="1">  1        1 0.66504105E-01 0.27460829E+03</pdfrwt>
<pdfrwt beam="2">  1       -1 0.67095306E-02 0.27460829E+03</pdfrwt>
<totfact> 0.61388150E+03</totfact>
</mgrwt>
</event>
<event>
 9    1  0.2073852E-002  0.2759332E+03  0.7818608E-02  0.1097931E+00
         -2   -1    0    0    0  501 -0.00000000000E+00  0.00000000000E+00  0.75020342764E+01  0.75020342764E+01  0.00000000000E+00 0. -1.
          2   -1    0    0  501    0  0.00000000000E+00 -0.00000000000E+00 -0.25372829003E+04  0.25372829003E+04  0.00000000000E+00 0. -1.
         36    2    1    2    0    0  0.00000000000E+00  0.71054273576E-14 -0.25297808660E+04  0.25447849345E+04  0.27593320414E+03 0.  0.
         25    2    3    3    0    0  0.18320893908E+02  0.62470638873E+02 -0.15874611871E+04  0.15920231858E+04  0.10132407267E+03 0.  0.
         25    2    3    3    0    0 -0.18320893908E+02 -0.62470638873E+02 -0.94231967886E+03  0.95276174871E+03  0.12470098944E+03 0.  0.
          5    1    4    4  502    0  0.31612799452E+02  0.82794186206E+02 -0.14170310376E+04  0.14198074862E+04  0.47000000000E+01 0.  1.
         -5    1    4    4    0  502 -0.13291905543E+02 -0.20323547332E+02 -0.17043014954E+03  0.17221569964E+03  0.47000000000E+01 0.  1.
          5    1    5    5  503    0  0.44782650647E+02 -0.32359790887E+02 -0.21358985950E+03  0.22067025161E+03  0.47000000000E+01 0.  1.
         -5    1    5    5    0  503 -0.63103544556E+02 -0.30110847987E+02 -0.72872981936E+03  0.73209149710E+03  0.47000000000E+01 0.  1.
<mgrwt>
<rscale>  0 0.27593320E+03</rscale>
<asrwt>0</asrwt>
<pdfrwt beam="1">  1        2 0.39035111E+00 0.27593320E+03</pdfrwt>
<pdfrwt beam="2">  1       -2 0.11541594E-02 0.27593320E+03</pdfrwt>
<totfact> 0.66202538E+03</totfact>
</mgrwt>
</event>
<event>
 9    1  0.2073852E-002  0.2735400E+03  0.7818608E-02  0.1099271E+00
         -1   -1    0    0    0  501 -0.00000000000E+00  0.00000000000E+00  0.18048955556E+03  0.18048955556E+03  0.00000000000E+00 0. -1.
          1   -1    0    0  501    0  0.00000000000E+00 -0.00000000000E+00 -0.10364051476E+03  0.10364051476E+03  0.00000000000E+00 0. -1.
         36    2    1    2    0    0  0.35527136788E-14  0.00000000000E+00  0.76849040806E+02  0.28413007032E+03  0.27353998206E+03 0.  0.
         25    2    3    3    0    0  0.26992843640E+02  0.15361759572E+01 -0.18683685552E+02  0.12343067102E+03  0.11897511083E+03 0.  0.
         25    2    3    3    0    0 -0.26992843640E+02 -0.15361759572E+01  0.95532726357E+02  0.16069939930E+03  0.12635988955E+03 0.  0.
          5    1    4    4  502    0  0.48483458465E+02 -0.45830707221E+02 -0.23717217138E+02  0.70962637056E+02  0.47000000000E+01 0. -1.
         -5    1    4    4    0  502 -0.21490614825E+02  0.47366883178E+02  0.50335315862E+01  0.52468033961E+02  0.47000000000E+01 0. -1.
          5    1    5    5  503    0  0.40469343088E+01  0.56642126296E+02  0.68947935565E+02  0.89446162396E+02  0.47000000000E+01 0. -1.
         -5    1    5    5    0  503 -0.31039777949E+02 -0.58178302253E+02  0.26584790792E+02  0.71253236906E+02  0.47000000000E+01 0. -1.
<mgrwt>
<rscale>  0 0.27353998E+03</rscale>
<asrwt>0</asrwt>
<pdfrwt beam="1">  1        1 0.15944695E-01 0.27353998E+03</pdfrwt>
<pdfrwt beam="2">  1       -1 0.27767624E-01 0.27353998E+03</pdfrwt>
<totfact> 0.39841418E+03</totfact>
</mgrwt>
</event>
<event>
 9    1  0.2073852E-002  0.2756454E+03  0.7818608E-02  0.1098091E+00
          1   -1    0    0  501    0  0.00000000000E+00  0.00000000000E+00  0.65262144781E+03  0.65262144781E+03  0.00000000000E+00 0.  1.
         -1   -1    0    0    0  501 -0.00000000000E+00 -0.00000000000E+00 -0.29105841076E+02  0.29105841076E+02  0.00000000000E+00 0.  1.
         36    2    1    2    0    0  0.00000000000E+00  0.17763568394E-14  0.62351560673E+03  0.68172728888E+03  0.27564539642E+03 0.  0.
         25    2    3    3    0    0 -0.40904440591E+02  0.15328769594E+02  0.20898308011E+03  0.24759457220E+03  0.12538341188E+03 0.  0.
         25    2    3    3    0    0  0.40904440591E+02 -0.15328769594E+02  0.41453252662E+03  0.43413271668E+03  0.12135013650E+03 0.  0.
          5    1    4    4  502    0  0.23408328687E+02  0.52506293562E+02  0.79130697835E+02  0.97921489242E+02  0.47000000000E+01 0. -1.
         -5    1    4    4    0  502 -0.64312769277E+02 -0.37177523968E+02  0.12985238228E+03  0.14967308296E+03  0.47000000000E+01 0. -1.
          5    1    5    5  503    0 -0.40192507009E+02 -0.24370240693E+02  0.15152644119E+03  0.15871892966E+03  0.47000000000E+01 0. -1.
         -5    1    5    5    0  503  0.81096947600E+02  0.90414710990E+01  0.26300608543E+03  0.27541378702E+03  0.47000000000E+01 0. -1.
<mgrwt>
<rscale>  0 0.27564540E+03</rscale>
<asrwt>0</asrwt>
<pdfrwt beam="1">  1        1 0.10040329E+00 0.27564540E+03</pdfrwt>
<pdfrwt beam="2">  1       -1 0.44778222E-02 0.27564540E+03</pdfrwt>
<totfact> 0.64640736E+03</totfact>
</mgrwt>
</event>
<event>
 9    1  0.2073852E-002  0.2749209E+03  0.7818608E-02  0.1098496E+00
         -2   -1    0    0    0  501 -0.00000000000E+00  0.00000000000E+00  0.15733476788E+02  0.15733476788E+02  0.00000000000E+00 0. -1.
          2   -1    0    0  501    0  0.00000000000E+00 -0.00000000000E+00 -0.12009664969E+04  0.12009664969E+04  0.00000000000E+00 0. -1.
         36    2    1    2    0    0 -0.71054273576E-14  0.00000000000E+00 -0.11852330201E+04  0.12166999736E+04  0.27492092319E+03 0.  0.
         25    2    3    3    0    0  0.43191404397E+02  0.14429757365E+02 -0.53935329287E+03  0.55560651815E+03  0.12539104104E+03 0.  0.
         25    2    3    3    0    0 -0.43191404397E+02 -0.14429757365E+02 -0.64587972719E+03  0.66109345549E+03  0.13345493463E+03 0.  0.
          5    1    4    4  502    0  0.80655110107E+01  0.34214180089E+02 -0.49184303296E+03  0.49311998708E+03  0.47000000000E+01 0. -1.
         -5    1    4    4    0  502  0.35125893386E+02 -0.19784422724E+02 -0.47510259910E+02  0.62486531072E+02  0.47000000000E+01 0. -1.
          5    1    5    5  503    0 -0.11634018611E+02 -0.89811888187E+01 -0.61851832355E+03  0.61871077145E+03  0.47000000000E+01 0. -1.
         -5    1    5    5    0  503 -0.31557385785E+02 -0.54485685464E+01 -0.27361403643E+02  0.42382684036E+02  0.47000000000E+01 0. -1.
<mgrwt>
<rscale>  0 0.27492092E+03</rscale>
<asrwt>0</asrwt>
<pdfrwt beam="1">  1        2 0.18476412E+00 0.27492092E+03</pdfrwt>
<pdfrwt beam="2">  1       -2 0.24205343E-02 0.27492092E+03</pdfrwt>
<totfact> 0.11619164E+04</totfact>
</mgrwt>
</event>
<event>
 9    1  0.2073852E-002  0.2714212E+03  0.7818608E-02  0.1100469E+00
          1   -1    0    0  501    0  0.00000000000E+00  0.00000000000E+00  0.16606960762E+04  0.16606960762E+04  0.00000000000E+00 0. -1.
         -1   -1    0    0    0  501 -0.00000000000E+00 -0.00000000000E+00 -0.11090148177E+02  0.11090148177E+02  0.00000000000E+00 0. -1.
         36    2    1    2    0    0  0.35527136788E-14  0.14210854715E-13  0.16496059280E+04  0.16717862244E+04  0.27142118975E+03 0.  0.
         25    2    3    3    0    0 -0.11475649408E+02  0.46786299288E+02  0.10313750995E+04  0.10392984748E+04  0.11868477395E+03 0.  0.
         25    2    3    3    0    0  0.11475649408E+02 -0.46786299288E+02  0.61823082848E+03  0.63248774951E+03  0.12454215218E+03 0.  0.
          5    1    4    4  502    0 -0.63850073710E+02  0.38804494568E+02  0.59064239834E+03  0.59536808231E+03  0.47000000000E+01 0. -1.
         -5    1    4    4    0  502  0.52374424303E+02  0.79818047195E+01  0.44073270118E+03  0.44393039254E+03  0.47000000000E+01 0. -1.
          5    1    5    5  503    0 -0.14193474109E+02  0.31382112757E+02  0.35403388343E+03  0.35573638038E+03  0.47000000000E+01 0. -1.
         -5    1    5    5    0  503  0.25669123517E+02 -0.78168412044E+02  0.26419694505E+03  0.27675136913E+03  0.47000000000E+01 0. -1.
<mgrwt>
<rscale>  0 0.27142119E+03</rscale>
<asrwt>0</asrwt>
<pdfrwt beam="1">  1        1 0.25549151E+00 0.27142119E+03</pdfrwt>
<pdfrwt beam="2">  1       -1 0.17061780E-02 0.27142119E+03</pdfrwt>
<totfact> 0.48511998E+03</totfact>
</mgrwt>
</event>
<event>
 9    1  0.2073852E-002  0.2726899E+03  0.7818608E-02  0.1099750E+00
          2   -1    0    0  501    0  0.00000000000E+00  0.00000000000E+00  0.11238944569E+04  0.11238944569E+04  0.00000000000E+00 0.  1.
         -2   -1    0    0    0  501 -0.00000000000E+00 -0.00000000000E+00 -0.16540649775E+02  0.16540649775E+02  0.00000000000E+00 0.  1.
         36    2    1    2    0    0  0.71054273576E-14  0.00000000000E+00  0.11073538071E+04  0.11404351066E+04  0.27268989417E+03 0.  0.
         25    2    3    3    0    0 -0.37459979274E+02 -0.21777601291E+02  0.66630365654E+03  0.67979977267E+03  0.12763092977E+03 0.  0.
         25    2    3    3    0    0  0.37459979274E+02  0.21777601291E+02  0.44105015055E+03  0.46063533397E+03  0.12562707367E+03 0.  0.
          5    1    4    4  502    0  0.40251872174E+01 -0.39103654347E+02  0.58840880011E+03  0.58973918300E+03  0.47000000000E+01 0. -1.
         -5    1    4    4    0  502 -0.41485166491E+02  0.17326053056E+02  0.77894856425E+02  0.90060589665E+02  0.47000000000E+01 0. -1.
          5    1    5    5  503    0  0.77180395326E+01 -0.39036269701E+02  0.51667102597E+02  0.65383315740E+02  0.47000000000E+01 0.  1.
         -5    1    5    5    0  503  0.29741939741E+02  0.60813870992E+02  0.38938304795E+03  0.39525201823E+03  0.47000000000E+01 0.  1.
<mgrwt>
<rscale>  0 0.27268989E+03</rscale>
<asrwt>0</asrwt>
<pdfrwt beam="1">  1        2 0.17290678E+00 0.27268989E+03</pdfrwt>
<pdfrwt beam="2">  1       -2 0.25447162E-02 0.27268989E+03</pdfrwt>
<totfact> 0.11946287E+04</totfact>
</mgrwt>
</event>
<event>
 9    1  0.2073852E-002  0.2751616E+03  0.7818608E-02  0.1098361E+00
          2   -1    0    0  501    0  0.00000000000E+00  0.00000000000E+00  0.62419856206E+03  0.62419856206E+03  0.00000000000E+00 0. -1.
         -2   -1    0    0    0  501 -0.00000000000E+00 -0.00000000000E+00 -0.30324439857E+02  0.30324439857E+02  0.00000000000E+00 0. -1.
         36    2    1    2    0    0  0.14210854715E-13  0.00000000000E+00  0.59387412220E+03  0.65452300192E+03  0.27516156530E+03 0.  0.
         25    2    3    3    0    0 -0.57406485938E+02 -0.57142328269E+01  0.27231310055E+03  0.30535393243E+03  0.12553263415E+03 0.  0.
         25    2    3    3    0    0  0.57406485938E+02  0.57142328269E+01  0.32156102166E+03  0.34916906949E+03  0.12324524881E+03 0.  0.
          5    1    4    4  502    0 -0.32124026064E+02  0.38285083130E+02  0.31623773141E+02  0.59328354676E+02  0.47000000000E+01 0. -1.
         -5    1    4    4    0  502 -0.25282459873E+02 -0.43999315957E+02  0.24068932741E+03  0.24602557775E+03  0.47000000000E+01 0. -1.
          5    1    5    5  503    0  0.82027092609E+02 -0.21337443253E+02  0.13860835022E+03  0.16253644255E+03  0.47000000000E+01 0.  1.
         -5    1    5    5    0  503 -0.24620606671E+02  0.27051676080E+02  0.18295267143E+03  0.18663262693E+03  0.47000000000E+01 0.  1.
<mgrwt>
<rscale>  0 0.27516157E+03</rscale>
<asrwt>0</asrwt>
<pdfrwt beam="1">  1        2 0.96030538E-01 0.27516157E+03</pdfrwt>
<pdfrwt beam="2">  1       -2 0.46652989E-02 0.27516157E+03</pdfrwt>
<totfact> 0.10432394E+04</totfact>
</mgrwt>
</event>
<event>
 9    1  0.2073852E-002  0.2757078E+03  0.7818608E-02  0.1098057E+00
          2   -1    0    0  501    0  0.00000000000E+00  0.00000000000E+00  0.16398494535E+04  0.16398494535E+04  0.00000000000E+00 0. -1.
         -2   -1    0    0    0  501 -0.00000000000E+00 -0.00000000000E+00 -0.11588685977E+02  0.11588685977E+02  0.00000000000E+00 0. -1.
         36    2    1    2    0    0  0.00000000000E+00  0.00000000000E+00  0.16282607675E+04  0.16514381394E+04  0.27570781901E+03 0.  0.
         25    2    3    3    0    0 -0.58534192493E+02  0.22357926963E-01  0.79777261956E+03  0.80949327060E+03  0.12414487677E+03 0.  0.
         25    2    3    3    0    0  0.58534192493E+02 -0.22357926963E-01  0.83048814791E+03  0.84194486883E+03  0.12543662200E+03 0.  0.
          5    1    4    4  502    0  0.18197576725E+02 -0.44575066164E+02  0.27918664418E+03  0.28334671449E+03  0.47000000000E+01 0. -1.
         -5    1    4    4    0  502 -0.76731769218E+02  0.44597424091E+02  0.51858597538E+03  0.52614655611E+03  0.47000000000E+01 0. -1.
          5    1    5    5  503    0  0.63980828602E+02 -0.52976878358E+02  0.56910870447E+03  0.57515815527E+03  0.47000000000E+01 0. -1.
         -5    1    5    5    0  503 -0.54466361091E+01  0.52954520431E+02  0.26137944344E+03  0.26678671356E+03  0.47000000000E+01 0. -1.
<mgrwt>
<rscale>  0 0.27570782E+03</rscale>
<asrwt>0</asrwt>
<pdfrwt beam="1">  1        2 0.25228435E+00 0.27570782E+03</pdfrwt>
<pdfrwt beam="2">  1       -2 0.17828761E-02 0.27570782E+03</pdfrwt>
<totfact> 0.10524644E+04</totfact>
</mgrwt>
</event>
<event>
 9    1  0.2073852E-002  0.2768362E+03  0.7818608E-02  0.1097430E+00
          1   -1    0    0  501    0  0.00000000000E+00  0.00000000000E+00  0.16633795562E+02  0.16633795562E+02  0.00000000000E+00 0. -1.
         -1   -1    0    0    0  501 -0.00000000000E+00 -0.00000000000E+00 -0.11518456726E+04  0.11518456726E+04  0.00000000000E+00 0. -1.
         36    2    1    2    0    0  0.00000000000E+00  0.00000000000E+00 -0.11352118771E+04  0.11684794682E+04  0.27683616409E+03 0.  0.
         25    2    3    3    0    0  0.27306308590E+02  0.35903912850E+02 -0.74099577967E+03  0.75253386873E+03  0.12327916554E+03 0.  0.
         25    2    3    3    0    0 -0.27306308590E+02 -0.35903912850E+02 -0.39421609738E+03  0.41594559944E+03  0.12477854308E+03 0.  0.
          5    1    4    4  502    0  0.50033465360E+02 -0.35675072334E+01 -0.63594843087E+03  0.63794088401E+03  0.47000000000E+01 0. -1.
         -5    1    4    4    0  502 -0.22727156770E+02  0.39471420083E+02 -0.10504734879E+03  0.11459298472E+03  0.47000000000E+01 0. -1.
          5    1    5    5  503    0  0.38705555902E+02  0.10795005576E+02 -0.62252900158E+02  0.74243961244E+02  0.47000000000E+01 0.  1.
         -5    1    5    5    0  503 -0.66011864492E+02 -0.46698918426E+02 -0.33196319723E+03  0.34170163820E+03  0.47000000000E+01 0.  1.
<mgrwt>
<rscale>  0 0.27683616E+03</rscale>
<asrwt>0</asrwt>
<pdfrwt beam="1">  1        1 0.25590462E-02 0.27683616E+03</pdfrwt>
<pdfrwt beam="2">  1       -1 0.17720698E+00 0.27683616E+03</pdfrwt>
<totfact> 0.10207419E+03</totfact>
</mgrwt>
</event>
<event>
 9    1  0.2073852E-002  0.2746468E+03  0.7818608E-02  0.1098649E+00
         -2   -1    0    0    0  501 -0.00000000000E+00  0.00000000000E+00  0.17614183127E+02  0.17614183127E+02  0.00000000000E+00 0. -1.
          2   -1    0    0  501    0  0.00000000000E+00 -0.00000000000E+00 -0.10705984147E+04  0.10705984147E+04  0.00000000000E+00 0. -1.
         36    2    1    2    0    0  0.71054273576E-14  0.00000000000E+00 -0.10529842316E+04  0.10882125978E+04  0.27464680251E+03 0.  0.
         25    2    3    3    0    0  0.49039852855E+02  0.36884692670E+02 -0.51437737796E+03  0.53148322201E+03  0.11884839334E+03 0.  0.
         25    2    3    3    0    0 -0.49039852855E+02 -0.36884692670E+02 -0.53860685360E+03  0.55672937581E+03  0.12682613065E+03 0.  0.
          5    1    4    4  502    0  0.40655524609E+02  0.26997589089E+02 -0.62690875811E+02  0.79586289069E+02  0.47000000000E+01 0.  1.
         -5    1    4    4    0  502  0.83843282458E+01  0.98871035802E+01 -0.45168650215E+03  0.45189693294E+03  0.47000000000E+01 0.  1.
          5    1    5    5  503    0 -0.82170130689E+02 -0.27650279254E+02 -0.48604746130E+03  0.49374152444E+03  0.47000000000E+01 0. -1.
         -5    1    5    5    0  503  0.33130277835E+02 -0.92344134151E+01 -0.52559392303E+02  0.62987851367E+02  0.47000000000E+01 0. -1.
<mgrwt>
<rscale>  0 0.27464680E+03</rscale>
<asrwt>0</asrwt>
<pdfrwt beam="1">  1        2 0.16470744E+00 0.27464680E+03</pdfrwt>
<pdfrwt beam="2">  1       -2 0.27098744E-02 0.27464680E+03</pdfrwt>
<totfact> 0.11700213E+04</totfact>
</mgrwt>
</event>
<event>
 9    1  0.2073852E-002  0.2754650E+03  0.7818608E-02  0.1098192E+00
         -2   -1    0    0    0  501 -0.00000000000E+00  0.00000000000E+00  0.34537699062E+02  0.34537699062E+02  0.00000000000E+00 0. -1.
          2   -1    0    0  501    0  0.00000000000E+00 -0.00000000000E+00 -0.54926168724E+03  0.54926168724E+03  0.00000000000E+00 0. -1.
         36    2    1    2    0    0 -0.71054273576E-14  0.00000000000E+00 -0.51472398818E+03  0.58379938631E+03  0.27546495138E+03 0.  0.
         25    2    3    3    0    0 -0.44041246406E+02  0.19501995239E+02 -0.30453529455E+03  0.33275337134E+03  0.12515231244E+03 0.  0.
         25    2    3    3    0    0  0.44041246406E+02 -0.19501995239E+02 -0.21018869363E+03  0.25104601496E+03  0.12854903927E+03 0.  0.
          5    1    4    4  502    0 -0.78897346976E+02 -0.18438524594E+02 -0.16365379822E+03  0.18267300354E+03  0.47000000000E+01 0.  1.
         -5    1    4    4    0  502  0.34856100570E+02  0.37940519833E+02 -0.14088149633E+03  0.15008036780E+03  0.47000000000E+01 0.  1.
          5    1    5    5  503    0  0.44862937799E+01  0.79859844789E+01 -0.20163650007E+03  0.20189916032E+03  0.47000000000E+01 0. -1.
         -5    1    5    5    0  503  0.39554952626E+02 -0.27487979718E+02 -0.85521935620E+01  0.49146854640E+02  0.47000000000E+01 0. -1.
<mgrwt>
<rscale>  0 0.27546495E+03</rscale>
<asrwt>0</asrwt>
<pdfrwt beam="1">  1        2 0.84501798E-01 0.27546495E+03</pdfrwt>
<pdfrwt beam="2">  1       -2 0.53134922E-02 0.27546495E+03</pdfrwt>
<totfact> 0.99245810E+03</totfact>
</mgrwt>
</event>
<event>
 9    1  0.2073852E-002  0.2754569E+03  0.7818608E-02  0.1098196E+00
         -2   -1    0    0    0  501 -0.00000000000E+00  0.00000000000E+00  0.29862574696E+02  0.29862574696E+02  0.00000000000E+00 0.  1.
          2   -1    0    0  501    0  0.00000000000E+00 -0.00000000000E+00 -0.63521391624E+03  0.63521391624E+03  0.00000000000E+00 0.  1.
         36    2    1    2    0    0  0.00000000000E+00  0.35527136788E-14 -0.60535134154E+03  0.66507649093E+03  0.27545687882E+03 0.  0.
         25    2    3    3    0    0 -0.44678688154E+02 -0.12786519004E+02 -0.20830582177E+03  0.24711360158E+03  0.12455575644E+03 0.  0.
         25    2    3    3    0    0  0.44678688154E+02  0.12786519004E+02 -0.39704551978E+03  0.41796288935E+03  0.12201701462E+03 0.  0.
          5    1    4    4  502    0 -0.61747568522E+02 -0.56540996995E+02 -0.11252297204E+03  0.14033230489E+03  0.47000000000E+01 0. -1.
         -5    1    4    4    0  502  0.17068880368E+02  0.43754477991E+02 -0.95782849727E+02  0.10678129669E+03  0.47000000000E+01 0. -1.
          5    1    5    5  503    0  0.45482642880E+02 -0.71865499809E+01 -0.39457488197E+03  0.39728043594E+03  0.47000000000E+01 0. -1.
         -5    1    5    5    0  503 -0.80395472552E+00  0.19973068984E+02 -0.24706378099E+01  0.20682453410E+02  0.47000000000E+01 0. -1.
<mgrwt>
<rscale>  0 0.27545688E+03</rscale>
<asrwt>0</asrwt>
<pdfrwt beam="1">  1        2 0.97725209E-01 0.27545688E+03</pdfrwt>
<pdfrwt beam="2">  1       -2 0.45942427E-02 0.27545688E+03</pdfrwt>
<totfact> 0.10460629E+04</totfact>
</mgrwt>
</event>
<event>
 9    1  0.2073852E-002  0.2751854E+03  0.7818608E-02  0.1098348E+00
          1   -1    0    0  501    0  0.00000000000E+00  0.00000000000E+00  0.80013093426E+02  0.80013093426E+02  0.00000000000E+00 0. -1.
         -1   -1    0    0    0  501 -0.00000000000E+00 -0.00000000000E+00 -0.23660808833E+03  0.23660808833E+03  0.00000000000E+00 0. -1.
         36    2    1    2    0    0  0.17763568394E-14 -0.71054273576E-14 -0.15659499490E+03  0.31662118175E+03  0.27518535627E+03 0.  0.
         25    2    3    3    0    0  0.15363388595E+02  0.29495047745E+02 -0.12863510704E+03  0.18343046992E+03  0.12646641840E+03 0.  0.
         25    2    3    3    0    0 -0.15363388595E+02 -0.29495047745E+02 -0.27959887862E+02  0.13319071183E+03  0.12590480069E+03 0.  0.
          5    1    4    4  502    0 -0.24729866282E+02  0.30854588582E+02  0.82884221572E+01  0.40673822844E+02  0.47000000000E+01 0. -1.
         -5    1    4    4    0  502  0.40093254878E+02 -0.13595408369E+01 -0.13692352920E+03  0.14275664708E+03  0.47000000000E+01 0. -1.
          5    1    5    5  503    0 -0.62103930801E+01 -0.76654124299E+02  0.70557038484E+00  0.77052005709E+02  0.47000000000E+01 0.  1.
         -5    1    5    5    0  503 -0.91529955153E+01  0.47159076554E+02 -0.28665458247E+02  0.56138706120E+02  0.47000000000E+01 0.  1.
<mgrwt>
<rscale>  0 0.27518536E+03</rscale>
<asrwt>0</asrwt>
<pdfrwt beam="1">  1        1 0.12309707E-01 0.27518536E+03</pdfrwt>
<pdfrwt beam="2">  1       -1 0.36401244E-01 0.27518536E+03</pdfrwt>
<totfact> 0.35223357E+03</totfact>
</mgrwt>
</event>
<event>
 9    1  0.2073852E-002  0.2747469E+03  0.7818608E-02  0.1098593E+00
         -2   -1    0    0    0  501 -0.00000000000E+00  0.00000000000E+00  0.28152992600E+02  0.28152992600E+02  0.00000000000E+00 0.  1.
          2   -1    0    0  501    0  0.00000000000E+00 -0.00000000000E+00 -0.67031847732E+03  0.67031847732E+03  0.00000000000E+00 0.  1.
         36    2    1    2    0    0  0.35527136788E-14  0.00000000000E+00 -0.64216548472E+03  0.69847146992E+03  0.27474694634E+03 0.  0.
         25    2    3    3    0    0 -0.25886482419E+02  0.49177630680E+01 -0.25365169647E+03  0.28917915937E+03  0.13634921607E+03 0.  0.
         25    2    3    3    0    0  0.25886482419E+02 -0.49177630680E+01 -0.38851378825E+03  0.40929231055E+03  0.12602752656E+03 0.  0.
          5    1    4    4  502    0 -0.13446620941E+02  0.42607032450E+02 -0.15238313612E+02  0.47439087582E+02  0.47000000000E+01 0. -1.
         -5    1    4    4    0  502 -0.12439861478E+02 -0.37689269382E+02 -0.23841338286E+03  0.24174007178E+03  0.47000000000E+01 0. -1.
          5    1    5    5  503    0  0.10564260997E+02  0.23040874226E+02 -0.74027697066E+01  0.26821194880E+02  0.47000000000E+01 0. -1.
         -5    1    5    5    0  503  0.15322221422E+02 -0.27958637294E+02 -0.38111101854E+03  0.38247111567E+03  0.47000000000E+01 0. -1.
<mgrwt>
<rscale>  0 0.27474695E+03</rscale>
<asrwt>0</asrwt>
<pdfrwt beam="1">  1        2 0.10312592E+00 0.27474695E+03</pdfrwt>
<pdfrwt beam="2">  1       -2 0.43312296E-02 0.27474695E+03</pdfrwt>
<totfact> 0.10726603E+04</totfact>
</mgrwt>
</event>
<event>
 9    1  0.2073852E-002  0.2758401E+03  0.7818608E-02  0.1097983E+00
         -2   -1    0    0    0  501 -0.00000000000E+00  0.00000000000E+00  0.14395937517E+02  0.14395937517E+02  0.00000000000E+00 0. -1.
          2   -1    0    0  501    0  0.00000000000E+00 -0.00000000000E+00 -0.13213410921E+04  0.13213410921E+04  0.00000000000E+00 0. -1.
         36    2    1    2    0    0  0.35527136788E-14 -0.71054273576E-14 -0.13069451546E+04  0.13357370297E+04  0.27584012617E+03 0.  0.
         25    2    3    3    0    0  0.27339969363E+02  0.38157301830E+02 -0.82990467411E+03  0.84067822539E+03  0.12567679547E+03 0.  0.
         25    2    3    3    0    0 -0.27339969363E+02 -0.38157301830E+02 -0.47704048051E+03  0.49505880427E+03  0.12374225645E+03 0.  0.
          5    1    4    4  502    0 -0.21315787431E+02 -0.32252313584E+02 -0.42613245303E+03  0.42790832201E+03  0.47000000000E+01 0. -1.
         -5    1    4    4    0  502  0.48655756794E+02  0.70409615414E+02 -0.40377222109E+03  0.41276990338E+03  0.47000000000E+01 0. -1.
          5    1    5    5  503    0  0.24274338130E+02  0.33973962425E+02 -0.18998126810E+03  0.19457246939E+03  0.47000000000E+01 0. -1.
         -5    1    5    5    0  503 -0.51614307493E+02 -0.72131264254E+02 -0.28705921241E+03  0.30048633488E+03  0.47000000000E+01 0. -1.
<mgrwt>
<rscale>  0 0.27584013E+03</rscale>
<asrwt>0</asrwt>
<pdfrwt beam="1">  1        2 0.20328325E+00 0.27584013E+03</pdfrwt>
<pdfrwt beam="2">  1       -2 0.22147596E-02 0.27584013E+03</pdfrwt>
<totfact> 0.11347008E+04</totfact>
</mgrwt>
</event>
<event>
 9    1  0.2073852E-002  0.2744782E+03  0.7818608E-02  0.1098744E+00
          2   -1    0    0  501    0  0.00000000000E+00  0.00000000000E+00  0.60719588433E+03  0.60719588433E+03  0.00000000000E+00 0.  1.
         -2   -1    0    0    0  501 -0.00000000000E+00 -0.00000000000E+00 -0.31018943378E+02  0.31018943378E+02  0.00000000000E+00 0.  1.
         36    2    1    2    0    0  0.00000000000E+00  0.00000000000E+00  0.57617694095E+03  0.63821482771E+03  0.27447823051E+03 0.  0.
         25    2    3    3    0    0  0.37970424906E+02 -0.30570838555E+02  0.20840746714E+03  0.24650472091E+03  0.12228890273E+03 0.  0.
         25    2    3    3    0    0 -0.37970424906E+02  0.30570838555E+02  0.36776947381E+03  0.39171010680E+03  0.12572228350E+03 0.  0.
          5    1    4    4  502    0  0.47592514281E+02  0.25776894989E+02  0.36936772069E+02  0.65695592408E+02  0.47000000000E+01 0. -1.
         -5    1    4    4    0  502 -0.96220893756E+01 -0.56347733544E+02  0.17147069508E+03  0.18080912850E+03  0.47000000000E+01 0. -1.
          5    1    5    5  503    0 -0.40447506206E+02 -0.10554482846E+02  0.30643301258E+02  0.52043249115E+02  0.47000000000E+01 0. -1.
         -5    1    5    5    0  503  0.24770813000E+01  0.41125321401E+02  0.33712617255E+03  0.33966685768E+03  0.47000000000E+01 0. -1.
<mgrwt>
<rscale>  0 0.27447823E+03</rscale>
<asrwt>0</asrwt>
<pdfrwt beam="1">  1        2 0.93414743E-01 0.27447823E+03</pdfrwt>
<pdfrwt beam="2">  1       -2 0.47721456E-02 0.27447823E+03</pdfrwt>
<totfact> 0.10410297E+04</totfact>
</mgrwt>
</event>
<event>
 9    1  0.2073852E-002  0.2740512E+03  0.7818608E-02  0.1098983E+00
          2   -1    0    0  501    0  0.00000000000E+00  0.00000000000E+00  0.14859376390E+04  0.14859376390E+04  0.00000000000E+00 0. -1.
         -2   -1    0    0    0  501 -0.00000000000E+00 -0.00000000000E+00 -0.12635807312E+02  0.12635807312E+02  0.00000000000E+00 0. -1.
         36    2    1    2    0    0  0.35527136788E-14 -0.71054273576E-14  0.14733018317E+04  0.14985734463E+04  0.27405124837E+03 0.  0.
         25    2    3    3    0    0  0.16317745543E+02 -0.61225341031E+02  0.73582768044E+03  0.74931719258E+03  0.12656645924E+03 0.  0.
         25    2    3    3    0    0 -0.16317745543E+02  0.61225341031E+02  0.73747415123E+03  0.74925625370E+03  0.11619810144E+03 0.  0.
          5    1    4    4  502    0  0.37688831449E+02 -0.51605591347E+02  0.15139915939E+03  0.16440006246E+03  0.47000000000E+01 0. -1.
         -5    1    4    4    0  502 -0.21371085906E+02 -0.96197496849E+01  0.58442852105E+03  0.58491713012E+03  0.47000000000E+01 0. -1.
          5    1    5    5  503    0  0.48398805358E+02  0.24274145787E+02  0.23100475914E+03  0.23731196190E+03  0.47000000000E+01 0. -1.
         -5    1    5    5    0  503 -0.64716550900E+02  0.36951195244E+02  0.50646939209E+03  0.51194429180E+03  0.47000000000E+01 0. -1.
<mgrwt>
<rscale>  0 0.27405125E+03</rscale>
<asrwt>0</asrwt>
<pdfrwt beam="1">  1        2 0.22860565E+00 0.27405125E+03</pdfrwt>
<pdfrwt beam="2">  1       -2 0.19439715E-02 0.27405125E+03</pdfrwt>
<totfact> 0.11190151E+04</totfact>
</mgrwt>
</event>
<event>
 9    1  0.2073852E-002  0.2729758E+03  0.7818608E-02  0.1099588E+00
         -2   -1    0    0    0  501 -0.00000000000E+00  0.00000000000E+00  0.67436203951E+02  0.67436203951E+02  0.00000000000E+00 0. -1.
          2   -1    0    0  501    0  0.00000000000E+00 -0.00000000000E+00 -0.27624538859E+03  0.27624538859E+03  0.00000000000E+00 0. -1.
         36    2    1    2    0    0  0.71054273576E-14  0.00000000000E+00 -0.20880918464E+03  0.34368159254E+03  0.27297575252E+03 0.  0.
         25    2    3    3    0    0 -0.42121060476E+02  0.24475038521E+02 -0.68047260995E+02  0.14910170021E+03  0.12340047014E+03 0.  0.
         25    2    3    3    0    0  0.42121060476E+02 -0.24475038521E+02 -0.14076192364E+03  0.19457989233E+03  0.12519666172E+03 0.  0.
          5    1    4    4  502    0 -0.30194450346E+02  0.25236725619E+02  0.30319955068E+02  0.49899767805E+02  0.47000000000E+01 0.  1.
         -5    1    4    4    0  502 -0.11926610131E+02 -0.76168709834E+00 -0.98367216063E+02  0.99201932403E+02  0.47000000000E+01 0.  1.
          5    1    5    5  503    0  0.23135121354E+02 -0.17532656056E+02  0.17992949447E+02  0.34474107650E+02  0.47000000000E+01 0.  1.
         -5    1    5    5    0  503  0.18985939122E+02 -0.69423824654E+01 -0.15875487309E+03  0.16010578468E+03  0.47000000000E+01 0.  1.
<mgrwt>
<rscale>  0 0.27297575E+03</rscale>
<asrwt>0</asrwt>
<pdfrwt beam="1">  1        2 0.42499290E-01 0.27297575E+03</pdfrwt>
<pdfrwt beam="2">  1       -2 0.10374801E-01 0.27297575E+03</pdfrwt>
<totfact> 0.74221636E+03</totfact>
</mgrwt>
</event>
<event>
 9    1  0.2073852E-002  0.2739832E+03  0.7818608E-02  0.1099021E+00
         -2   -1    0    0    0  501 -0.00000000000E+00  0.00000000000E+00  0.32470639417E+02  0.32470639417E+02  0.00000000000E+00 0. -1.
          2   -1    0    0  501    0  0.00000000000E+00 -0.00000000000E+00 -0.57795897295E+03  0.57795897295E+03  0.00000000000E+00 0. -1.
         36    2    1    2    0    0  0.00000000000E+00  0.71054273576E-14 -0.54548833354E+03  0.61042961237E+03  0.27398319225E+03 0.  0.
         25    2    3    3    0    0  0.24267329894E+02 -0.41061253997E+02 -0.17386457218E+03  0.21578579344E+03  0.11857356076E+03 0.  0.
         25    2    3    3    0    0 -0.24267329894E+02  0.41061253997E+02 -0.37162376136E+03  0.39464381893E+03  0.12395399928E+03 0.  0.
          5    1    4    4  502    0 -0.77552781410E+01 -0.77735108058E+02 -0.96371063749E+02  0.12414653959E+03  0.47000000000E+01 0. -1.
         -5    1    4    4    0  502  0.32022608035E+02  0.36673854061E+02 -0.77493508429E+02  0.91639253847E+02  0.47000000000E+01 0. -1.
          5    1    5    5  503    0  0.25970993105E+02 -0.27187019688E+02 -0.54631454995E+02  0.66485429962E+02  0.47000000000E+01 0.  1.
         -5    1    5    5    0  503 -0.50238322999E+02  0.68248273685E+02 -0.31699230636E+03  0.32815838897E+03  0.47000000000E+01 0.  1.
<mgrwt>
<rscale>  0 0.27398319E+03</rscale>
<asrwt>0</asrwt>
<pdfrwt beam="1">  1        2 0.88916760E-01 0.27398319E+03</pdfrwt>
<pdfrwt beam="2">  1       -2 0.49954833E-02 0.27398319E+03</pdfrwt>
<totfact> 0.10282491E+04</totfact>
</mgrwt>
</event>
<event>
 9    1  0.2073852E-002  0.2753595E+03  0.7818608E-02  0.1098251E+00
          2   -1    0    0  501    0  0.00000000000E+00  0.00000000000E+00  0.53189648436E+02  0.53189648436E+02  0.00000000000E+00 0. -1.
         -2   -1    0    0    0  501 -0.00000000000E+00 -0.00000000000E+00 -0.35637976405E+03  0.35637976405E+03  0.00000000000E+00 0. -1.
         36    2    1    2    0    0  0.35527136788E-14  0.00000000000E+00 -0.30319011561E+03  0.40956941249E+03  0.27535950581E+03 0.  0.
         25    2    3    3    0    0 -0.30040150769E+02  0.27696507769E+02 -0.90381660614E+02  0.16044410053E+03  0.12611089414E+03 0.  0.
         25    2    3    3    0    0  0.30040150769E+02 -0.27696507769E+02 -0.21280845500E+03  0.24912531195E+03  0.12290840222E+03 0.  0.
          5    1    4    4  502    0  0.28707239723E+02  0.17215647805E+02  0.16749125805E+02  0.37724095179E+02  0.47000000000E+01 0. -1.
         -5    1    4    4    0  502 -0.58747390492E+02  0.10480859964E+02 -0.10713078642E+03  0.12272000535E+03  0.47000000000E+01 0. -1.
          5    1    5    5  503    0  0.61114579495E+02  0.22065178632E+02 -0.14729010917E+03  0.16105381149E+03  0.47000000000E+01 0. -1.
         -5    1    5    5    0  503 -0.31074428726E+02 -0.49761686401E+02 -0.65518345826E+02  0.88071500463E+02  0.47000000000E+01 0. -1.
<mgrwt>
<rscale>  0 0.27535951E+03</rscale>
<asrwt>0</asrwt>
<pdfrwt beam="1">  1        2 0.81830228E-02 0.27535951E+03</pdfrwt>
<pdfrwt beam="2">  1       -2 0.54827656E-01 0.27535951E+03</pdfrwt>
<totfact> 0.26236178E+03</totfact>
</mgrwt>
</event>
<event>
 9    1  0.2073852E-002  0.2747360E+03  0.7818608E-02  0.1098599E+00
          2   -1    0    0  501    0  0.00000000000E+00  0.00000000000E+00  0.13346757063E+04  0.13346757063E+04  0.00000000000E+00 0. -1.
         -2   -1    0    0    0  501 -0.00000000000E+00 -0.00000000000E+00 -0.14138242872E+02  0.14138242872E+02  0.00000000000E+00 0. -1.
         36    2    1    2    0    0  0.00000000000E+00 -0.35527136788E-14  0.13205374634E+04  0.13488139492E+04  0.27473601359E+03 0.  0.
         25    2    3    3    0    0  0.10906736266E+02  0.21966714984E+02  0.84447903501E+03  0.85472278449E+03  0.12963295994E+03 0.  0.
         25    2    3    3    0    0 -0.10906736266E+02 -0.21966714984E+02  0.47605842841E+03  0.49409116466E+03  0.12997291363E+03 0.  0.
          5    1    4    4  502    0  0.26509311695E+02  0.54012559844E+02  0.19216697843E+03  0.20142079790E+03  0.47000000000E+01 0. -1.
         -5    1    4    4    0  502 -0.15602575429E+02 -0.32045844861E+02  0.65231205658E+03  0.65330198659E+03  0.47000000000E+01 0. -1.
          5    1    5    5  503    0 -0.18359125139E+02  0.13468550289E+02  0.79657276894E+01  0.24576455000E+02  0.47000000000E+01 0. -1.
         -5    1    5    5    0  503  0.74523888735E+01 -0.35435265273E+02  0.46809270072E+03  0.46951470966E+03  0.47000000000E+01 0. -1.
<mgrwt>
<rscale>  0 0.27473601E+03</rscale>
<asrwt>0</asrwt>
<pdfrwt beam="1">  1        2 0.20533462E+00 0.27473601E+03</pdfrwt>
<pdfrwt beam="2">  1       -2 0.21751153E-02 0.27473601E+03</pdfrwt>
<totfact> 0.11456886E+04</totfact>
</mgrwt>
</event>
<event>
 9    1  0.2073852E-002  0.2744188E+03  0.7818608E-02  0.1098777E+00
          1   -1    0    0  501    0  0.00000000000E+00  0.00000000000E+00  0.15558677775E+04  0.15558677775E+04  0.00000000000E+00 0. -1.
         -1   -1    0    0    0  501 -0.00000000000E+00 -0.00000000000E+00 -0.12100270633E+02  0.12100270633E+02  0.00000000000E+00 0. -1.
         36    2    1    2    0    0  0.00000000000E+00  0.66613381478E-14  0.15437675069E+04  0.15679680481E+04  0.27441881260E+03 0.  0.
         25    2    3    3    0    0  0.54093657290E+02 -0.15716422989E+01  0.60860866393E+03  0.62301156558E+03  0.12169762208E+03 0.  0.
         25    2    3    3    0    0 -0.54093657290E+02  0.15716422989E+01  0.93515884295E+03  0.94495648257E+03  0.12446725904E+03 0.  0.
          5    1    4    4  502    0 -0.51409736731E-01  0.22395257261E+01 -0.48635954477E+01  0.71247932685E+01  0.47000000000E+01 0. -1.
         -5    1    4    4    0  502  0.54145067027E+02 -0.38111680251E+01  0.61347225938E+03  0.61588677231E+03  0.47000000000E+01 0. -1.
          5    1    5    5  503    0 -0.32607284629E+02 -0.60698820755E+02  0.43286654041E+03  0.43834132095E+03  0.47000000000E+01 0.  1.
         -5    1    5    5    0  503 -0.21486372661E+02  0.62270463054E+02  0.50229230255E+03  0.50661516161E+03  0.47000000000E+01 0.  1.
<mgrwt>
<rscale>  0 0.27441881E+03</rscale>
<asrwt>0</asrwt>
<pdfrwt beam="1">  1        1 0.23936411E+00 0.27441881E+03</pdfrwt>
<pdfrwt beam="2">  1       -1 0.18615813E-02 0.27441881E+03</pdfrwt>
<totfact> 0.50053467E+03</totfact>
</mgrwt>
</event>
<event>
 9    1  0.2073852E-002  0.2749603E+03  0.7818608E-02  0.1098474E+00
         -2   -1    0    0    0  501 -0.00000000000E+00  0.00000000000E+00  0.18118964396E+02  0.18118964396E+02  0.00000000000E+00 0. -1.
          2   -1    0    0  501    0  0.00000000000E+00 -0.00000000000E+00 -0.10431499307E+04  0.10431499307E+04  0.00000000000E+00 0. -1.
         36    2    1    2    0    0  0.00000000000E+00  0.00000000000E+00 -0.10250309663E+04  0.10612688951E+04  0.27496033499E+03 0.  0.
         25    2    3    3    0    0  0.26647641749E+02 -0.37864363901E+02 -0.63507837460E+03  0.64981777745E+03  0.12959473425E+03 0.  0.
         25    2    3    3    0    0 -0.26647641749E+02  0.37864363901E+02 -0.38995259173E+03  0.41145111767E+03  0.12282178785E+03 0.  0.
          5    1    4    4  502    0  0.60365550826E+02 -0.49176683204E+01 -0.14173255732E+03  0.15420243511E+03  0.47000000000E+01 0.  1.
         -5    1    4    4    0  502 -0.33717909077E+02 -0.32946695581E+02 -0.49334581728E+03  0.49561534234E+03  0.47000000000E+01 0.  1.
          5    1    5    5  503    0 -0.28715007726E+02  0.55373847128E+02 -0.82877653498E+02  0.10383453214E+03  0.47000000000E+01 0. -1.
         -5    1    5    5    0  503  0.20673659771E+01 -0.17509483227E+02 -0.30707493823E+03  0.30761658553E+03  0.47000000000E+01 0. -1.
<mgrwt>
<rscale>  0 0.27496033E+03</rscale>
<asrwt>0</asrwt>
<pdfrwt beam="1">  1        2 0.16048463E+00 0.27496033E+03</pdfrwt>
<pdfrwt beam="2">  1       -2 0.27875326E-02 0.27496033E+03</pdfrwt>
<totfact> 0.11651903E+04</totfact>
</mgrwt>
</event>
<event>
 9    1  0.2073852E-002  0.2740429E+03  0.7818608E-02  0.1098988E+00
         -1   -1    0    0    0  501 -0.00000000000E+00  0.00000000000E+00  0.55542519694E+01  0.55542519694E+01  0.00000000000E+00 0.  1.
          1   -1    0    0  501    0  0.00000000000E+00 -0.00000000000E+00 -0.33802716780E+04  0.33802716780E+04  0.00000000000E+00 0.  1.
         36    2    1    2    0    0 -0.35527136788E-14 -0.71054273576E-14 -0.33747174261E+04  0.33858259300E+04  0.27404292091E+03 0.  0.
         25    2    3    3    0    0  0.24769257578E+02  0.46957719177E+02 -0.18730739807E+04  0.18779649229E+04  0.12460967498E+03 0.  0.
         25    2    3    3    0    0 -0.24769257578E+02 -0.46957719177E+02 -0.15016434454E+04  0.15078610071E+04  0.12606837871E+03 0.  0.
          5    1    4    4  502    0  0.22156924580E+02  0.86827737453E+02 -0.10187847947E+04  0.10227289637E+04  0.47000000000E+01 0. -1.
         -5    1    4    4    0  502  0.26123329980E+01 -0.39870018276E+02 -0.85428918604E+03  0.85523595927E+03  0.47000000000E+01 0. -1.
          5    1    5    5  503    0 -0.39727926691E+02 -0.85928314365E+02 -0.10405351894E+04  0.10448433155E+04  0.47000000000E+01 0. -1.
         -5    1    5    5    0  503  0.14958669112E+02  0.38970595188E+02 -0.46110825592E+03  0.46301769161E+03  0.47000000000E+01 0. -1.
<mgrwt>
<rscale>  0 0.27404292E+03</rscale>
<asrwt>0</asrwt>
<pdfrwt beam="1">  1        1 0.52004352E+00 0.27404292E+03</pdfrwt>
<pdfrwt beam="2">  1       -1 0.85449746E-03 0.27404292E+03</pdfrwt>
<totfact> 0.91060817E+02</totfact>
</mgrwt>
</event>
<event>
 9    1  0.2073852E-002  0.2749164E+03  0.7818608E-02  0.1098498E+00
         -2   -1    0    0    0  501 -0.00000000000E+00  0.00000000000E+00  0.76353378158E+02  0.76353378158E+02  0.00000000000E+00 0.  1.
          2   -1    0    0  501    0  0.00000000000E+00 -0.00000000000E+00 -0.24746457216E+03  0.24746457216E+03  0.00000000000E+00 0.  1.
         36    2    1    2    0    0  0.71054273576E-14  0.00000000000E+00 -0.17111119400E+03  0.32381795032E+03  0.27491639499E+03 0.  0.
         25    2    3    3    0    0 -0.58104906129E+02  0.16356080364E+02 -0.10188599603E+03  0.16873550857E+03  0.12019656478E+03 0.  0.
         25    2    3    3    0    0  0.58104906129E+02 -0.16356080364E+02 -0.69225197973E+02  0.15508244174E+03  0.12495893014E+03 0.  0.
          5    1    4    4  502    0 -0.48747065461E+02 -0.20745136433E+02 -0.11605639681E+03  0.12766289327E+03  0.47000000000E+01 0.  1.
         -5    1    4    4    0  502 -0.93578406671E+01  0.37101216797E+02  0.14170400782E+02  0.41072615306E+02  0.47000000000E+01 0.  1.
          5    1    5    5  503    0  0.26654996380E+02  0.35744259314E+02  0.18257770063E+02  0.48410505819E+02  0.47000000000E+01 0.  1.
         -5    1    5    5    0  503  0.31449909748E+02 -0.52100339679E+02 -0.87482968036E+02  0.10667193593E+03  0.47000000000E+01 0.  1.
<mgrwt>
<rscale>  0 0.27491639E+03</rscale>
<asrwt>0</asrwt>
<pdfrwt beam="1">  1        2 0.38071472E-01 0.27491639E+03</pdfrwt>
<pdfrwt beam="2">  1       -2 0.11746674E-01 0.27491639E+03</pdfrwt>
<totfact> 0.68504272E+03</totfact>
</mgrwt>
</event>
<event>
 9    1  0.2073852E-002  0.2739640E+03  0.7818608E-02  0.1099032E+00
          2   -1    0    0  501    0  0.00000000000E+00  0.00000000000E+00  0.63092254300E+03  0.63092254300E+03  0.00000000000E+00 0. -1.
         -2   -1    0    0    0  501 -0.00000000000E+00 -0.00000000000E+00 -0.29740680402E+02  0.29740680402E+02  0.00000000000E+00 0. -1.
         36    2    1    2    0    0  0.17763568394E-14  0.71054273576E-14  0.60118186260E+03  0.66066322340E+03  0.27396398092E+03 0.  0.
         25    2    3    3    0    0 -0.56760549760E+01 -0.25500726786E+02  0.42106551200E+03  0.44020814076E+03  0.12571609733E+03 0.  0.
         25    2    3    3    0    0  0.56760549760E+01  0.25500726786E+02  0.18011635059E+03  0.22045508264E+03  0.12440272925E+03 0.  0.
          5    1    4    4  502    0 -0.27209463367E+02  0.39275497649E+02  0.88571669531E+02  0.10074696152E+03  0.47000000000E+01 0. -1.
         -5    1    4    4    0  502  0.21533408391E+02 -0.64776224435E+02  0.33249384247E+03  0.33946117924E+03  0.47000000000E+01 0. -1.
          5    1    5    5  503    0  0.18251409271E+02  0.64457409029E+02  0.49318375183E+02  0.83320247538E+02  0.47000000000E+01 0.  1.
         -5    1    5    5    0  503 -0.12575354295E+02 -0.38956682243E+02  0.13079797541E+03  0.13713483510E+03  0.47000000000E+01 0.  1.
<mgrwt>
<rscale>  0 0.27396398E+03</rscale>
<asrwt>0</asrwt>
<pdfrwt beam="1">  1        2 0.97064997E-01 0.27396398E+03</pdfrwt>
<pdfrwt beam="2">  1       -2 0.45754898E-02 0.27396398E+03</pdfrwt>
<totfact> 0.10607799E+04</totfact>
</mgrwt>
</event>
<event>
 9    1  0.2073852E-002  0.2737323E+03  0.7818608E-02  0.1099162E+00
         -2   -1    0    0    0  501 -0.00000000000E+00  0.00000000000E+00  0.10856591756E+03  0.10856591756E+03  0.00000000000E+00 0. -1.
          2   -1    0    0  501    0  0.00000000000E+00 -0.00000000000E+00 -0.17254351582E+03  0.17254351582E+03  0.00000000000E+00 0. -1.
         36    2    1    2    0    0  0.00000000000E+00  0.00000000000E+00 -0.63977598263E+02  0.28110943338E+03  0.27373231533E+03 0.  0.
         25    2    3    3    0    0  0.39700610621E+01  0.41733436440E+02  0.11831857944E+02  0.13289884901E+03  0.12555743747E+03 0.  0.
         25    2    3    3    0    0 -0.39700610621E+01 -0.41733436440E+02 -0.75809456207E+02  0.14821058437E+03  0.12025748446E+03 0.  0.
          5    1    4    4  502    0 -0.11337418520E+02 -0.29581346906E+02  0.42852665059E+02  0.53497981702E+02  0.47000000000E+01 0. -1.
         -5    1    4    4    0  502  0.15307479582E+02  0.71314783345E+02 -0.31020807115E+02  0.79400867305E+02  0.47000000000E+01 0. -1.
          5    1    5    5  503    0  0.24918659392E+02 -0.77262518744E+02 -0.49060930626E+02  0.94971055077E+02  0.47000000000E+01 0. -1.
         -5    1    5    5    0  503 -0.28888720454E+02  0.35529082304E+02 -0.26748525581E+02  0.53239529295E+02  0.47000000000E+01 0. -1.
<mgrwt>
<rscale>  0 0.27373232E+03</rscale>
<asrwt>0</asrwt>
<pdfrwt beam="1">  1        2 0.26545156E-01 0.27373232E+03</pdfrwt>
<pdfrwt beam="2">  1       -2 0.16702449E-01 0.27373232E+03</pdfrwt>
<totfact> 0.57034404E+03</totfact>
</mgrwt>
</event>
<event>
 9    1  0.2073852E-002  0.2743146E+03  0.7818608E-02  0.1098835E+00
         -1   -1    0    0    0  501 -0.00000000000E+00  0.00000000000E+00  0.47424404978E+02  0.47424404978E+02  0.00000000000E+00 0. -1.
          1   -1    0    0  501    0  0.00000000000E+00 -0.00000000000E+00 -0.39667604268E+03  0.39667604268E+03  0.00000000000E+00 0. -1.
         36    2    1    2    0    0  0.00000000000E+00  0.71054273576E-14 -0.34925163770E+03  0.44410044766E+03  0.27431460255E+03 0.  0.
         25    2    3    3    0    0 -0.13231728007E+02  0.41773383362E+02 -0.22774340501E+03  0.26285170356E+03  0.12370879257E+03 0.  0.
         25    2    3    3    0    0  0.13231728007E+02 -0.41773383362E+02 -0.12150823269E+03  0.18124874409E+03  0.12714858410E+03 0.  0.
          5    1    4    4  502    0  0.54418668231E+02  0.29726416382E+02 -0.10123212950E+03  0.11880692457E+03  0.47000000000E+01 0. -1.
         -5    1    4    4    0  502 -0.67650396238E+02  0.12046966979E+02 -0.12651127551E+03  0.14404477899E+03  0.47000000000E+01 0. -1.
          5    1    5    5  503    0  0.50267275482E+02  0.84056976461E+00 -0.38245218162E+01  0.50638152702E+02  0.47000000000E+01 0.  1.
         -5    1    5    5    0  503 -0.37035547475E+02 -0.42613953126E+02 -0.11768371088E+03  0.13061059139E+03  0.47000000000E+01 0.  1.
<mgrwt>
<rscale>  0 0.27431460E+03</rscale>
<asrwt>0</asrwt>
<pdfrwt beam="1">  1        1 0.61027084E-01 0.27431460E+03</pdfrwt>
<pdfrwt beam="2">  1       -1 0.72960623E-02 0.27431460E+03</pdfrwt>
<totfact> 0.60381561E+03</totfact>
</mgrwt>
</event>
<event>
 9    1  0.2073852E-002  0.2751971E+03  0.7818608E-02  0.1098341E+00
         -2   -1    0    0    0  501 -0.00000000000E+00  0.00000000000E+00  0.27832347919E+03  0.27832347919E+03  0.00000000000E+00 0. -1.
          2   -1    0    0  501    0  0.00000000000E+00 -0.00000000000E+00 -0.68026476287E+02  0.68026476287E+02  0.00000000000E+00 0. -1.
         36    2    1    2    0    0  0.00000000000E+00  0.35527136788E-14  0.21029700290E+03  0.34634995547E+03  0.27519713339E+03 0.  0.
         25    2    3    3    0    0  0.50185348557E+02 -0.22643051501E+02  0.92342091616E+02  0.16371304177E+03  0.12346506053E+03 0.  0.
         25    2    3    3    0    0 -0.50185348557E+02  0.22643051501E+02  0.11795491128E+03  0.18263691370E+03  0.12810778336E+03 0.  0.
          5    1    4    4  502    0  0.73902220033E+01 -0.58911628150E+02  0.49562682302E+01  0.59764955512E+02  0.47000000000E+01 0. -1.
         -5    1    4    4    0  502  0.42795126554E+02  0.36268576649E+02  0.87385823385E+02  0.10394808626E+03  0.47000000000E+01 0. -1.
          5    1    5    5  503    0 -0.70351517789E+02  0.20415826391E+02  0.13634793733E+03  0.15485151609E+03  0.47000000000E+01 0.  1.
         -5    1    5    5    0  503  0.20166169232E+02  0.22272251103E+01 -0.18393026043E+02  0.27785397608E+02  0.47000000000E+01 0.  1.
<mgrwt>
<rscale>  0 0.27519713E+03</rscale>
<asrwt>0</asrwt>
<pdfrwt beam="1">  1        2 0.10465612E-01 0.27519713E+03</pdfrwt>
<pdfrwt beam="2">  1       -2 0.42818996E-01 0.27519713E+03</pdfrwt>
<totfact> 0.31474346E+03</totfact>
</mgrwt>
</event>
<event>
 9    1  0.2073852E-002  0.2751138E+03  0.7818608E-02  0.1098388E+00
         -2   -1    0    0    0  501 -0.00000000000E+00  0.00000000000E+00  0.11785942616E+02  0.11785942616E+02  0.00000000000E+00 0.  1.
          2   -1    0    0  501    0  0.00000000000E+00 -0.00000000000E+00 -0.16054634091E+04  0.16054634091E+04  0.00000000000E+00 0.  1.
         36    2    1    2    0    0  0.00000000000E+00  0.00000000000E+00 -0.15936774665E+04  0.16172493517E+04  0.27511379181E+03 0.  0.
         25    2    3    3    0    0  0.72733311387E+01 -0.49428995432E+02 -0.93302754626E+03  0.94295216729E+03  0.12697346488E+03 0.  0.
         25    2    3    3    0    0 -0.72733311387E+01  0.49428995432E+02 -0.66064992019E+03  0.67429718439E+03  0.12538839218E+03 0.  0.
          5    1    4    4  502    0 -0.36174781134E+02 -0.47202850846E+02 -0.20222184433E+03  0.21083758736E+03  0.47000000000E+01 0.  1.
         -5    1    4    4    0  502  0.43448112273E+02 -0.22261445863E+01 -0.73080570193E+03  0.73211457994E+03  0.47000000000E+01 0.  1.
          5    1    5    5  503    0 -0.52898282745E+02  0.10550968803E+02 -0.49719012615E+03  0.50012964599E+03  0.47000000000E+01 0. -1.
         -5    1    5    5    0  503  0.45624951607E+02  0.38878026629E+02 -0.16345979404E+03  0.17416753840E+03  0.47000000000E+01 0. -1.
<mgrwt>
<rscale>  0 0.27511379E+03</rscale>
<asrwt>0</asrwt>
<pdfrwt beam="1">  1        2 0.24699432E+00 0.27511379E+03</pdfrwt>
<pdfrwt beam="2">  1       -2 0.18132223E-02 0.27511379E+03</pdfrwt>
<totfact> 0.10705899E+04</totfact>
</mgrwt>
</event>
<event>
 9    1  0.2073852E-002  0.2749792E+03  0.7818608E-02  0.1098463E+00
          1   -1    0    0  501    0  0.00000000000E+00  0.00000000000E+00  0.20607192997E+04  0.20607192997E+04  0.00000000000E+00 0.  1.
         -1   -1    0    0    0  501 -0.00000000000E+00 -0.00000000000E+00 -0.91732001633E+01  0.91732001633E+01  0.00000000000E+00 0.  1.
         36    2    1    2    0    0  0.00000000000E+00 -0.17763568394E-14  0.20515460995E+04  0.20698924999E+04  0.27497920370E+03 0.  0.
         25    2    3    3    0    0 -0.10594053081E+02 -0.85763662508E+01  0.15460309169E+04  0.15513457700E+04  0.12757865745E+03 0.  0.
         25    2    3    3    0    0  0.10594053081E+02  0.85763662508E+01  0.50551518260E+03  0.51854672991E+03  0.11471409344E+03 0.  0.
          5    1    4    4  502    0  0.19234591013E+02  0.48809560971E+01  0.14429316625E+04  0.14430757658E+04  0.47000000000E+01 0. -1.
         -5    1    4    4    0  502 -0.29828644094E+02 -0.13457322348E+02  0.10309925440E+03  0.10827000412E+03  0.47000000000E+01 0. -1.
          5    1    5    5  503    0  0.59980425859E+02  0.10904307088E+02  0.20391655888E+03  0.21288637435E+03  0.47000000000E+01 0.  1.
         -5    1    5    5    0  503 -0.49386372778E+02 -0.23279408369E+01  0.30159862373E+03  0.30566035556E+03  0.47000000000E+01 0.  1.
<mgrwt>
<rscale>  0 0.27497920E+03</rscale>
<asrwt>0</asrwt>
<pdfrwt beam="1">  1        1 0.31703337E+00 0.27497920E+03</pdfrwt>
<pdfrwt beam="2">  1       -1 0.14112632E-02 0.27497920E+03</pdfrwt>
<totfact> 0.35140136E+03</totfact>
</mgrwt>
</event>
<event>
 9    1  0.2073852E-002  0.2747925E+03  0.7818608E-02  0.1098568E+00
         -1   -1    0    0    0  501 -0.00000000000E+00  0.00000000000E+00  0.49502821538E+02  0.49502821538E+02  0.00000000000E+00 0. -1.
          1   -1    0    0  501    0  0.00000000000E+00 -0.00000000000E+00 -0.38134651770E+03  0.38134651770E+03  0.00000000000E+00 0. -1.
         36    2    1    2    0    0 -0.14210854715E-13  0.00000000000E+00 -0.33184369616E+03  0.43084933923E+03  0.27479249342E+03 0.  0.
         25    2    3    3    0    0 -0.38210751578E+02  0.32220483161E+02 -0.21493196293E+03  0.25340618695E+03  0.12458220508E+03 0.  0.
         25    2    3    3    0    0  0.38210751578E+02 -0.32220483161E+02 -0.11691173323E+03  0.17744315229E+03  0.12377195909E+03 0.  0.
          5    1    4    4  502    0 -0.73826968250E+02 -0.80595877886E+01 -0.86560373635E+02  0.11414975462E+03  0.47000000000E+01 0. -1.
         -5    1    4    4    0  502  0.35616216671E+02  0.40280070950E+02 -0.12837158930E+03  0.13925643233E+03  0.47000000000E+01 0. -1.
          5    1    5    5  503    0  0.65264809881E+02 -0.61967745953E+02 -0.62708952544E+02  0.10979070852E+03  0.47000000000E+01 0.  1.
         -5    1    5    5    0  503 -0.27054058303E+02  0.29747262792E+02 -0.54202780683E+02  0.67652443770E+02  0.47000000000E+01 0.  1.
<mgrwt>
<rscale>  0 0.27479249E+03</rscale>
<asrwt>0</asrwt>
<pdfrwt beam="1">  1        1 0.58668694E-01 0.27479249E+03</pdfrwt>
<pdfrwt beam="2">  1       -1 0.76158189E-02 0.27479249E+03</pdfrwt>
<totfact> 0.59492009E+03</totfact>
</mgrwt>
</event>
<event>
 9    1  0.2073852E-002  0.2748297E+03  0.7818608E-02  0.1098547E+00
         -2   -1    0    0    0  501 -0.00000000000E+00  0.00000000000E+00  0.21433850424E+03  0.21433850424E+03  0.00000000000E+00 0.  1.
          2   -1    0    0  501    0  0.00000000000E+00 -0.00000000000E+00 -0.88098204022E+02  0.88098204022E+02  0.00000000000E+00 0.  1.
         36    2    1    2    0    0  0.14210854715E-13  0.00000000000E+00  0.12624030022E+03  0.30243670826E+03  0.27482967290E+03 0.  0.
         25    2    3    3    0    0  0.52233296041E+02  0.20100172049E+02  0.56965608791E+02  0.15127699916E+03  0.12848079918E+03 0.  0.
         25    2    3    3    0    0 -0.52233296041E+02 -0.20100172049E+02  0.69274691424E+02  0.15115970910E+03  0.12213902182E+03 0.  0.
          5    1    4    4  502    0  0.60597917553E+02 -0.35603601311E+02 -0.81728848899E+00  0.70444886248E+02  0.47000000000E+01 0. -1.
         -5    1    4    4    0  502 -0.83646215123E+01  0.55703773360E+02  0.57782897280E+02  0.80832112912E+02  0.47000000000E+01 0. -1.
          5    1    5    5  503    0 -0.41166812117E+02  0.62839573024E+01  0.10029508827E+03  0.10869861669E+03  0.47000000000E+01 0.  1.
         -5    1    5    5    0  503 -0.11066483923E+02 -0.26384129351E+02 -0.31020396846E+02  0.42461092409E+02  0.47000000000E+01 0.  1.
<mgrwt>
<rscale>  0 0.27482967E+03</rscale>
<asrwt>0</asrwt>
<pdfrwt beam="1">  1        2 0.13553570E-01 0.27482967E+03</pdfrwt>
<pdfrwt beam="2">  1       -2 0.32975154E-01 0.27482967E+03</pdfrwt>
<totfact> 0.37619739E+03</totfact>
</mgrwt>
</event>
<event>
 9    1  0.2073852E-002  0.2739242E+03  0.7818608E-02  0.1099054E+00
          1   -1    0    0  501    0  0.00000000000E+00  0.00000000000E+00  0.22586084884E+03  0.22586084884E+03  0.00000000000E+00 0.  1.
         -1   -1    0    0    0  501 -0.00000000000E+00 -0.00000000000E+00 -0.83053882195E+02  0.83053882195E+02  0.00000000000E+00 0.  1.
         36    2    1    2    0    0  0.14210854715E-13  0.71054273576E-14  0.14280696664E+03  0.30891473103E+03  0.27392422552E+03 0.  0.
         25    2    3    3    0    0 -0.59003018512E+02  0.33544596520E+02  0.68558350506E+02  0.14060981805E+03  0.10229505051E+03 0.  0.
         25    2    3    3    0    0  0.59003018512E+02 -0.33544596520E+02  0.74248616135E+02  0.16830491298E+03  0.13493365254E+03 0.  0.
          5    1    4    4  502    0 -0.86087295649E+02  0.31716456317E+02  0.37854596609E+02  0.99358022111E+02  0.47000000000E+01 0. -1.
         -5    1    4    4    0  502  0.27084277137E+02  0.18281402029E+01  0.30703753897E+02  0.41251795937E+02  0.47000000000E+01 0. -1.
          5    1    5    5  503    0  0.53924995414E+02 -0.84084244909E+02  0.47573174784E+02  0.11074006651E+03  0.47000000000E+01 0.  1.
         -5    1    5    5    0  503  0.50780230982E+01  0.50539648389E+02  0.26675441350E+02  0.57564846470E+02  0.47000000000E+01 0.  1.
<mgrwt>
<rscale>  0 0.27392423E+03</rscale>
<asrwt>0</asrwt>
<pdfrwt beam="1">  1        1 0.34747823E-01 0.27392423E+03</pdfrwt>
<pdfrwt beam="2">  1       -1 0.12777520E-01 0.27392423E+03</pdfrwt>
<totfact> 0.51752629E+03</totfact>
</mgrwt>
</event>
<event>
 9    1  0.2073852E-002  0.2755852E+03  0.7818608E-02  0.1098125E+00
         -1   -1    0    0    0  501 -0.00000000000E+00  0.00000000000E+00  0.39746272304E+03  0.39746272304E+03  0.00000000000E+00 0.  1.
          1   -1    0    0  501    0  0.00000000000E+00 -0.00000000000E+00 -0.47770031374E+02  0.47770031374E+02  0.00000000000E+00 0.  1.
         36    2    1    2    0    0  0.71054273576E-14 -0.71054273576E-14  0.34969269167E+03  0.44523275442E+03  0.27558524452E+03 0.  0.
         25    2    3    3    0    0 -0.32245706696E+02  0.36920342180E+02  0.12657564612E+03  0.18491134281E+03  0.12557035177E+03 0.  0.
         25    2    3    3    0    0  0.32245706696E+02 -0.36920342180E+02  0.22311704555E+03  0.26032141161E+03  0.12483238385E+03 0.  0.
          5    1    4    4  502    0  0.17507290504E+02  0.69621135928E+02  0.88631079101E+02  0.11415413252E+03  0.47000000000E+01 0.  1.
         -5    1    4    4    0  502 -0.49752997200E+02 -0.32700793748E+02  0.37944567015E+02  0.70757210290E+02  0.47000000000E+01 0.  1.
          5    1    5    5  503    0 -0.16837817813E+02 -0.43344885009E+02  0.20017584418E+03  0.20555960147E+03  0.47000000000E+01 0. -1.
         -5    1    5    5    0  503  0.49083524509E+02  0.64245428295E+01  0.22941201376E+02  0.54761810135E+02  0.47000000000E+01 0. -1.
<mgrwt>
<rscale>  0 0.27558524E+03</rscale>
<asrwt>0</asrwt>
<pdfrwt beam="1">  1        1 0.73492358E-02 0.27558524E+03</pdfrwt>
<pdfrwt beam="2">  1       -1 0.61148109E-01 0.27558524E+03</pdfrwt>
<totfact> 0.27284111E+03</totfact>
</mgrwt>
</event>
<event>
 9    1  0.2073852E-002  0.2723135E+03  0.7818608E-02  0.1099963E+00
         -1   -1    0    0    0  501 -0.00000000000E+00  0.00000000000E+00  0.25448595191E+02  0.25448595191E+02  0.00000000000E+00 0.  1.
          1   -1    0    0  501    0  0.00000000000E+00 -0.00000000000E+00 -0.72847502370E+03  0.72847502370E+03  0.00000000000E+00 0.  1.
         36    2    1    2    0    0  0.88817841970E-15  0.00000000000E+00 -0.70302642850E+03  0.75392361889E+03  0.27231353976E+03 0.  0.
         25    2    3    3    0    0  0.33822992224E+00  0.34038956579E+02 -0.45570384356E+03  0.47474213744E+03  0.12866755247E+03 0.  0.
         25    2    3    3    0    0 -0.33822992224E+00 -0.34038956579E+02 -0.24732258494E+03  0.27918148145E+03  0.12496028807E+03 0.  0.
          5    1    4    4  502    0 -0.48780093160E+01 -0.48328267992E+02 -0.13479305836E+03  0.14335506634E+03  0.47000000000E+01 0.  1.
         -5    1    4    4    0  502  0.52162392383E+01  0.82367224571E+02 -0.32091078520E+03  0.33138707110E+03  0.47000000000E+01 0.  1.
          5    1    5    5  503    0 -0.28310833555E+02 -0.10078994696E+02 -0.13758927708E+01  0.30447865469E+02  0.47000000000E+01 0. -1.
         -5    1    5    5    0  503  0.27972603633E+02 -0.23959961883E+02 -0.24594669217E+03  0.24873361598E+03  0.47000000000E+01 0. -1.
<mgrwt>
<rscale>  0 0.27231354E+03</rscale>
<asrwt>0</asrwt>
<pdfrwt beam="1">  1        1 0.11207307E+00 0.27231354E+03</pdfrwt>
<pdfrwt beam="2">  1       -1 0.39151687E-02 0.27231354E+03</pdfrwt>
<totfact> 0.67276248E+03</totfact>
</mgrwt>
</event>
<event>
 9    1  0.2073852E-002  0.2749011E+03  0.7818608E-02  0.1098507E+00
          1   -1    0    0  501    0  0.00000000000E+00  0.00000000000E+00  0.84047154697E+03  0.84047154697E+03  0.00000000000E+00 0. -1.
         -1   -1    0    0    0  501 -0.00000000000E+00 -0.00000000000E+00 -0.22478642143E+02  0.22478642143E+02  0.00000000000E+00 0. -1.
         36    2    1    2    0    0  0.71054273576E-14  0.00000000000E+00  0.81799290482E+03  0.86295018911E+03  0.27490113958E+03 0.  0.
         25    2    3    3    0    0 -0.27698452128E+02 -0.51094694167E+02  0.43179111397E+03  0.45341003722E+03  0.12553574680E+03 0.  0.
         25    2    3    3    0    0  0.27698452128E+02  0.51094694167E+02  0.38620179086E+03  0.40954015189E+03  0.12326167584E+03 0.  0.
          5    1    4    4  502    0 -0.69702158789E+02 -0.35099106575E+02  0.36140771026E+03  0.36976744213E+03  0.47000000000E+01 0. -1.
         -5    1    4    4    0  502  0.42003706661E+02 -0.15995587592E+02  0.70383403709E+02  0.83642595090E+02  0.47000000000E+01 0. -1.
          5    1    5    5  503    0 -0.11062738835E+02 -0.12601372638E+02  0.27512404354E+03  0.27567464177E+03  0.47000000000E+01 0. -1.
         -5    1    5    5    0  503  0.38761190963E+02  0.63696066805E+02  0.11107774732E+03  0.13386551012E+03  0.47000000000E+01 0. -1.
<mgrwt>
<rscale>  0 0.27490114E+03</rscale>
<asrwt>0</asrwt>
<pdfrwt beam="1">  1        1 0.12930329E+00 0.27490114E+03</pdfrwt>
<pdfrwt beam="2">  1       -1 0.34582533E-02 0.27490114E+03</pdfrwt>
<totfact> 0.65036398E+03</totfact>
</mgrwt>
</event>
<event>
 9    1  0.2073852E-002  0.2730017E+03  0.7818608E-02  0.1099574E+00
          2   -1    0    0  501    0  0.00000000000E+00  0.00000000000E+00  0.10802183062E+04  0.10802183062E+04  0.00000000000E+00 0. -1.
         -2   -1    0    0    0  501 -0.00000000000E+00 -0.00000000000E+00 -0.17248815342E+02  0.17248815342E+02  0.00000000000E+00 0. -1.
         36    2    1    2    0    0  0.00000000000E+00  0.71054273576E-14  0.10629694908E+04  0.10974671215E+04  0.27300172960E+03 0.  0.
         25    2    3    3    0    0  0.12159612380E+02 -0.44693219176E+02  0.68248538957E+03  0.69467946489E+03  0.12102855841E+03 0.  0.
         25    2    3    3    0    0 -0.12159612380E+02  0.44693219176E+02  0.38048410126E+03  0.40278765662E+03  0.12379178083E+03 0.  0.
          5    1    4    4  502    0 -0.51104254573E+02 -0.40878881702E+02  0.31854469032E+03  0.32523151375E+03  0.47000000000E+01 0. -1.
         -5    1    4    4    0  502  0.63263866952E+02 -0.38143374738E+01  0.36394069925E+03  0.36944795114E+03  0.47000000000E+01 0. -1.
          5    1    5    5  503    0 -0.41693164415E+02 -0.29770423892E+02  0.13215730095E+03  0.14181763040E+03  0.47000000000E+01 0. -1.
         -5    1    5    5    0  503  0.29533552035E+02  0.74463643067E+02  0.24832680031E+03  0.26097002622E+03  0.47000000000E+01 0. -1.
<mgrwt>
<rscale>  0 0.27300173E+03</rscale>
<asrwt>0</asrwt>
<pdfrwt beam="1">  1        2 0.16618738E+00 0.27300173E+03</pdfrwt>
<pdfrwt beam="2">  1       -2 0.26536647E-02 0.27300173E+03</pdfrwt>
<totfact> 0.11909919E+04</totfact>
</mgrwt>
</event>
<event>
 9    1  0.2073852E-002  0.2767249E+03  0.7818608E-02  0.1097491E+00
          1   -1    0    0  501    0  0.00000000000E+00  0.00000000000E+00  0.93805154199E+02  0.93805154199E+02  0.00000000000E+00 0.  1.
         -1   -1    0    0    0  501 -0.00000000000E+00 -0.00000000000E+00 -0.20408436256E+03  0.20408436256E+03  0.00000000000E+00 0.  1.
         36    2    1    2    0    0  0.00000000000E+00 -0.35527136788E-14 -0.11027920836E+03  0.29788951676E+03  0.27672488214E+03 0.  0.
         25    2    3    3    0    0  0.30626840172E+02  0.29873207600E+01 -0.44201630459E+00  0.12788282527E+03  0.12412451086E+03 0.  0.
         25    2    3    3    0    0 -0.30626840172E+02 -0.29873207600E+01 -0.10983719205E+03  0.17000669148E+03  0.12606006095E+03 0.  0.
          5    1    4    4  502    0  0.69511854350E+02 -0.29928785766E+02  0.71367333947E+01  0.76162018593E+02  0.47000000000E+01 0. -1.
         -5    1    4    4    0  502 -0.38885014178E+02  0.32916106526E+02 -0.75787496993E+01  0.51720806678E+02  0.47000000000E+01 0. -1.
          5    1    5    5  503    0  0.80127478334E+01 -0.27402354569E+02  0.18058990351E+02  0.34107334934E+02  0.47000000000E+01 0. -1.
         -5    1    5    5    0  503 -0.38639588006E+02  0.24415033809E+02 -0.12789618241E+03  0.13589935655E+03  0.47000000000E+01 0. -1.
<mgrwt>
<rscale>  0 0.27672488E+03</rscale>
<asrwt>0</asrwt>
<pdfrwt beam="1">  1        1 0.14431562E-01 0.27672488E+03</pdfrwt>
<pdfrwt beam="2">  1       -1 0.31397594E-01 0.27672488E+03</pdfrwt>
<totfact> 0.36869836E+03</totfact>
</mgrwt>
</event>
<event>
 9    1  0.2073852E-002  0.2762793E+03  0.7818608E-02  0.1097739E+00
         -3   -1    0    0    0  501 -0.00000000000E+00  0.00000000000E+00  0.34321457622E+02  0.34321457622E+02  0.00000000000E+00 0.  1.
          3   -1    0    0  501    0  0.00000000000E+00 -0.00000000000E+00 -0.55599492936E+03  0.55599492936E+03  0.00000000000E+00 0.  1.
         36    2    1    2    0    0 -0.71054273576E-14  0.71054273576E-14 -0.52167347173E+03  0.59031638698E+03  0.27627925297E+03 0.  0.
         25    2    3    3    0    0 -0.28702503236E+01  0.26217439596E+02 -0.32152164181E+03  0.34697904682E+03  0.12776032366E+03 0.  0.
         25    2    3    3    0    0  0.28702503236E+01 -0.26217439596E+02 -0.20015182993E+03  0.24333734016E+03  0.13585548800E+03 0.  0.
          5    1    4    4  502    0  0.42754143158E+02  0.53537023213E+02 -0.11758540617E+03  0.13617102245E+03  0.47000000000E+01 0. -1.
         -5    1    4    4    0  502 -0.45624393481E+02 -0.27319583617E+02 -0.20393623564E+03  0.21080802436E+03  0.47000000000E+01 0. -1.
          5    1    5    5  503    0  0.24549900443E+02  0.27778574249E+02 -0.27329410077E+01  0.37468730505E+02  0.47000000000E+01 0.  1.
         -5    1    5    5    0  503 -0.21679650119E+02 -0.53996013845E+02 -0.19741888892E+03  0.20586860966E+03  0.47000000000E+01 0.  1.
<mgrwt>
<rscale>  0 0.27627925E+03</rscale>
<asrwt>0</asrwt>
<pdfrwt beam="1">  1        3 0.85537681E-01 0.27627925E+03</pdfrwt>
<pdfrwt beam="2">  1       -3 0.52802243E-02 0.27627925E+03</pdfrwt>
<totfact> 0.68398456E+02</totfact>
</mgrwt>
</event>
<event>
 9    1  0.2073852E-002  0.2774040E+03  0.7818608E-02  0.1097115E+00
         -1   -1    0    0    0  501 -0.00000000000E+00  0.00000000000E+00  0.79196310741E+01  0.79196310741E+01  0.00000000000E+00 0. -1.
          1   -1    0    0  501    0  0.00000000000E+00 -0.00000000000E+00 -0.24291851734E+04  0.24291851734E+04  0.00000000000E+00 0. -1.
         36    2    1    2    0    0  0.35527136788E-14  0.00000000000E+00 -0.24212655423E+04  0.24371048045E+04  0.27740404023E+03 0.  0.
         25    2    3    3    0    0  0.95718166551E+01 -0.63954261867E+02 -0.10865429288E+04  0.10953039961E+04  0.12220286584E+03 0.  0.
         25    2    3    3    0    0 -0.95718166551E+01  0.63954261867E+02 -0.13347226135E+04  0.13418008084E+04  0.12150385617E+03 0.  0.
          5    1    4    4  502    0  0.10781679875E+02 -0.27923346155E+02 -0.10111402259E+04  0.10115940907E+04  0.47000000000E+01 0.  1.
         -5    1    4    4    0  502 -0.12098632203E+01 -0.36030915712E+02 -0.75402702896E+02  0.83709905388E+02  0.47000000000E+01 0.  1.
          5    1    5    5  503    0  0.41626679914E+02  0.71849895932E+02 -0.69287007907E+03  0.69784398292E+03  0.47000000000E+01 0.  1.
         -5    1    5    5    0  503 -0.51198496569E+02 -0.78956340654E+01 -0.64185253442E+03  0.64395682544E+03  0.47000000000E+01 0.  1.
<mgrwt>
<rscale>  0 0.27740404E+03</rscale>
<asrwt>0</asrwt>
<pdfrwt beam="1">  1        1 0.37372122E+00 0.27740404E+03</pdfrwt>
<pdfrwt beam="2">  1       -1 0.12184034E-02 0.27740404E+03</pdfrwt>
<totfact> 0.24953545E+03</totfact>
</mgrwt>
</event>
<event>
 9    1  0.2073852E-002  0.2746945E+03  0.7818608E-02  0.1098622E+00
         -1   -1    0    0    0  501 -0.00000000000E+00  0.00000000000E+00  0.79016045689E+01  0.79016045689E+01  0.00000000000E+00 0.  1.
          1   -1    0    0  501    0  0.00000000000E+00 -0.00000000000E+00 -0.23873966961E+04  0.23873966961E+04  0.00000000000E+00 0.  1.
         36    2    1    2    0    0  0.35527136788E-14  0.00000000000E+00 -0.23794950915E+04  0.23952983007E+04  0.27469448223E+03 0.  0.
         25    2    3    3    0    0 -0.28907503530E+01 -0.51488890928E+02 -0.12211847554E+04  0.12289131766E+04  0.12757713874E+03 0.  0.
         25    2    3    3    0    0  0.28907503530E+01  0.51488890928E+02 -0.11583103361E+04  0.11663851241E+04  0.12693289830E+03 0.  0.
          5    1    4    4  502    0 -0.63670370290E+02 -0.36847411326E+02 -0.57844043222E+03  0.58311840255E+03  0.47000000000E+01 0.  1.
         -5    1    4    4    0  502  0.60779619937E+02 -0.14641479602E+02 -0.64274432320E+03  0.64579477400E+03  0.47000000000E+01 0.  1.
          5    1    5    5  503    0  0.12600655276E+02  0.22224366177E+02 -0.40342811032E+02  0.47982615262E+02  0.47000000000E+01 0. -1.
         -5    1    5    5    0  503 -0.97099049232E+01  0.29264524751E+02 -0.11179675251E+04  0.11184025088E+04  0.47000000000E+01 0. -1.
<mgrwt>
<rscale>  0 0.27469448E+03</rscale>
<asrwt>0</asrwt>
<pdfrwt beam="1">  1        1 0.36729120E+00 0.27469448E+03</pdfrwt>
<pdfrwt beam="2">  1       -1 0.12156335E-02 0.27469448E+03</pdfrwt>
<totfact> 0.26683943E+03</totfact>
</mgrwt>
</event>
<event>
 9    1  0.2073852E-002  0.2745664E+03  0.7818608E-02  0.1098694E+00
         -1   -1    0    0    0  501 -0.00000000000E+00  0.00000000000E+00  0.17807705109E+03  0.17807705109E+03  0.00000000000E+00 0.  1.
          1   -1    0    0  501    0  0.00000000000E+00 -0.00000000000E+00 -0.10583439301E+03  0.10583439301E+03  0.00000000000E+00 0.  1.
         36    2    1    2    0    0  0.71054273576E-14  0.00000000000E+00  0.72242658079E+02  0.28391144409E+03  0.27456639715E+03 0.  0.
         25    2    3    3    0    0 -0.32217388003E+02  0.29497338373E+02  0.28705879104E+02  0.14438339805E+03  0.13459006307E+03 0.  0.
         25    2    3    3    0    0  0.32217388003E+02 -0.29497338373E+02  0.43536778975E+02  0.13952804604E+03  0.12515818570E+03 0.  0.
          5    1    4    4  502    0 -0.64681935935E+02  0.23562391151E+02  0.65216799361E+02  0.94943457025E+02  0.47000000000E+01 0. -1.
         -5    1    4    4    0  502  0.32464547932E+02  0.59349472218E+01 -0.36510920257E+02  0.49439941029E+02  0.47000000000E+01 0. -1.
          5    1    5    5  503    0  0.11331032206E+02  0.45475144764E+02 -0.54996460988E+01  0.47420640963E+02  0.47000000000E+01 0. -1.
         -5    1    5    5    0  503  0.20886355797E+02 -0.74972483136E+02  0.49036425074E+02  0.92107405078E+02  0.47000000000E+01 0. -1.
<mgrwt>
<rscale>  0 0.27456640E+03</rscale>
<asrwt>0</asrwt>
<pdfrwt beam="1">  1        1 0.16282214E-01 0.27456640E+03</pdfrwt>
<pdfrwt beam="2">  1       -1 0.27396469E-01 0.27456640E+03</pdfrwt>
<totfact> 0.39658547E+03</totfact>
</mgrwt>
</event>
<event>
 9    1  0.2073852E-002  0.2755143E+03  0.7818608E-02  0.1098164E+00
          1   -1    0    0  501    0  0.00000000000E+00  0.00000000000E+00  0.65574543765E+02  0.65574543765E+02  0.00000000000E+00 0. -1.
         -1   -1    0    0    0  501 -0.00000000000E+00 -0.00000000000E+00 -0.28939624934E+03  0.28939624934E+03  0.00000000000E+00 0. -1.
         36    2    1    2    0    0  0.00000000000E+00  0.35527136788E-14 -0.22382170558E+03  0.35497079311E+03  0.27551426110E+03 0.  0.
         25    2    3    3    0    0 -0.81798505931E+01 -0.31378753868E+02 -0.17423749908E+03  0.21726339072E+03  0.12567075519E+03 0.  0.
         25    2    3    3    0    0  0.81798505931E+01  0.31378753868E+02 -0.49584206497E+02  0.13770740239E+03  0.12431089650E+03 0.  0.
          5    1    4    4  502    0  0.53469778670E+02 -0.39328006564E+01 -0.11648519221E+03  0.12831747409E+03  0.47000000000E+01 0. -1.
         -5    1    4    4    0  502 -0.61649629264E+02 -0.27445953211E+02 -0.57752306872E+02  0.88945916630E+02  0.47000000000E+01 0. -1.
          5    1    5    5  503    0  0.52577925894E+02 -0.23301495452E+02 -0.18711201849E+02  0.60659682296E+02  0.47000000000E+01 0.  1.
         -5    1    5    5    0  503 -0.44398075301E+02  0.54680249319E+02 -0.30873004648E+02  0.77047720096E+02  0.47000000000E+01 0.  1.
<mgrwt>
<rscale>  0 0.27551426E+03</rscale>
<asrwt>0</asrwt>
<pdfrwt beam="1">  1        1 0.10088392E-01 0.27551426E+03</pdfrwt>
<pdfrwt beam="2">  1       -1 0.44522499E-01 0.27551426E+03</pdfrwt>
<totfact> 0.32123791E+03</totfact>
</mgrwt>
</event>
<event>
 9    1  0.2073852E-002  0.2750136E+03  0.7818608E-02  0.1098444E+00
         -1   -1    0    0    0  501 -0.00000000000E+00  0.00000000000E+00  0.18186780519E+02  0.18186780519E+02  0.00000000000E+00 0.  1.
          1   -1    0    0  501    0  0.00000000000E+00 -0.00000000000E+00 -0.10396631871E+04  0.10396631871E+04  0.00000000000E+00 0.  1.
         36    2    1    2    0    0  0.00000000000E+00 -0.35527136788E-14 -0.10214764066E+04  0.10578499676E+04  0.27501364474E+03 0.  0.
         25    2    3    3    0    0 -0.56681019732E+01 -0.85397488849E+00 -0.65915227987E+03  0.67109175342E+03  0.12589502292E+03 0.  0.
         25    2    3    3    0    0  0.56681019732E+01  0.85397488849E+00 -0.36232412673E+03  0.38675821422E+03  0.13516762483E+03 0.  0.
          5    1    4    4  502    0  0.52357763421E+02  0.29463464306E+02 -0.30053611841E+03  0.30651831852E+03  0.47000000000E+01 0. -1.
         -5    1    4    4    0  502 -0.58025865394E+02 -0.30317439194E+02 -0.35861616147E+03  0.36457343491E+03  0.47000000000E+01 0. -1.
          5    1    5    5  503    0  0.27477593699E+02  0.63183065888E+02 -0.18105478931E+03  0.19377833910E+03  0.47000000000E+01 0. -1.
         -5    1    5    5    0  503 -0.21809491726E+02 -0.62329091000E+02 -0.18126933742E+03  0.19297987512E+03  0.47000000000E+01 0. -1.
<mgrwt>
<rscale>  0 0.27501364E+03</rscale>
<asrwt>0</asrwt>
<pdfrwt beam="1">  1        1 0.15994821E+00 0.27501364E+03</pdfrwt>
<pdfrwt beam="2">  1       -1 0.27979657E-02 0.27501364E+03</pdfrwt>
<totfact> 0.62432387E+03</totfact>
</mgrwt>
</event>
<event>
 9    1  0.2073852E-002  0.2745576E+03  0.7818608E-02  0.1098699E+00
          2   -1    0    0  501    0  0.00000000000E+00  0.00000000000E+00  0.26599242361E+04  0.26599242361E+04  0.00000000000E+00 0. -1.
         -2   -1    0    0    0  501 -0.00000000000E+00 -0.00000000000E+00 -0.70849627691E+01  0.70849627691E+01  0.00000000000E+00 0. -1.
         36    2    1    2    0    0 -0.35527136788E-14  0.35527136788E-14  0.26528392734E+04  0.26670091989E+04  0.27455756542E+03 0.  0.
         25    2    3    3    0    0 -0.25399352133E+02 -0.16558970001E+02  0.14808097072E+04  0.14863783225E+04  0.12491517972E+03 0.  0.
         25    2    3    3    0    0  0.25399352133E+02  0.16558970001E+02  0.11720295662E+04  0.11806308764E+04  0.13898430035E+03 0.  0.
          5    1    4    4  502    0 -0.20814109500E+02 -0.25165094570E+02  0.95729155365E+02  0.10125547060E+03  0.47000000000E+01 0. -1.
         -5    1    4    4    0  502 -0.45852426329E+01  0.86061245689E+01  0.13850805518E+04  0.13851228519E+04  0.47000000000E+01 0. -1.
          5    1    5    5  503    0 -0.16257198971E+02  0.61336462466E+02  0.31229730584E+03  0.31871328084E+03  0.47000000000E+01 0.  1.
         -5    1    5    5    0  503  0.41656551104E+02 -0.44777492464E+02  0.85973226033E+03  0.86191759556E+03  0.47000000000E+01 0.  1.
<mgrwt>
<rscale>  0 0.27455757E+03</rscale>
<asrwt>0</asrwt>
<pdfrwt beam="1">  1        2 0.40921832E+00 0.27455757E+03</pdfrwt>
<pdfrwt beam="2">  1       -2 0.10899964E-02 0.27455757E+03</pdfrwt>
<totfact> 0.61511698E+03</totfact>
</mgrwt>
</event>
<event>
 9    1  0.2073852E-002  0.2756489E+03  0.7818608E-02  0.1098089E+00
         -1   -1    0    0    0  501 -0.00000000000E+00  0.00000000000E+00  0.66878299358E+02  0.66878299358E+02  0.00000000000E+00 0.  1.
          1   -1    0    0  501    0  0.00000000000E+00 -0.00000000000E+00 -0.28403200069E+03  0.28403200069E+03  0.00000000000E+00 0.  1.
         36    2    1    2    0    0 -0.71054273576E-14 -0.14210854715E-13 -0.21715370133E+03  0.35091030005E+03  0.27564888659E+03 0.  0.
         25    2    3    3    0    0 -0.47777093978E+02  0.67912382374E+02 -0.82101075856E+02  0.14729481977E+03  0.89779924731E+02 0.  0.
         25    2    3    3    0    0  0.47777093978E+02 -0.67912382374E+02 -0.13505262547E+03  0.20361548028E+03  0.12777053562E+03 0.  0.
          5    1    4    4  502    0  0.76923259451E+01 -0.14378017861E+02  0.20514676378E+01  0.17093794064E+02  0.47000000000E+01 0.  1.
         -5    1    4    4    0  502 -0.55469419923E+02  0.82290400235E+02 -0.84152543494E+02  0.13020102570E+03  0.47000000000E+01 0.  1.
          5    1    5    5  503    0  0.80278818480E+02 -0.49417044468E+02 -0.42172660043E+02  0.10337967032E+03  0.47000000000E+01 0.  1.
         -5    1    5    5    0  503 -0.32501724502E+02 -0.18495337906E+02 -0.92879965430E+02  0.10023580996E+03  0.47000000000E+01 0.  1.
<mgrwt>
<rscale>  0 0.27564889E+03</rscale>
<asrwt>0</asrwt>
<pdfrwt beam="1">  1        1 0.43697231E-01 0.27564889E+03</pdfrwt>
<pdfrwt beam="2">  1       -1 0.10288969E-01 0.27564889E+03</pdfrwt>
<totfact> 0.54404384E+03</totfact>
</mgrwt>
</event>
<event>
 9    1  0.2073852E-002  0.2753209E+03  0.7818608E-02  0.1098272E+00
         -2   -1    0    0    0  501 -0.00000000000E+00  0.00000000000E+00  0.17581548075E+02  0.17581548075E+02  0.00000000000E+00 0.  1.
          2   -1    0    0  501    0  0.00000000000E+00 -0.00000000000E+00 -0.10778570477E+04  0.10778570477E+04  0.00000000000E+00 0.  1.
         36    2    1    2    0    0  0.00000000000E+00  0.00000000000E+00 -0.10602754996E+04  0.10954385957E+04  0.27532087100E+03 0.  0.
         25    2    3    3    0    0 -0.41044710379E+02  0.43466945779E+02 -0.51931759708E+03  0.53702047050E+03  0.12298851765E+03 0.  0.
         25    2    3    3    0    0  0.41044710379E+02 -0.43466945779E+02 -0.54095790251E+03  0.55841812524E+03  0.12498522586E+03 0.  0.
          5    1    4    4  502    0  0.36245580917E+02  0.45272430566E+02 -0.18956141001E+03  0.19829007356E+03  0.47000000000E+01 0.  1.
         -5    1    4    4    0  502 -0.77290291296E+02 -0.18054847870E+01 -0.32975618707E+03  0.33873039695E+03  0.47000000000E+01 0.  1.
          5    1    5    5  503    0 -0.25338972693E+02 -0.49864847765E+02 -0.38006310490E+03  0.38418565862E+03  0.47000000000E+01 0. -1.
         -5    1    5    5    0  503  0.66383683073E+02  0.63979019862E+01 -0.16089479761E+03  0.17423246663E+03  0.47000000000E+01 0. -1.
<mgrwt>
<rscale>  0 0.27532087E+03</rscale>
<asrwt>0</asrwt>
<pdfrwt beam="1">  1        2 0.16582417E+00 0.27532087E+03</pdfrwt>
<pdfrwt beam="2">  1       -2 0.27048535E-02 0.27532087E+03</pdfrwt>
<totfact> 0.11617551E+04</totfact>
</mgrwt>
</event>
<event>
 9    1  0.2073852E-002  0.2764943E+03  0.7818608E-02  0.1097619E+00
          2   -1    0    0  501    0  0.00000000000E+00  0.00000000000E+00  0.97716117853E+03  0.97716117853E+03  0.00000000000E+00 0.  1.
         -2   -1    0    0    0  501 -0.00000000000E+00 -0.00000000000E+00 -0.19558982883E+02  0.19558982883E+02  0.00000000000E+00 0.  1.
         36    2    1    2    0    0 -0.35527136788E-14  0.00000000000E+00  0.95760219564E+03  0.99672016141E+03  0.27649433097E+03 0.  0.
         25    2    3    3    0    0  0.13289922232E+02  0.49807185058E+02  0.48061486484E+03  0.50093280714E+03  0.13147490730E+03 0.  0.
         25    2    3    3    0    0 -0.13289922232E+02 -0.49807185058E+02  0.47698733080E+03  0.49578735427E+03  0.12502323460E+03 0.  0.
          5    1    4    4  502    0  0.12999120213E+02  0.57059878931E+02  0.48678321119E+03  0.49031091320E+03  0.47000000000E+01 0.  1.
         -5    1    4    4    0  502  0.29080201847E+00 -0.72526938732E+01 -0.61683463465E+01  0.10621893940E+02  0.47000000000E+01 0.  1.
          5    1    5    5  503    0  0.77626879771E+01 -0.33858130646E+02  0.25120662009E+02  0.43125050670E+02  0.47000000000E+01 0. -1.
         -5    1    5    5    0  503 -0.21052610209E+02 -0.15949054412E+02  0.45186666879E+03  0.45266230360E+03  0.47000000000E+01 0. -1.
<mgrwt>
<rscale>  0 0.27649433E+03</rscale>
<asrwt>0</asrwt>
<pdfrwt beam="1">  1        2 0.15033245E+00 0.27649433E+03</pdfrwt>
<pdfrwt beam="2">  1       -2 0.30090750E-02 0.27649433E+03</pdfrwt>
<totfact> 0.11411495E+04</totfact>
</mgrwt>
</event>
<event>
 9    1  0.2073852E-002  0.2731379E+03  0.7818608E-02  0.1099497E+00
          2   -1    0    0  501    0  0.00000000000E+00  0.00000000000E+00  0.26167510409E+03  0.26167510409E+03  0.00000000000E+00 0. -1.
         -2   -1    0    0    0  501 -0.00000000000E+00 -0.00000000000E+00 -0.71275729857E+02  0.71275729857E+02  0.00000000000E+00 0. -1.
         36    2    1    2    0    0  0.00000000000E+00  0.00000000000E+00  0.19039937423E+03  0.33295083394E+03  0.27313794338E+03 0.  0.
         25    2    3    3    0    0 -0.37538970098E+02  0.17704300009E+02  0.54777489170E+02  0.14518211520E+03  0.12788532652E+03 0.  0.
         25    2    3    3    0    0  0.37538970098E+02 -0.17704300009E+02  0.13562188506E+03  0.18776871875E+03  0.12304950027E+03 0.  0.
          5    1    4    4  502    0 -0.83809537005E+02  0.21730139703E+02  0.44166328743E+02  0.97308746057E+02  0.47000000000E+01 0. -1.
         -5    1    4    4    0  502  0.46270566907E+02 -0.40258396935E+01  0.10611160427E+02  0.47873369139E+02  0.47000000000E+01 0. -1.
          5    1    5    5  503    0  0.17371990453E+01 -0.41815015018E+02  0.13800185481E+03  0.14428484076E+03  0.47000000000E+01 0. -1.
         -5    1    5    5    0  503  0.35801771053E+02  0.24110715009E+02 -0.23799697533E+01  0.43483877987E+02  0.47000000000E+01 0. -1.
<mgrwt>
<rscale>  0 0.27313794E+03</rscale>
<asrwt>0</asrwt>
<pdfrwt beam="1">  1        2 0.40257708E-01 0.27313794E+03</pdfrwt>
<pdfrwt beam="2">  1       -2 0.10965497E-01 0.27313794E+03</pdfrwt>
<totfact> 0.72019129E+03</totfact>
</mgrwt>
</event>
<event>
 9    1  0.2073852E-002  0.2740566E+03  0.7818608E-02  0.1098980E+00
          2   -1    0    0  501    0  0.00000000000E+00  0.00000000000E+00  0.14091185647E+04  0.14091185647E+04  0.00000000000E+00 0.  1.
         -2   -1    0    0    0  501 -0.00000000000E+00 -0.00000000000E+00 -0.13325174737E+02  0.13325174737E+02  0.00000000000E+00 0.  1.
         36    2    1    2    0    0  0.00000000000E+00 -0.71054273576E-14  0.13957933900E+04  0.14224437395E+04  0.27405657153E+03 0.  0.
         25    2    3    3    0    0 -0.19512875680E+02  0.49536276650E+02  0.80402467562E+03  0.81548453839E+03  0.12539839839E+03 0.  0.
         25    2    3    3    0    0  0.19512875680E+02 -0.49536276650E+02  0.59176871439E+03  0.60695920109E+03  0.12399461861E+03 0.  0.
          5    1    4    4  502    0 -0.78969588139E+01  0.54245424051E+02  0.79944568981E+03  0.80133665145E+03  0.47000000000E+01 0. -1.
         -5    1    4    4    0  502 -0.11615916867E+02 -0.47091474017E+01  0.45789858098E+01  0.14147886943E+02  0.47000000000E+01 0. -1.
          5    1    5    5  503    0 -0.21520651856E+02 -0.42008545097E+02  0.76699070877E+02  0.90181449261E+02  0.47000000000E+01 0. -1.
         -5    1    5    5    0  503  0.41033527537E+02 -0.75277315524E+01  0.51506964351E+03  0.51677775183E+03  0.47000000000E+01 0. -1.
<mgrwt>
<rscale>  0 0.27405657E+03</rscale>
<asrwt>0</asrwt>
<pdfrwt beam="1">  1        2 0.21678735E+00 0.27405657E+03</pdfrwt>
<pdfrwt beam="2">  1       -2 0.20500280E-02 0.27405657E+03</pdfrwt>
<totfact> 0.11384314E+04</totfact>
</mgrwt>
</event>
<event>
 9    1  0.2073852E-002  0.2751391E+03  0.7818608E-02  0.1098374E+00
         -3   -1    0    0    0  501 -0.00000000000E+00  0.00000000000E+00  0.46092276283E+03  0.46092276283E+03  0.00000000000E+00 0. -1.
          3   -1    0    0  501    0  0.00000000000E+00 -0.00000000000E+00 -0.41059778257E+02  0.41059778257E+02  0.00000000000E+00 0. -1.
         36    2    1    2    0    0  0.71054273576E-14 -0.71054273576E-14  0.41986298457E+03  0.50198254109E+03  0.27513913888E+03 0.  0.
         25    2    3    3    0    0  0.43107564635E+02  0.48212699325E+00  0.25202445430E+03  0.28672458351E+03  0.12975425483E+03 0.  0.
         25    2    3    3    0    0 -0.43107564635E+02 -0.48212699325E+00  0.16783853027E+03  0.21525795758E+03  0.12770168943E+03 0.  0.
          5    1    4    4  502    0  0.47112007597E+02 -0.44147478201E+02  0.22513212164E+03  0.23425435596E+03  0.47000000000E+01 0. -1.
         -5    1    4    4    0  502 -0.40044429613E+01  0.44629605195E+02  0.26892332664E+02  0.52470227552E+02  0.47000000000E+01 0. -1.
          5    1    5    5  503    0 -0.13006516845E+02 -0.43726460456E+02  0.75657910209E+01  0.46481222211E+02  0.47000000000E+01 0.  1.
         -5    1    5    5    0  503 -0.30101047791E+02  0.43244333462E+02  0.16027273925E+03  0.16877673537E+03  0.47000000000E+01 0.  1.
<mgrwt>
<rscale>  0 0.27513914E+03</rscale>
<asrwt>0</asrwt>
<pdfrwt beam="1">  1        3 0.63168893E-02 0.27513914E+03</pdfrwt>
<pdfrwt beam="2">  1       -3 0.70911191E-01 0.27513914E+03</pdfrwt>
<totfact> 0.77042247E+02</totfact>
</mgrwt>
</event>
<event>
 9    1  0.2073852E-002  0.2743202E+03  0.7818608E-02  0.1098832E+00
         -2   -1    0    0    0  501 -0.00000000000E+00  0.00000000000E+00  0.10999756803E+02  0.10999756803E+02  0.00000000000E+00 0.  1.
          2   -1    0    0  501    0  0.00000000000E+00 -0.00000000000E+00 -0.17103005324E+04  0.17103005324E+04  0.00000000000E+00 0.  1.
         36    2    1    2    0    0 -0.35527136788E-14 -0.35527136788E-14 -0.16993007756E+04  0.17213002893E+04  0.27432017729E+03 0.  0.
         25    2    3    3    0    0  0.16386130067E+02  0.22635395233E+02 -0.54123717576E+03  0.55631398012E+03  0.12556551151E+03 0.  0.
         25    2    3    3    0    0 -0.16386130067E+02 -0.22635395233E+02 -0.11580635999E+04  0.11649863091E+04  0.12369693892E+03 0.  0.
          5    1    4    4  502    0  0.34551266483E+02 -0.10649427940E+01 -0.51531007464E+03  0.51648958087E+03  0.47000000000E+01 0.  1.
         -5    1    4    4    0  502 -0.18165136416E+02  0.23700338027E+02 -0.25927101114E+02  0.39824399251E+02  0.47000000000E+01 0.  1.
          5    1    5    5  503    0  0.30099937996E+02 -0.32854989825E+02 -0.17125218436E+03  0.17701654519E+03  0.47000000000E+01 0. -1.
         -5    1    5    5    0  503 -0.46486068063E+02  0.10219594592E+02 -0.98681141553E+03  0.98796976394E+03  0.47000000000E+01 0. -1.
<mgrwt>
<rscale>  0 0.27432018E+03</rscale>
<asrwt>0</asrwt>
<pdfrwt beam="1">  1        2 0.26312294E+00 0.27432018E+03</pdfrwt>
<pdfrwt beam="2">  1       -2 0.16922717E-02 0.27432018E+03</pdfrwt>
<totfact> 0.10429006E+04</totfact>
</mgrwt>
</event>
<event>
 9    1  0.2073852E-002  0.2746277E+03  0.7818608E-02  0.1098660E+00
          1   -1    0    0  501    0  0.00000000000E+00  0.00000000000E+00  0.14105624908E+04  0.14105624908E+04  0.00000000000E+00 0. -1.
         -1   -1    0    0    0  501 -0.00000000000E+00 -0.00000000000E+00 -0.13367078334E+02  0.13367078334E+02  0.00000000000E+00 0. -1.
         36    2    1    2    0    0 -0.71054273576E-14 -0.71054273576E-14  0.13971954124E+04  0.14239295691E+04  0.27462774302E+03 0.  0.
         25    2    3    3    0    0  0.29380674357E+02 -0.48857982242E+02  0.83179139034E+03  0.84211761035E+03  0.11846867160E+03 0.  0.
         25    2    3    3    0    0 -0.29380674357E+02  0.48857982242E+02  0.56540402210E+03  0.58181195876E+03  0.12479231027E+03 0.  0.
          5    1    4    4  502    0  0.26192134335E+01  0.33705935696E+02  0.41260898305E+03  0.41401837311E+03  0.47000000000E+01 0.  1.
         -5    1    4    4    0  502  0.26761460923E+02 -0.82563917939E+02  0.41918240730E+03  0.42809923724E+03  0.47000000000E+01 0.  1.
          5    1    5    5  503    0  0.48006477140E+02  0.29959622492E+02  0.20834406153E+03  0.21594336943E+03  0.47000000000E+01 0.  1.
         -5    1    5    5    0  503 -0.77387151497E+02  0.18898359750E+02  0.35705996057E+03  0.36586858933E+03  0.47000000000E+01 0.  1.
<mgrwt>
<rscale>  0 0.27462774E+03</rscale>
<asrwt>0</asrwt>
<pdfrwt beam="1">  1        1 0.21700950E+00 0.27462774E+03</pdfrwt>
<pdfrwt beam="2">  1       -1 0.20564747E-02 0.27462774E+03</pdfrwt>
<totfact> 0.54047996E+03</totfact>
</mgrwt>
</event>
<event>
 9    1  0.2073852E-002  0.2754382E+03  0.7818608E-02  0.1098207E+00
          1   -1    0    0  501    0  0.00000000000E+00  0.00000000000E+00  0.22702033041E+02  0.22702033041E+02  0.00000000000E+00 0.  1.
         -1   -1    0    0    0  501 -0.00000000000E+00 -0.00000000000E+00 -0.83545591507E+03  0.83545591507E+03  0.00000000000E+00 0.  1.
         36    2    1    2    0    0  0.88817841970E-15  0.00000000000E+00 -0.81275388202E+03  0.85815794811E+03  0.27543818027E+03 0.  0.
         25    2    3    3    0    0 -0.33847951051E+01 -0.36407467074E+02 -0.54610990543E+03  0.56133096792E+03  0.12457714973E+03 0.  0.
         25    2    3    3    0    0  0.33847951051E+01  0.36407467074E+02 -0.26664397659E+03  0.29682698019E+03  0.12518101061E+03 0.  0.
          5    1    4    4  502    0  0.38858528574E+02 -0.24013635168E+02 -0.73595764935E+02  0.86747141355E+02  0.47000000000E+01 0.  1.
         -5    1    4    4    0  502 -0.42243323680E+02 -0.12393831906E+02 -0.47251414050E+03  0.47458382656E+03  0.47000000000E+01 0.  1.
          5    1    5    5  503    0  0.37210220164E+01  0.35367872049E+02 -0.62794802561E+01  0.36417773825E+02  0.47000000000E+01 0. -1.
         -5    1    5    5    0  503 -0.33622691131E+00  0.10395950256E+01 -0.26036449634E+03  0.26040920636E+03  0.47000000000E+01 0. -1.
<mgrwt>
<rscale>  0 0.27543818E+03</rscale>
<asrwt>0</asrwt>
<pdfrwt beam="1">  1        1 0.34926211E-02 0.27543818E+03</pdfrwt>
<pdfrwt beam="2">  1       -1 0.12853166E+00 0.27543818E+03</pdfrwt>
<totfact> 0.15394879E+03</totfact>
</mgrwt>
</event>
<event>
 9    1  0.2073852E-002  0.2745495E+03  0.7818608E-02  0.1098704E+00
         -1   -1    0    0    0  501 -0.00000000000E+00  0.00000000000E+00  0.49884523229E+02  0.49884523229E+02  0.00000000000E+00 0.  1.
          1   -1    0    0  501    0  0.00000000000E+00 -0.00000000000E+00 -0.37775967826E+03  0.37775967826E+03  0.00000000000E+00 0.  1.
         36    2    1    2    0    0  0.00000000000E+00 -0.35527136788E-14 -0.32787515503E+03  0.42764420149E+03  0.27454953247E+03 0.  0.
         25    2    3    3    0    0  0.37405435838E+02 -0.19683737587E+02 -0.20323634723E+03  0.24277900508E+03  0.12589684791E+03 0.  0.
         25    2    3    3    0    0 -0.37405435838E+02  0.19683737587E+02 -0.12463880780E+03  0.18486519642E+03  0.12982177121E+03 0.  0.
          5    1    4    4  502    0  0.37823601135E+02 -0.14793407163E+02 -0.22048309428E+03  0.22424173242E+03  0.47000000000E+01 0. -1.
         -5    1    4    4    0  502 -0.41816529698E+00 -0.48903304232E+01  0.17246747044E+02  0.18537272655E+02  0.47000000000E+01 0. -1.
          5    1    5    5  503    0 -0.42934064872E+02  0.68998939799E+02 -0.10093658731E+03  0.12967062998E+03  0.47000000000E+01 0. -1.
         -5    1    5    5    0  503  0.55286290341E+01 -0.49315202213E+02 -0.23702220488E+02  0.55194566439E+02  0.47000000000E+01 0. -1.
<mgrwt>
<rscale>  0 0.27454953E+03</rscale>
<asrwt>0</asrwt>
<pdfrwt beam="1">  1        1 0.58116871E-01 0.27454953E+03</pdfrwt>
<pdfrwt beam="2">  1       -1 0.76745424E-02 0.27454953E+03</pdfrwt>
<totfact> 0.59511031E+03</totfact>
</mgrwt>
</event>
<event>
 9    1  0.2073852E-002  0.2765360E+03  0.7818608E-02  0.1097596E+00
          1   -1    0    0  501    0  0.00000000000E+00  0.00000000000E+00  0.13027232411E+03  0.13027232411E+03  0.00000000000E+00 0. -1.
         -1   -1    0    0    0  501 -0.00000000000E+00 -0.00000000000E+00 -0.14675443588E+03  0.14675443588E+03  0.00000000000E+00 0. -1.
         36    2    1    2    0    0 -0.14210854715E-13  0.00000000000E+00 -0.16482111774E+02  0.27702675999E+03  0.27653601166E+03 0.  0.
         25    2    3    3    0    0  0.46552024006E+02  0.83693141508E+01 -0.10800175862E+02  0.13771919328E+03  0.12889063597E+03 0.  0.
         25    2    3    3    0    0 -0.46552024006E+02 -0.83693141508E+01 -0.56819359115E+01  0.13930756671E+03  0.13090904243E+03 0.  0.
          5    1    4    4  502    0  0.49988576829E+02  0.55828227438E+02 -0.36443898099E+02  0.83461946425E+02  0.47000000000E+01 0. -1.
         -5    1    4    4    0  502 -0.34365528231E+01 -0.47458913287E+02  0.25643722237E+02  0.54257246851E+02  0.47000000000E+01 0. -1.
          5    1    5    5  503    0 -0.88746899191E+02  0.13956323915E+02  0.52361097317E+01  0.90112695767E+02  0.47000000000E+01 0.  1.
         -5    1    5    5    0  503  0.42194875185E+02 -0.22325638065E+02 -0.10918045643E+02  0.49194870948E+02  0.47000000000E+01 0.  1.
<mgrwt>
<rscale>  0 0.27653601E+03</rscale>
<asrwt>0</asrwt>
<pdfrwt beam="1">  1        1 0.20041896E-01 0.27653601E+03</pdfrwt>
<pdfrwt beam="2">  1       -1 0.22577605E-01 0.27653601E+03</pdfrwt>
<totfact> 0.41792945E+03</totfact>
</mgrwt>
</event>
<event>
 9    1  0.2073852E-002  0.2749002E+03  0.7818608E-02  0.1098507E+00
         -2   -1    0    0    0  501 -0.00000000000E+00  0.00000000000E+00  0.12405948603E+03  0.12405948603E+03  0.00000000000E+00 0.  1.
          2   -1    0    0  501    0  0.00000000000E+00 -0.00000000000E+00 -0.15228600738E+03  0.15228600738E+03  0.00000000000E+00 0.  1.
         36    2    1    2    0    0  0.00000000000E+00  0.35527136788E-14 -0.28226521348E+02  0.27634549340E+03  0.27490015500E+03 0.  0.
         25    2    3    3    0    0 -0.19763647609E+02 -0.56718722830E+01  0.43724313196E+02  0.13428059583E+03  0.12528643562E+03 0.  0.
         25    2    3    3    0    0  0.19763647609E+02  0.56718722830E+01 -0.71950834544E+02  0.14206489757E+03  0.12075901883E+03 0.  0.
          5    1    4    4  502    0 -0.67045273519E+02 -0.47746298514E+00  0.52996088173E+02  0.85591892337E+02  0.47000000000E+01 0.  1.
         -5    1    4    4    0  502  0.47281625910E+02 -0.51944092978E+01 -0.92717749773E+01  0.48688703494E+02  0.47000000000E+01 0.  1.
          5    1    5    5  503    0  0.27331477536E+02  0.58463857475E+02 -0.20669523222E+02  0.67929017992E+02  0.47000000000E+01 0. -1.
         -5    1    5    5    0  503 -0.75678299276E+01 -0.52791985192E+02 -0.51281311322E+02  0.74135879581E+02  0.47000000000E+01 0. -1.
<mgrwt>
<rscale>  0 0.27490015E+03</rscale>
<asrwt>0</asrwt>
<pdfrwt beam="1">  1        2 0.23428617E-01 0.27490015E+03</pdfrwt>
<pdfrwt beam="2">  1       -2 0.19086075E-01 0.27490015E+03</pdfrwt>
<totfact> 0.52381029E+03</totfact>
</mgrwt>
</event>
<event>
 9    1  0.2073852E-002  0.2856805E+03  0.7818608E-02  0.1092626E+00
         -2   -1    0    0    0  501 -0.00000000000E+00  0.00000000000E+00  0.24979408969E+02  0.24979408969E+02  0.00000000000E+00 0.  1.
          2   -1    0    0  501    0  0.00000000000E+00 -0.00000000000E+00 -0.81680621830E+03  0.81680621830E+03  0.00000000000E+00 0.  1.
         36    2    1    2    0    0  0.71054273576E-14 -0.71054273576E-14 -0.79182680933E+03  0.84178562727E+03  0.28568049689E+03 0.  0.
         25    2    3    3    0    0 -0.18338348522E+02  0.61252577374E+02 -0.47500980719E+03  0.49527498804E+03  0.12479913299E+03 0.  0.
         25    2    3    3    0    0  0.18338348522E+02 -0.61252577374E+02 -0.31681700214E+03  0.34651063922E+03  0.12493373038E+03 0.  0.
          5    1    4    4  502    0  0.34750787472E+02 -0.20549319438E+02 -0.17990437726E+03  0.18443851744E+03  0.47000000000E+01 0.  1.
         -5    1    4    4    0  502 -0.53089135994E+02  0.81801896812E+02 -0.29510542993E+03  0.31083647061E+03  0.47000000000E+01 0.  1.
          5    1    5    5  503    0 -0.34698622885E+02  0.59287996038E+01 -0.27951830488E+02  0.45194467830E+02  0.47000000000E+01 0.  1.
         -5    1    5    5    0  503  0.53036971407E+02 -0.67181376977E+02 -0.28886517165E+03  0.30131617139E+03  0.47000000000E+01 0.  1.
<mgrwt>
<rscale>  0 0.28568050E+03</rscale>
<asrwt>0</asrwt>
<pdfrwt beam="1">  1        2 0.12566248E+00 0.28568050E+03</pdfrwt>
<pdfrwt beam="2">  1       -2 0.38429866E-02 0.28568050E+03</pdfrwt>
<totfact> 0.10068142E+04</totfact>
</mgrwt>
</event>
<event>
 9    1  0.2073852E-002  0.2752092E+03  0.7818608E-02  0.1098335E+00
         -2   -1    0    0    0  501 -0.00000000000E+00  0.00000000000E+00  0.40632713945E+02  0.40632713945E+02  0.00000000000E+00 0. -1.
          2   -1    0    0  501    0  0.00000000000E+00 -0.00000000000E+00 -0.46600452210E+03  0.46600452210E+03  0.00000000000E+00 0. -1.
         36    2    1    2    0    0  0.71054273576E-14  0.00000000000E+00 -0.42537180815E+03  0.50663723604E+03  0.27520921818E+03 0.  0.
         25    2    3    3    0    0  0.52739834831E+02 -0.35215179932E+02 -0.20777056575E+03  0.24997086081E+03  0.12367386217E+03 0.  0.
         25    2    3    3    0    0 -0.52739834831E+02  0.35215179932E+02 -0.21760124240E+03  0.25666637524E+03  0.12043972935E+03 0.  0.
          5    1    4    4  502    0  0.63399182989E+02 -0.73802929254E+02 -0.13081532845E+03  0.16309834127E+03  0.47000000000E+01 0. -1.
         -5    1    4    4    0  502 -0.10659348158E+02  0.38587749323E+02 -0.76955237306E+02  0.86872519531E+02  0.47000000000E+01 0. -1.
          5    1    5    5  503    0 -0.14125462049E+01  0.71019720119E+02 -0.13820349131E+03  0.15546089844E+03  0.47000000000E+01 0.  1.
         -5    1    5    5    0  503 -0.51327288626E+02 -0.35804540188E+02 -0.79397751092E+02  0.10120547680E+03  0.47000000000E+01 0.  1.
<mgrwt>
<rscale>  0 0.27520922E+03</rscale>
<asrwt>0</asrwt>
<pdfrwt beam="1">  1        2 0.71693004E-01 0.27520922E+03</pdfrwt>
<pdfrwt beam="2">  1       -2 0.62511867E-02 0.27520922E+03</pdfrwt>
<totfact> 0.93048914E+03</totfact>
</mgrwt>
</event>
<event>
 9    1  0.2073852E-002  0.2711274E+03  0.7818608E-02  0.1100636E+00
          2   -1    0    0  501    0  0.00000000000E+00  0.00000000000E+00  0.11218837920E+04  0.11218837920E+04  0.00000000000E+00 0. -1.
         -2   -1    0    0    0  501 -0.00000000000E+00 -0.00000000000E+00 -0.16380940900E+02  0.16380940900E+02  0.00000000000E+00 0. -1.
         36    2    1    2    0    0  0.00000000000E+00  0.35527136788E-14  0.11055028511E+04  0.11382647329E+04  0.27112736559E+03 0.  0.
         25    2    3    3    0    0 -0.40478573948E+02  0.11380712953E+02  0.42452544615E+03  0.44423801899E+03  0.12392549178E+03 0.  0.
         25    2    3    3    0    0  0.40478573948E+02 -0.11380712953E+02  0.68097740495E+03  0.69402671391E+03  0.12718025786E+03 0.  0.
          5    1    4    4  502    0 -0.10759767125E+02 -0.36690335563E+02  0.39929573671E+02  0.55483458488E+02  0.47000000000E+01 0. -1.
         -5    1    4    4    0  502 -0.29718806823E+02  0.48071048516E+02  0.38459587248E+03  0.38875456050E+03  0.47000000000E+01 0. -1.
          5    1    5    5  503    0 -0.35430432600E+02 -0.33677210860E+02  0.17041463320E+03  0.17734911134E+03  0.47000000000E+01 0.  1.
         -5    1    5    5    0  503  0.75909006549E+02  0.22296497907E+02  0.51056277175E+03  0.51667760256E+03  0.47000000000E+01 0.  1.
<mgrwt>
<rscale>  0 0.27112737E+03</rscale>
<asrwt>0</asrwt>
<pdfrwt beam="1">  1        2 0.17259745E+00 0.27112737E+03</pdfrwt>
<pdfrwt beam="2">  1       -2 0.25201456E-02 0.27112737E+03</pdfrwt>
<totfact> 0.12149683E+04</totfact>
</mgrwt>
</event>
<event>
 9    1  0.2073852E-002  0.2764335E+03  0.7818608E-02  0.1097653E+00
         -2   -1    0    0    0  501 -0.00000000000E+00  0.00000000000E+00  0.44799534659E+02  0.44799534659E+02  0.00000000000E+00 0.  1.
          2   -1    0    0  501    0  0.00000000000E+00 -0.00000000000E+00 -0.42643009284E+03  0.42643009284E+03  0.00000000000E+00 0.  1.
         36    2    1    2    0    0  0.00000000000E+00  0.14210854715E-13 -0.38163055818E+03  0.47122962750E+03  0.27643349814E+03 0.  0.
         25    2    3    3    0    0  0.28909509140E+02 -0.47333127380E+02 -0.20070583944E+03  0.24444702009E+03  0.12804423837E+03 0.  0.
         25    2    3    3    0    0 -0.28909509140E+02  0.47333127380E+02 -0.18092471874E+03  0.22678260740E+03  0.12498164867E+03 0.  0.
          5    1    4    4  502    0  0.23600811014E+02  0.31265846854E+02 -0.13835382909E+03  0.14386946683E+03  0.47000000000E+01 0.  1.
         -5    1    4    4    0  502  0.53086981262E+01 -0.78598974234E+02 -0.62352010346E+02  0.10057755326E+03  0.47000000000E+01 0.  1.
          5    1    5    5  503    0 -0.68967386617E+02  0.90545836762E+01 -0.53911326303E+02  0.88130624678E+02  0.47000000000E+01 0.  1.
         -5    1    5    5    0  503  0.40057877477E+02  0.38278543704E+02 -0.12701339244E+03  0.13865198273E+03  0.47000000000E+01 0.  1.
<mgrwt>
<rscale>  0 0.27643350E+03</rscale>
<asrwt>0</asrwt>
<pdfrwt beam="1">  1        2 0.65604632E-01 0.27643350E+03</pdfrwt>
<pdfrwt beam="2">  1       -2 0.68922359E-02 0.27643350E+03</pdfrwt>
<totfact> 0.88263042E+03</totfact>
</mgrwt>
</event>
<event>
 9    1  0.2073852E-002  0.2749022E+03  0.7818608E-02  0.1098506E+00
          2   -1    0    0  501    0  0.00000000000E+00  0.00000000000E+00  0.19354525221E+04  0.19354525221E+04  0.00000000000E+00 0.  1.
         -2   -1    0    0    0  501 -0.00000000000E+00 -0.00000000000E+00 -0.97614406652E+01  0.97614406652E+01  0.00000000000E+00 0.  1.
         36    2    1    2    0    0 -0.71054273576E-14 -0.71054273576E-14  0.19256910814E+04  0.19452139628E+04  0.27490220046E+03 0.  0.
         25    2    3    3    0    0 -0.19704708732E+02 -0.43754026053E+02  0.87514999933E+03  0.88564036893E+03  0.12715601210E+03 0.  0.
         25    2    3    3    0    0  0.19704708732E+02  0.43754026053E+02  0.10505410821E+04  0.10595735938E+04  0.12944861999E+03 0.  0.
          5    1    4    4  502    0  0.38643673362E+02 -0.59713128400E+02  0.57644411218E+03  0.58083465432E+03  0.47000000000E+01 0. -1.
         -5    1    4    4    0  502 -0.58348382094E+02  0.15959102347E+02  0.29870588714E+03  0.30480571460E+03  0.47000000000E+01 0. -1.
          5    1    5    5  503    0 -0.52741419000E+02  0.27258113835E+02  0.34357974337E+03  0.34870301419E+03  0.47000000000E+01 0. -1.
         -5    1    5    5    0  503  0.72446127731E+02  0.16495912217E+02  0.70696133874E+03  0.71087057965E+03  0.47000000000E+01 0. -1.
<mgrwt>
<rscale>  0 0.27490220E+03</rscale>
<asrwt>0</asrwt>
<pdfrwt beam="1">  1        2 0.29776162E+00 0.27490220E+03</pdfrwt>
<pdfrwt beam="2">  1       -2 0.15017616E-02 0.27490220E+03</pdfrwt>
<totfact> 0.94616735E+03</totfact>
</mgrwt>
</event>
<event>
 9    1  0.2073852E-002  0.2750389E+03  0.7818608E-02  0.1098430E+00
          4   -1    0    0  501    0  0.00000000000E+00  0.00000000000E+00  0.16790390397E+03  0.16790390397E+03  0.00000000000E+00 0. -1.
         -4   -1    0    0    0  501 -0.00000000000E+00 -0.00000000000E+00 -0.11263345963E+03  0.11263345963E+03  0.00000000000E+00 0. -1.
         36    2    1    2    0    0  0.00000000000E+00  0.00000000000E+00  0.55270444337E+02  0.28053736359E+03  0.27503888880E+03 0.  0.
         25    2    3    3    0    0 -0.32086668694E+02  0.38851326306E+02  0.40294494872E+01  0.13753356792E+03  0.12790725538E+03 0.  0.
         25    2    3    3    0    0  0.32086668694E+02 -0.38851326306E+02  0.51240994850E+02  0.14300379567E+03  0.12363440524E+03 0.  0.
          5    1    4    4  502    0 -0.84731892637E+01  0.70933789252E+02  0.41408383569E+02  0.82705148714E+02  0.47000000000E+01 0.  1.
         -5    1    4    4    0  502 -0.23613479430E+02 -0.32082462947E+02 -0.37378934082E+02  0.54828419206E+02  0.47000000000E+01 0.  1.
          5    1    5    5  503    0  0.71082523611E+02 -0.25702403319E+02 -0.17407035409E+01  0.75752615454E+02  0.47000000000E+01 0.  1.
         -5    1    5    5    0  503 -0.38995854917E+02 -0.13148922986E+02  0.52981698391E+02  0.67251180219E+02  0.47000000000E+01 0. -1.
<mgrwt>
<rscale>  0 0.27503889E+03</rscale>
<asrwt>0</asrwt>
<pdfrwt beam="1">  1        4 0.25831370E-01 0.27503889E+03</pdfrwt>
<pdfrwt beam="2">  1       -4 0.17328225E-01 0.27503889E+03</pdfrwt>
<totfact> 0.77180753E+02</totfact>
</mgrwt>
</event>
<event>
 9    1  0.2073852E-002  0.2755179E+03  0.7818608E-02  0.1098162E+00
          2   -1    0    0  501    0  0.00000000000E+00  0.00000000000E+00  0.59382600217E+02  0.59382600217E+02  0.00000000000E+00 0. -1.
         -2   -1    0    0    0  501 -0.00000000000E+00 -0.00000000000E+00 -0.31958066111E+03  0.31958066111E+03  0.00000000000E+00 0. -1.
         36    2    1    2    0    0  0.71054273576E-14 -0.71054273576E-14 -0.26019806089E+03  0.37896326132E+03  0.27551791692E+03 0.  0.
         25    2    3    3    0    0 -0.30788358012E+02 -0.36263754972E+02 -0.18929884537E+03  0.22977061399E+03  0.12123324330E+03 0.  0.
         25    2    3    3    0    0  0.30788358012E+02  0.36263754972E+02 -0.70899215519E+02  0.14919264733E+03  0.12234690165E+03 0.  0.
          5    1    4    4  502    0  0.11258819433E+02 -0.69552389468E+02 -0.13987616057E+03  0.15668990456E+03  0.47000000000E+01 0.  1.
         -5    1    4    4    0  502 -0.42047177445E+02  0.33288634496E+02 -0.49422684803E+02  0.73080709430E+02  0.47000000000E+01 0.  1.
          5    1    5    5  503    0 -0.11788233045E+02  0.49563156741E+02  0.14113874602E+02  0.53073160832E+02  0.47000000000E+01 0.  1.
         -5    1    5    5    0  503  0.42576591057E+02 -0.13299401769E+02 -0.85013090121E+02  0.96119486502E+02  0.47000000000E+01 0.  1.
<mgrwt>
<rscale>  0 0.27551792E+03</rscale>
<asrwt>0</asrwt>
<pdfrwt beam="1">  1        2 0.91357849E-02 0.27551792E+03</pdfrwt>
<pdfrwt beam="2">  1       -2 0.49166254E-01 0.27551792E+03</pdfrwt>
<totfact> 0.28427231E+03</totfact>
</mgrwt>
</event>
<event>
 9    1  0.2073852E-002  0.2770018E+03  0.7818608E-02  0.1097338E+00
         -2   -1    0    0    0  501 -0.00000000000E+00  0.00000000000E+00  0.16143881464E+02  0.16143881464E+02  0.00000000000E+00 0. -1.
          2   -1    0    0  501    0  0.00000000000E+00 -0.00000000000E+00 -0.11882210477E+04  0.11882210477E+04  0.00000000000E+00 0. -1.
         36    2    1    2    0    0  0.14210854715E-13  0.71054273576E-14 -0.11720771662E+04  0.12043649292E+04  0.27700180322E+03 0.  0.
         25    2    3    3    0    0 -0.34830911566E+02  0.37908755710E+02 -0.44606488887E+03  0.46538017913E+03  0.12228883793E+03 0.  0.
         25    2    3    3    0    0  0.34830911566E+02 -0.37908755710E+02 -0.72601227735E+03  0.73898475002E+03  0.12788419659E+03 0.  0.
          5    1    4    4  502    0 -0.24078605765E+02  0.12278204251E+02 -0.43375291492E+03  0.43461962076E+03  0.47000000000E+01 0. -1.
         -5    1    4    4    0  502 -0.10752305801E+02  0.25630551459E+02 -0.12311973952E+02  0.30760558362E+02  0.47000000000E+01 0. -1.
          5    1    5    5  503    0  0.83389240117E+02 -0.25860605056E+02 -0.47860069734E+03  0.48652158612E+03  0.47000000000E+01 0.  1.
         -5    1    5    5    0  503 -0.48558328551E+02 -0.12048150655E+02 -0.24741158001E+03  0.25246316391E+03  0.47000000000E+01 0.  1.
<mgrwt>
<rscale>  0 0.27700180E+03</rscale>
<asrwt>0</asrwt>
<pdfrwt beam="1">  1        2 0.18280324E+00 0.27700180E+03</pdfrwt>
<pdfrwt beam="2">  1       -2 0.24836741E-02 0.27700180E+03</pdfrwt>
<totfact> 0.11375685E+04</totfact>
</mgrwt>
</event>
<event>
 9    1  0.2073852E-002  0.2737212E+03  0.7818608E-02  0.1099169E+00
         -3   -1    0    0    0  501 -0.00000000000E+00  0.00000000000E+00  0.11604874731E+03  0.11604874731E+03  0.00000000000E+00 0.  1.
          3   -1    0    0  501    0  0.00000000000E+00 -0.00000000000E+00 -0.16140476119E+03  0.16140476119E+03  0.00000000000E+00 0.  1.
         36    2    1    2    0    0  0.00000000000E+00  0.00000000000E+00 -0.45356013875E+02  0.27745350850E+03  0.27372117452E+03 0.  0.
         25    2    3    3    0    0  0.49915501708E+02  0.47629707282E+02 -0.40556069346E+02  0.13323899688E+03  0.10652553310E+03 0.  0.
         25    2    3    3    0    0 -0.49915501708E+02 -0.47629707282E+02 -0.47999445291E+01  0.14421451162E+03  0.12654896115E+03 0.  0.
          5    1    4    4  502    0 -0.20278071901E+02  0.33131314515E+02 -0.46960370750E+02  0.61124877280E+02  0.47000000000E+01 0.  1.
         -5    1    4    4    0  502  0.70193573609E+02  0.14498392767E+02  0.64043014036E+01  0.72114119597E+02  0.47000000000E+01 0.  1.
          5    1    5    5  503    0 -0.22380518513E+02 -0.71045792610E+00  0.57194451312E+02  0.61601035870E+02  0.47000000000E+01 0. -1.
         -5    1    5    5    0  503 -0.27534983195E+02 -0.46919249356E+02 -0.61994395841E+02  0.82613475749E+02  0.47000000000E+01 0. -1.
<mgrwt>
<rscale>  0 0.27372117E+03</rscale>
<asrwt>0</asrwt>
<pdfrwt beam="1">  1        3 0.24831502E-01 0.27372117E+03</pdfrwt>
<pdfrwt beam="2">  1       -3 0.17853653E-01 0.27372117E+03</pdfrwt>
<totfact> 0.10602476E+03</totfact>
</mgrwt>
</event>
<event>
 9    1  0.2073852E-002  0.2748710E+03  0.7818608E-02  0.1098524E+00
          2   -1    0    0  501    0  0.00000000000E+00  0.00000000000E+00  0.33974475591E+04  0.33974475591E+04  0.00000000000E+00 0. -1.
         -2   -1    0    0    0  501 -0.00000000000E+00 -0.00000000000E+00 -0.55596208619E+01  0.55596208619E+01  0.00000000000E+00 0. -1.
         36    2    1    2    0    0  0.71054273576E-14  0.00000000000E+00  0.33918879383E+04  0.34030071800E+04  0.27487102668E+03 0.  0.
         25    2    3    3    0    0  0.52146581770E+02 -0.94651729257E+01  0.18942524824E+04  0.18992861534E+04  0.12761884585E+03 0.  0.
         25    2    3    3    0    0 -0.52146581770E+02  0.94651729257E+01  0.14976354559E+04  0.15037210266E+04  0.12432261155E+03 0.  0.
          5    1    4    4  502    0  0.18400475029E+02 -0.20586634766E+02  0.17631601247E+04  0.17633825741E+04  0.47000000000E+01 0. -1.
         -5    1    4    4    0  502  0.33746106741E+02  0.11121461841E+02  0.13109235767E+03  0.13590357933E+03  0.47000000000E+01 0. -1.
          5    1    5    5  503    0  0.48609301220E+01  0.12291441623E+02  0.12275567635E+04  0.12276369194E+04  0.47000000000E+01 0. -1.
         -5    1    5    5    0  503 -0.57007511892E+02 -0.28262686970E+01  0.27007869234E+03  0.27608410723E+03  0.47000000000E+01 0. -1.
<mgrwt>
<rscale>  0 0.27487103E+03</rscale>
<asrwt>0</asrwt>
<pdfrwt beam="1">  1        2 0.52268258E+00 0.27487103E+03</pdfrwt>
<pdfrwt beam="2">  1       -2 0.85532900E-03 0.27487103E+03</pdfrwt>
<totfact> 0.31661635E+03</totfact>
</mgrwt>
</event>
<event>
 9    1  0.2073852E-002  0.2755248E+03  0.7818608E-02  0.1098159E+00
          3   -1    0    0  501    0  0.00000000000E+00  0.00000000000E+00  0.50601525323E+03  0.50601525323E+03  0.00000000000E+00 0. -1.
         -3   -1    0    0    0  501 -0.00000000000E+00 -0.00000000000E+00 -0.37505744665E+02  0.37505744665E+02  0.00000000000E+00 0. -1.
         36    2    1    2    0    0  0.00000000000E+00 -0.35527136788E-14  0.46850950857E+03  0.54352099790E+03  0.27552480022E+03 0.  0.
         25    2    3    3    0    0  0.77392864819E+02  0.98640125506E+01  0.21941247201E+03  0.26385276728E+03  0.12405440605E+03 0.  0.
         25    2    3    3    0    0 -0.77392864819E+02 -0.98640125506E+01  0.24909703656E+03  0.27966823062E+03  0.10038939847E+03 0.  0.
          5    1    4    4  502    0 -0.25565096215E+02  0.27227011424E+02  0.32631136945E+02  0.49817320220E+02  0.47000000000E+01 0. -1.
         -5    1    4    4    0  502  0.10295796103E+03 -0.17362998873E+02  0.18678133507E+03  0.21403544706E+03  0.47000000000E+01 0. -1.
          5    1    5    5  503    0 -0.21536649819E+02 -0.51739479047E+02  0.94381616749E+02  0.10986710407E+03  0.47000000000E+01 0. -1.
         -5    1    5    5    0  503 -0.55856214999E+02  0.41875466497E+02  0.15471541981E+03  0.16980112654E+03  0.47000000000E+01 0. -1.
<mgrwt>
<rscale>  0 0.27552480E+03</rscale>
<asrwt>0</asrwt>
<pdfrwt beam="1">  1        3 0.77848496E-01 0.27552480E+03</pdfrwt>
<pdfrwt beam="2">  1       -3 0.57701149E-02 0.27552480E+03</pdfrwt>
<totfact> 0.72959757E+02</totfact>
</mgrwt>
</event>
<event>
 9    1  0.2073852E-002  0.2648434E+03  0.7818608E-02  0.1104268E+00
          1   -1    0    0  501    0  0.00000000000E+00  0.00000000000E+00  0.27801662798E+02  0.27801662798E+02  0.00000000000E+00 0.  1.
         -1   -1    0    0    0  501 -0.00000000000E+00 -0.00000000000E+00 -0.63073597173E+03  0.63073597173E+03  0.00000000000E+00 0.  1.
         36    2    1    2    0    0  0.00000000000E+00 -0.71054273576E-14 -0.60293430893E+03  0.65853763453E+03  0.26484341638E+03 0.  0.
         25    2    3    3    0    0 -0.19520943368E+02  0.34325202911E+02 -0.34188870956E+03  0.36570452668E+03  0.12366335078E+03 0.  0.
         25    2    3    3    0    0  0.19520943368E+02 -0.34325202911E+02 -0.26104559937E+03  0.29283310785E+03  0.12667729597E+03 0.  0.
          5    1    4    4  502    0 -0.24410495415E+02  0.57373548502E+02 -0.33489448689E+03  0.34068167504E+03  0.47000000000E+01 0.  1.
         -5    1    4    4    0  502  0.48895520478E+01 -0.23048345591E+02 -0.69942226671E+01  0.25022851645E+02  0.47000000000E+01 0.  1.
          5    1    5    5  503    0  0.46761932568E+02 -0.84695796998E+01 -0.25250465130E+02  0.54019330865E+02  0.47000000000E+01 0.  1.
         -5    1    5    5    0  503 -0.27240989201E+02 -0.25855623211E+02 -0.23579513424E+03  0.23881377698E+03  0.47000000000E+01 0.  1.
<mgrwt>
<rscale>  0 0.26484342E+03</rscale>
<asrwt>0</asrwt>
<pdfrwt beam="1">  1        1 0.42771792E-02 0.26484342E+03</pdfrwt>
<pdfrwt beam="2">  1       -1 0.97036296E-01 0.26484342E+03</pdfrwt>
<totfact> 0.22253785E+03</totfact>
</mgrwt>
</event>
<event>
 9    1  0.2073852E-002  0.2757454E+03  0.7818608E-02  0.1098036E+00
          1   -1    0    0  501    0  0.00000000000E+00  0.00000000000E+00  0.25207522182E+02  0.25207522182E+02  0.00000000000E+00 0.  1.
         -1   -1    0    0    0  501 -0.00000000000E+00 -0.00000000000E+00 -0.75409539344E+03  0.75409539344E+03  0.00000000000E+00 0.  1.
         36    2    1    2    0    0  0.00000000000E+00  0.17763568394E-14 -0.72888787126E+03  0.77930291563E+03  0.27574536339E+03 0.  0.
         25    2    3    3    0    0  0.56918975147E+02 -0.55063488360E+01 -0.40115271393E+03  0.42448575008E+03  0.12646961102E+03 0.  0.
         25    2    3    3    0    0 -0.56918975147E+02  0.55063488360E+01 -0.32773515733E+03  0.35481716555E+03  0.12334827932E+03 0.  0.
          5    1    4    4  502    0 -0.31845426547E+02 -0.26307089305E+02 -0.18912535840E+03  0.19364060868E+03  0.47000000000E+01 0.  1.
         -5    1    4    4    0  502  0.88764401693E+02  0.20800740469E+02 -0.21202735554E+03  0.23084514140E+03  0.47000000000E+01 0.  1.
          5    1    5    5  503    0  0.36917160497E+02  0.16675699632E+02 -0.11406524344E+03  0.12113597921E+03  0.47000000000E+01 0.  1.
         -5    1    5    5    0  503 -0.93836135643E+02 -0.11169350796E+02 -0.21366991389E+03  0.23368118634E+03  0.47000000000E+01 0.  1.
<mgrwt>
<rscale>  0 0.27574536E+03</rscale>
<asrwt>0</asrwt>
<pdfrwt beam="1">  1        1 0.38780801E-02 0.27574536E+03</pdfrwt>
<pdfrwt beam="2">  1       -1 0.11601468E+00 0.27574536E+03</pdfrwt>
<totfact> 0.17005910E+03</totfact>
</mgrwt>
</event>
<event>
 9    1  0.2073852E-002  0.2705861E+03  0.7818608E-02  0.1100945E+00
          2   -1    0    0  501    0  0.00000000000E+00  0.00000000000E+00  0.12041980799E+03  0.12041980799E+03  0.00000000000E+00 0. -1.
         -2   -1    0    0    0  501 -0.00000000000E+00 -0.00000000000E+00 -0.15200327348E+03  0.15200327348E+03  0.00000000000E+00 0. -1.
         36    2    1    2    0    0 -0.71054273576E-14  0.71054273576E-14 -0.31583465483E+02  0.27242308147E+03  0.27058606769E+03 0.  0.
         25    2    3    3    0    0  0.47468388568E+02 -0.30327948966E+02  0.13692799659E+02  0.13007458064E+03  0.11644256681E+03 0.  0.
         25    2    3    3    0    0 -0.47468388568E+02  0.30327948966E+02 -0.45276265142E+02  0.14234850083E+03  0.12263817963E+03 0.  0.
          5    1    4    4  502    0  0.33181323079E+02 -0.68779187356E+02 -0.17309285741E+02  0.78442833883E+02  0.47000000000E+01 0. -1.
         -5    1    4    4    0  502  0.14287065489E+02  0.38451238390E+02  0.31002085400E+02  0.51631746757E+02  0.47000000000E+01 0. -1.
          5    1    5    5  503    0 -0.64955097185E+02 -0.29303609854E+02 -0.14615046733E+02  0.72894140998E+02  0.47000000000E+01 0.  1.
         -5    1    5    5    0  503  0.17486708617E+02  0.59631558821E+02 -0.30661218408E+02  0.69454359834E+02  0.47000000000E+01 0.  1.
<mgrwt>
<rscale>  0 0.27058607E+03</rscale>
<asrwt>0</asrwt>
<pdfrwt beam="1">  1        2 0.18526124E-01 0.27058607E+03</pdfrwt>
<pdfrwt beam="2">  1       -2 0.23385119E-01 0.27058607E+03</pdfrwt>
<totfact> 0.48208370E+03</totfact>
</mgrwt>
</event>
<event>
 9    1  0.2073852E-002  0.2751175E+03  0.7818608E-02  0.1098386E+00
         -1   -1    0    0    0  501 -0.00000000000E+00  0.00000000000E+00  0.20792359042E+02  0.20792359042E+02  0.00000000000E+00 0.  1.
          1   -1    0    0  501    0  0.00000000000E+00 -0.00000000000E+00 -0.91006525864E+03  0.91006525864E+03  0.00000000000E+00 0.  1.
         36    2    1    2    0    0  0.17763568394E-14  0.44408920985E-14 -0.88927289960E+03  0.93085761768E+03  0.27511745571E+03 0.  0.
         25    2    3    3    0    0 -0.41250231647E+01  0.35868714378E+01 -0.64477219678E+03  0.65646604833E+03  0.12323394589E+03 0.  0.
         25    2    3    3    0    0  0.41250231647E+01 -0.35868714378E+01 -0.24450070282E+03  0.27439156935E+03  0.12441968568E+03 0.  0.
          5    1    4    4  502    0  0.22174191758E+02  0.57641267990E+02 -0.37078762288E+03  0.37592520777E+03  0.47000000000E+01 0. -1.
         -5    1    4    4    0  502 -0.26299214923E+02 -0.54054396552E+02 -0.27398457389E+03  0.28054084056E+03  0.47000000000E+01 0. -1.
          5    1    5    5  503    0 -0.12350224074E+02 -0.86455791903E+01  0.10372443443E+02  0.18893164298E+02  0.47000000000E+01 0. -1.
         -5    1    5    5    0  503  0.16475247238E+02  0.50587077525E+01 -0.25487314627E+03  0.25549840505E+03  0.47000000000E+01 0. -1.
<mgrwt>
<rscale>  0 0.27511746E+03</rscale>
<asrwt>0</asrwt>
<pdfrwt beam="1">  1        1 0.14001005E+00 0.27511746E+03</pdfrwt>
<pdfrwt beam="2">  1       -1 0.31988242E-02 0.27511746E+03</pdfrwt>
<totfact> 0.64240496E+03</totfact>
</mgrwt>
</event>
<event>
 9    1  0.2073852E-002  0.2740663E+03  0.7818608E-02  0.1098975E+00
         -2   -1    0    0    0  501 -0.00000000000E+00  0.00000000000E+00  0.49163424790E+02  0.49163424790E+02  0.00000000000E+00 0. -1.
          2   -1    0    0  501    0  0.00000000000E+00 -0.00000000000E+00 -0.38195227518E+03  0.38195227518E+03  0.00000000000E+00 0. -1.
         36    2    1    2    0    0  0.00000000000E+00  0.00000000000E+00 -0.33278885039E+03  0.43111569997E+03  0.27406628362E+03 0.  0.
         25    2    3    3    0    0 -0.55886544345E+02 -0.14958101927E+02 -0.14593475594E+03  0.20099535345E+03  0.12551943462E+03 0.  0.
         25    2    3    3    0    0  0.55886544345E+02  0.14958101927E+02 -0.18685409446E+03  0.23012034652E+03  0.12121827674E+03 0.  0.
          5    1    4    4  502    0  0.19778013700E+02 -0.70272179652E+00  0.13131648032E+02  0.24211439938E+02  0.47000000000E+01 0.  1.
         -5    1    4    4    0  502 -0.75664558044E+02 -0.14255380131E+02 -0.15906640397E+03  0.17678391352E+03  0.47000000000E+01 0.  1.
          5    1    5    5  503    0 -0.37375745857E+02  0.13773628340E+02 -0.68240558161E+02  0.79155056655E+02  0.47000000000E+01 0. -1.
         -5    1    5    5    0  503  0.93262290202E+02  0.11844735874E+01 -0.11861353630E+03  0.15096528986E+03  0.47000000000E+01 0. -1.
<mgrwt>
<rscale>  0 0.27406628E+03</rscale>
<asrwt>0</asrwt>
<pdfrwt beam="1">  1        2 0.58761886E-01 0.27406628E+03</pdfrwt>
<pdfrwt beam="2">  1       -2 0.75636041E-02 0.27406628E+03</pdfrwt>
<totfact> 0.86108823E+03</totfact>
</mgrwt>
</event>
<event>
 9    1  0.2073852E-002  0.2744134E+03  0.7818608E-02  0.1098780E+00
         -1   -1    0    0    0  501 -0.00000000000E+00  0.00000000000E+00  0.44703755794E+03  0.44703755794E+03  0.00000000000E+00 0. -1.
          1   -1    0    0  501    0  0.00000000000E+00 -0.00000000000E+00 -0.42112075156E+02  0.42112075156E+02  0.00000000000E+00 0. -1.
         36    2    1    2    0    0  0.00000000000E+00  0.35527136788E-14  0.40492548278E+03  0.48914963309E+03  0.27441340519E+03 0.  0.
         25    2    3    3    0    0 -0.36186970023E+02  0.21452093177E+02  0.14233018882E+03  0.19508012593E+03  0.12660443824E+03 0.  0.
         25    2    3    3    0    0  0.36186970023E+02 -0.21452093177E+02  0.26259529396E+03  0.29406950716E+03  0.12550257977E+03 0.  0.
          5    1    4    4  502    0 -0.72225188706E+02 -0.15146165225E+02  0.49818992585E+02  0.89162246646E+02  0.47000000000E+01 0. -1.
         -5    1    4    4    0  502  0.36038218684E+02  0.36598258401E+02  0.92511196230E+02  0.10591787928E+03  0.47000000000E+01 0. -1.
          5    1    5    5  503    0  0.39773270701E+02 -0.20883895180E+02  0.27586133587E+03  0.27953464324E+03  0.47000000000E+01 0.  1.
         -5    1    5    5    0  503 -0.35863006786E+01 -0.56819799702E+00 -0.13266041907E+02  0.14534863928E+02  0.47000000000E+01 0.  1.
<mgrwt>
<rscale>  0 0.27441341E+03</rscale>
<asrwt>0</asrwt>
<pdfrwt beam="1">  1        1 0.64787811E-02 0.27441341E+03</pdfrwt>
<pdfrwt beam="2">  1       -1 0.68775006E-01 0.27441341E+03</pdfrwt>
<totfact> 0.25746601E+03</totfact>
</mgrwt>
</event>
<event>
 9    1  0.2073852E-002  0.2753088E+03  0.7818608E-02  0.1098279E+00
          2   -1    0    0  501    0  0.00000000000E+00  0.00000000000E+00  0.98729343987E+02  0.98729343987E+02  0.00000000000E+00 0. -1.
         -2   -1    0    0    0  501 -0.00000000000E+00 -0.00000000000E+00 -0.19192611170E+03  0.19192611170E+03  0.00000000000E+00 0. -1.
         36    2    1    2    0    0  0.71054273576E-14  0.00000000000E+00 -0.93196767716E+02  0.29065545569E+03  0.27530883823E+03 0.  0.
         25    2    3    3    0    0  0.56009296126E+02  0.54156852215E+01 -0.35643385045E+02  0.14228693313E+03  0.12573284989E+03 0.  0.
         25    2    3    3    0    0 -0.56009296126E+02 -0.54156852215E+01 -0.57553382672E+02  0.14836852256E+03  0.12463729671E+03 0.  0.
          5    1    4    4  502    0 -0.15311965885E+02 -0.30734893922E+02 -0.50075312209E+02  0.60899235599E+02  0.47000000000E+01 0. -1.
         -5    1    4    4    0  502  0.71321262010E+02  0.36150579143E+02  0.14431927165E+02  0.81387697528E+02  0.47000000000E+01 0. -1.
          5    1    5    5  503    0 -0.42747674882E+02 -0.26511599532E+02 -0.92377964929E+02  0.10529010885E+03  0.47000000000E+01 0. -1.
         -5    1    5    5    0  503 -0.13261621243E+02  0.21095914310E+02  0.34824582257E+02  0.43078413713E+02  0.47000000000E+01 0. -1.
<mgrwt>
<rscale>  0 0.27530884E+03</rscale>
<asrwt>0</asrwt>
<pdfrwt beam="1">  1        2 0.15189130E-01 0.27530884E+03</pdfrwt>
<pdfrwt beam="2">  1       -2 0.29527094E-01 0.27530884E+03</pdfrwt>
<totfact> 0.40193995E+03</totfact>
</mgrwt>
</event>
<event>
 9    1  0.2073852E-002  0.2795376E+03  0.7818608E-02  0.1095942E+00
          1   -1    0    0  501    0  0.00000000000E+00  0.00000000000E+00  0.10546583058E+04  0.10546583058E+04  0.00000000000E+00 0. -1.
         -1   -1    0    0    0  501 -0.00000000000E+00 -0.00000000000E+00 -0.18522885308E+02  0.18522885308E+02  0.00000000000E+00 0. -1.
         36    2    1    2    0    0  0.00000000000E+00  0.00000000000E+00  0.10361354204E+04  0.10731811911E+04  0.27953758128E+03 0.  0.
         25    2    3    3    0    0 -0.38843149257E+02  0.45851763654E+02  0.44420504855E+03  0.46501921184E+03  0.12374800100E+03 0.  0.
         25    2    3    3    0    0  0.38843149257E+02 -0.45851763654E+02  0.59193037190E+03  0.60816197923E+03  0.12596925547E+03 0.  0.
          5    1    4    4  502    0  0.65332018547E+01  0.46220497692E+02  0.39554665488E+03  0.39831929820E+03  0.47000000000E+01 0.  1.
         -5    1    4    4    0  502 -0.45376351111E+02 -0.36873403808E+00  0.48658393669E+02  0.66699913639E+02  0.47000000000E+01 0.  1.
          5    1    5    5  503    0 -0.23044026580E+02 -0.15876536571E+02  0.27419624141E+02  0.39459059322E+02  0.47000000000E+01 0.  1.
         -5    1    5    5    0  503  0.61887175837E+02 -0.29975227083E+02  0.56451074776E+03  0.56870291990E+03  0.47000000000E+01 0.  1.
<mgrwt>
<rscale>  0 0.27953758E+03</rscale>
<asrwt>0</asrwt>
<pdfrwt beam="1">  1        1 0.16225508E+00 0.27953758E+03</pdfrwt>
<pdfrwt beam="2">  1       -1 0.28496755E-02 0.27953758E+03</pdfrwt>
<totfact> 0.59266520E+03</totfact>
</mgrwt>
</event>
<event>
 9    1  0.2073852E-002  0.2711233E+03  0.7818608E-02  0.1100638E+00
         -1   -1    0    0    0  501 -0.00000000000E+00  0.00000000000E+00  0.37465709562E+02  0.37465709562E+02  0.00000000000E+00 0.  1.
          1   -1    0    0  501    0  0.00000000000E+00 -0.00000000000E+00 -0.49050087150E+03  0.49050087150E+03  0.00000000000E+00 0.  1.
         36    2    1    2    0    0 -0.71054273576E-14  0.00000000000E+00 -0.45303516194E+03  0.52796658106E+03  0.27112331653E+03 0.  0.
         25    2    3    3    0    0  0.54055432406E-01 -0.15494908607E+01 -0.32071981679E+03  0.34249043823E+03  0.12015030399E+03 0.  0.
         25    2    3    3    0    0 -0.54055432406E-01  0.15494908607E+01 -0.13231534514E+03  0.18547614284E+03  0.12996786202E+03 0.  0.
          5    1    4    4  502    0 -0.38445827090E+02  0.11461046806E+02 -0.33799059722E+02  0.52667861667E+02  0.47000000000E+01 0.  1.
         -5    1    4    4    0  502  0.38499882522E+02 -0.13010537667E+02 -0.28692075707E+03  0.28982257656E+03  0.47000000000E+01 0.  1.
          5    1    5    5  503    0  0.59739881554E+02 -0.19744209936E+02 -0.86452969672E+02  0.10702753496E+03  0.47000000000E+01 0.  1.
         -5    1    5    5    0  503 -0.59793936987E+02  0.21293700797E+02 -0.45862375471E+02  0.78448607877E+02  0.47000000000E+01 0.  1.
<mgrwt>
<rscale>  0 0.27112332E+03</rscale>
<asrwt>0</asrwt>
<pdfrwt beam="1">  1        1 0.75461668E-01 0.27112332E+03</pdfrwt>
<pdfrwt beam="2">  1       -1 0.57639557E-02 0.27112332E+03</pdfrwt>
<totfact> 0.65423259E+03</totfact>
</mgrwt>
</event>
<event>
 9    1  0.2073852E-002  0.2752183E+03  0.7818608E-02  0.1098330E+00
         -3   -1    0    0    0  501 -0.00000000000E+00  0.00000000000E+00  0.18655661591E+03  0.18655661591E+03  0.00000000000E+00 0.  1.
          3   -1    0    0  501    0  0.00000000000E+00 -0.00000000000E+00 -0.10150416290E+03  0.10150416290E+03  0.00000000000E+00 0.  1.
         36    2    1    2    0    0  0.00000000000E+00  0.14210854715E-13  0.85052453011E+02  0.28806077880E+03  0.27521826342E+03 0.  0.
         25    2    3    3    0    0 -0.52155694856E+01 -0.45292050921E+02  0.74781480034E+02  0.15084225160E+03  0.12281100549E+03 0.  0.
         25    2    3    3    0    0  0.52155694856E+01  0.45292050921E+02  0.10270972977E+02  0.13721852721E+03  0.12901495759E+03 0.  0.
          5    1    4    4  502    0 -0.49338199450E+02 -0.56940975163E+01  0.76518972882E+02  0.91345081325E+02  0.47000000000E+01 0. -1.
         -5    1    4    4    0  502  0.44122629964E+02 -0.39597953405E+02 -0.17374928472E+01  0.59497170271E+02  0.47000000000E+01 0. -1.
          5    1    5    5  503    0  0.51667349435E+02  0.61340533343E+02  0.27520965296E+02  0.84921549440E+02  0.47000000000E+01 0.  1.
         -5    1    5    5    0  503 -0.46451779949E+02 -0.16048482421E+02 -0.17249992320E+02  0.52296977766E+02  0.47000000000E+01 0.  1.
<mgrwt>
<rscale>  0 0.27521826E+03</rscale>
<asrwt>0</asrwt>
<pdfrwt beam="1">  1        3 0.15616025E-01 0.27521826E+03</pdfrwt>
<pdfrwt beam="2">  1       -3 0.28701018E-01 0.27521826E+03</pdfrwt>
<totfact> 0.10265981E+03</totfact>
</mgrwt>
</event>
<event>
 9    1  0.2073852E-002  0.2740223E+03  0.7818608E-02  0.1098999E+00
         -1   -1    0    0    0  501 -0.00000000000E+00  0.00000000000E+00  0.24354328431E+02  0.24354328431E+02  0.00000000000E+00 0.  1.
          1   -1    0    0  501    0  0.00000000000E+00 -0.00000000000E+00 -0.77078939558E+03  0.77078939558E+03  0.00000000000E+00 0.  1.
         36    2    1    2    0    0  0.71054273576E-14  0.00000000000E+00 -0.74643506715E+03  0.79514372401E+03  0.27402232093E+03 0.  0.
         25    2    3    3    0    0  0.30595670371E+02  0.22182500645E+02 -0.48266870072E+03  0.50027734171E+03  0.12601660843E+03 0.  0.
         25    2    3    3    0    0 -0.30595670371E+02 -0.22182500645E+02 -0.26376636643E+03  0.29486638230E+03  0.12627481526E+03 0.  0.
          5    1    4    4  502    0 -0.18498534402E+02 -0.23082984806E+02 -0.28980805437E+02  0.41677296534E+02  0.47000000000E+01 0.  1.
         -5    1    4    4    0  502  0.49094204773E+02  0.45265485452E+02 -0.45368789528E+03  0.45860004518E+03  0.47000000000E+01 0.  1.
          5    1    5    5  503    0  0.15883036686E+02 -0.65406627896E+02 -0.12060879641E+03  0.13819865990E+03  0.47000000000E+01 0. -1.
         -5    1    5    5    0  503 -0.46478707057E+02  0.43224127251E+02 -0.14315757002E+03  0.15666772239E+03  0.47000000000E+01 0. -1.
<mgrwt>
<rscale>  0 0.27402232E+03</rscale>
<asrwt>0</asrwt>
<pdfrwt beam="1">  1        1 0.11858298E+00 0.27402232E+03</pdfrwt>
<pdfrwt beam="2">  1       -1 0.37468198E-02 0.27402232E+03</pdfrwt>
<totfact> 0.66003797E+03</totfact>
</mgrwt>
</event>
<event>
 9    1  0.2073852E-002  0.2745508E+03  0.7818608E-02  0.1098703E+00
         -1   -1    0    0    0  501 -0.00000000000E+00  0.00000000000E+00  0.53882804550E+02  0.53882804550E+02  0.00000000000E+00 0. -1.
          1   -1    0    0  501    0  0.00000000000E+00 -0.00000000000E+00 -0.34973184096E+03  0.34973184096E+03  0.00000000000E+00 0. -1.
         36    2    1    2    0    0  0.14210854715E-13  0.35527136788E-14 -0.29584903641E+03  0.40361464551E+03  0.27455077805E+03 0.  0.
         25    2    3    3    0    0  0.44862459959E+02  0.22337514003E+02 -0.12943292675E+03  0.18852798218E+03  0.12758649103E+03 0.  0.
         25    2    3    3    0    0 -0.44862459959E+02 -0.22337514003E+02 -0.16641610966E+03  0.21508666333E+03  0.12671363913E+03 0.  0.
          5    1    4    4  502    0  0.12878845150E+02 -0.27778627726E+02 -0.12493794950E+03  0.12872100852E+03  0.47000000000E+01 0.  1.
         -5    1    4    4    0  502  0.31983614810E+02  0.50116141729E+02 -0.44949772561E+01  0.59806973662E+02  0.47000000000E+01 0.  1.
          5    1    5    5  503    0  0.21319042454E+02 -0.24611734311E+02 -0.13970663317E+03  0.14352794985E+03  0.47000000000E+01 0.  1.
         -5    1    5    5    0  503 -0.66181502413E+02  0.22742203080E+01 -0.26709476485E+02  0.71558713472E+02  0.47000000000E+01 0.  1.
<mgrwt>
<rscale>  0 0.27455078E+03</rscale>
<asrwt>0</asrwt>
<pdfrwt beam="1">  1        1 0.53804898E-01 0.27455078E+03</pdfrwt>
<pdfrwt beam="2">  1       -1 0.82896623E-02 0.27455078E+03</pdfrwt>
<totfact> 0.58349808E+03</totfact>
</mgrwt>
</event>
<event>
 9    1  0.2073852E-002  0.2750212E+03  0.7818608E-02  0.1098440E+00
         -2   -1    0    0    0  501 -0.00000000000E+00  0.00000000000E+00  0.11370275724E+02  0.11370275724E+02  0.00000000000E+00 0. -1.
          2   -1    0    0  501    0  0.00000000000E+00 -0.00000000000E+00 -0.16630352203E+04  0.16630352203E+04  0.00000000000E+00 0. -1.
         36    2    1    2    0    0  0.00000000000E+00  0.14210854715E-13 -0.16516649446E+04  0.16744054960E+04  0.27502122823E+03 0.  0.
         25    2    3    3    0    0  0.16601024679E+02  0.51849924382E+02 -0.93391434044E+03  0.94320715199E+03  0.12033173975E+03 0.  0.
         25    2    3    3    0    0 -0.16601024679E+02 -0.51849924382E+02 -0.71775060412E+03  0.73119834402E+03  0.12853435305E+03 0.  0.
          5    1    4    4  502    0  0.44150041061E+02  0.78081246270E+02 -0.53853638758E+03  0.54597567518E+03  0.47000000000E+01 0.  1.
         -5    1    4    4    0  502 -0.27549016382E+02 -0.26231321889E+02 -0.39537795286E+03  0.39723147680E+03  0.47000000000E+01 0.  1.
          5    1    5    5  503    0  0.20166443286E+02 -0.84898673334E+02 -0.38724527225E+03  0.39698294806E+03  0.47000000000E+01 0.  1.
         -5    1    5    5    0  503 -0.36767467964E+02  0.33048748952E+02 -0.33050533187E+03  0.33421539596E+03  0.47000000000E+01 0.  1.
<mgrwt>
<rscale>  0 0.27502123E+03</rscale>
<asrwt>0</asrwt>
<pdfrwt beam="1">  1        2 0.25585148E+00 0.27502123E+03</pdfrwt>
<pdfrwt beam="2">  1       -2 0.17492738E-02 0.27502123E+03</pdfrwt>
<totfact> 0.10521316E+04</totfact>
</mgrwt>
</event>
<event>
 9    1  0.2073852E-002  0.2746738E+03  0.7818608E-02  0.1098634E+00
         -2   -1    0    0    0  501 -0.00000000000E+00  0.00000000000E+00  0.88944892326E+01  0.88944892326E+01  0.00000000000E+00 0.  1.
          2   -1    0    0  501    0  0.00000000000E+00 -0.00000000000E+00 -0.21205740899E+04  0.21205740899E+04  0.00000000000E+00 0.  1.
         36    2    1    2    0    0  0.71054273576E-14 -0.35527136788E-14 -0.21116796006E+04  0.21294685791E+04  0.27467379496E+03 0.  0.
         25    2    3    3    0    0 -0.21844131269E+02 -0.55008899308E+01 -0.14020048686E+04  0.14086904795E+04  0.13521756423E+03 0.  0.
         25    2    3    3    0    0  0.21844131269E+02  0.55008899308E+01 -0.70967473204E+03  0.72077809958E+03  0.12399765188E+03 0.  0.
          5    1    4    4  502    0 -0.39977566095E+02 -0.40054350903E+02 -0.12618934590E+04  0.12631705145E+04  0.47000000000E+01 0. -1.
         -5    1    4    4    0  502  0.18133434826E+02  0.34553460972E+02 -0.14011140957E+03  0.14551996501E+03  0.47000000000E+01 0. -1.
          5    1    5    5  503    0  0.63970070512E+02  0.17800451367E+02 -0.24082462924E+03  0.24985519414E+03  0.47000000000E+01 0.  1.
         -5    1    5    5    0  503 -0.42125939243E+02 -0.12299561436E+02 -0.46885010281E+03  0.47092290544E+03  0.47000000000E+01 0.  1.
<mgrwt>
<rscale>  0 0.27467379E+03</rscale>
<asrwt>0</asrwt>
<pdfrwt beam="1">  1        2 0.32624243E+00 0.27467379E+03</pdfrwt>
<pdfrwt beam="2">  1       -2 0.13683818E-02 0.27467379E+03</pdfrwt>
<totfact> 0.86591292E+03</totfact>
</mgrwt>
</event>
<event>
 9    1  0.2073852E-002  0.2746441E+03  0.7818608E-02  0.1098651E+00
         -2   -1    0    0    0  501 -0.00000000000E+00  0.00000000000E+00  0.33557774598E+03  0.33557774598E+03  0.00000000000E+00 0. -1.
          2   -1    0    0  501    0  0.00000000000E+00 -0.00000000000E+00 -0.56193669516E+02  0.56193669516E+02  0.00000000000E+00 0. -1.
         36    2    1    2    0    0 -0.17763568394E-14  0.71054273576E-14  0.27938407646E+03  0.39177141549E+03  0.27464409664E+03 0.  0.
         25    2    3    3    0    0  0.37252756534E-01 -0.12336970447E+02  0.18750871442E+03  0.22974186339E+03  0.13217262795E+03 0.  0.
         25    2    3    3    0    0 -0.37252756534E-01  0.12336970447E+02  0.91875362037E+02  0.16202955211E+03  0.13289202903E+03 0.  0.
          5    1    4    4  502    0  0.30991473025E+01 -0.61191847438E+02  0.16419944811E+03  0.17532140675E+03  0.47000000000E+01 0.  1.
         -5    1    4    4    0  502 -0.30618945459E+01  0.48854876992E+02  0.23309266319E+02  0.54420456636E+02  0.47000000000E+01 0.  1.
          5    1    5    5  503    0  0.15616077172E+02  0.69953438257E+02  0.62997376294E+02  0.95541115809E+02  0.47000000000E+01 0.  1.
         -5    1    5    5    0  503 -0.15653329928E+02 -0.57616467810E+02  0.28877985743E+02  0.66488436298E+02  0.47000000000E+01 0.  1.
<mgrwt>
<rscale>  0 0.27464410E+03</rscale>
<asrwt>0</asrwt>
<pdfrwt beam="1">  1        2 0.86451801E-02 0.27464410E+03</pdfrwt>
<pdfrwt beam="2">  1       -2 0.51627345E-01 0.27464410E+03</pdfrwt>
<totfact> 0.27635179E+03</totfact>
</mgrwt>
</event>
<event>
 9    1  0.2073852E-002  0.2740299E+03  0.7818608E-02  0.1098995E+00
         -1   -1    0    0    0  501 -0.00000000000E+00  0.00000000000E+00  0.15054566504E+02  0.15054566504E+02  0.00000000000E+00 0. -1.
          1   -1    0    0  501    0  0.00000000000E+00 -0.00000000000E+00 -0.12470036061E+04  0.12470036061E+04  0.00000000000E+00 0. -1.
         36    2    1    2    0    0  0.00000000000E+00  0.00000000000E+00 -0.12319490396E+04  0.12620581726E+04  0.27402991602E+03 0.  0.
         25    2    3    3    0    0  0.37398129144E+02 -0.12076346441E+02 -0.78504407131E+03  0.79604840098E+03  0.12591427480E+03 0.  0.
         25    2    3    3    0    0 -0.37398129144E+02  0.12076346441E+02 -0.44690496825E+03  0.46600977159E+03  0.12608171303E+03 0.  0.
          5    1    4    4  502    0  0.19289767212E+02 -0.63059376521E+02 -0.58638794056E+03  0.59010294604E+03  0.47000000000E+01 0. -1.
         -5    1    4    4    0  502  0.18108361932E+02  0.50983030080E+02 -0.19865613074E+03  0.20594545494E+03  0.47000000000E+01 0. -1.
          5    1    5    5  503    0 -0.82854148924E+02 -0.50593093553E+01 -0.29099515681E+03  0.30263951806E+03  0.47000000000E+01 0. -1.
         -5    1    5    5    0  503  0.45456019780E+02  0.17135655797E+02 -0.15590981144E+03  0.16337025353E+03  0.47000000000E+01 0. -1.
<mgrwt>
<rscale>  0 0.27402992E+03</rscale>
<asrwt>0</asrwt>
<pdfrwt beam="1">  1        1 0.19184675E+00 0.27402992E+03</pdfrwt>
<pdfrwt beam="2">  1       -1 0.23160866E-02 0.27402992E+03</pdfrwt>
<totfact> 0.58667997E+03</totfact>
</mgrwt>
</event>
<event>
 9    1  0.2073852E-002  0.2750593E+03  0.7818608E-02  0.1098418E+00
          2   -1    0    0  501    0  0.00000000000E+00  0.00000000000E+00  0.74286418174E+03  0.74286418174E+03  0.00000000000E+00 0.  1.
         -2   -1    0    0    0  501 -0.00000000000E+00 -0.00000000000E+00 -0.25461448078E+02  0.25461448078E+02  0.00000000000E+00 0.  1.
         36    2    1    2    0    0  0.35527136788E-14  0.00000000000E+00  0.71740273366E+03  0.76832562982E+03  0.27505925029E+03 0.  0.
         25    2    3    3    0    0  0.17119289527E+02  0.35596910332E+02  0.48165771452E+03  0.49898748807E+03  0.12423425132E+03 0.  0.
         25    2    3    3    0    0 -0.17119289527E+02 -0.35596910332E+02  0.23574501914E+03  0.26933814174E+03  0.12412538196E+03 0.  0.
          5    1    4    4  502    0  0.70571330940E+02  0.23941517566E+02  0.25012725792E+03  0.26103494818E+03  0.47000000000E+01 0. -1.
         -5    1    4    4    0  502 -0.53452041413E+02  0.11655392767E+02  0.23153045659E+03  0.23795253990E+03  0.47000000000E+01 0. -1.
          5    1    5    5  503    0 -0.41882419374E+02  0.14578277340E+02  0.19481354154E+03  0.19985261867E+03  0.47000000000E+01 0.  1.
         -5    1    5    5    0  503  0.24763129848E+02 -0.50175187672E+02  0.40931477605E+02  0.69485523073E+02  0.47000000000E+01 0.  1.
<mgrwt>
<rscale>  0 0.27505925E+03</rscale>
<asrwt>0</asrwt>
<pdfrwt beam="1">  1        2 0.11428678E+00 0.27505925E+03</pdfrwt>
<pdfrwt beam="2">  1       -2 0.39171464E-02 0.27505925E+03</pdfrwt>
<totfact> 0.11012754E+04</totfact>
</mgrwt>
</event>
<event>
 9    1  0.2073852E-002  0.2752332E+03  0.7818608E-02  0.1098321E+00
          1   -1    0    0  501    0  0.00000000000E+00  0.00000000000E+00  0.16873129474E+03  0.16873129474E+03  0.00000000000E+00 0. -1.
         -1   -1    0    0    0  501 -0.00000000000E+00 -0.00000000000E+00 -0.11223960959E+03  0.11223960959E+03  0.00000000000E+00 0. -1.
         36    2    1    2    0    0  0.71054273576E-14 -0.35527136788E-14  0.56491685147E+02  0.28097090433E+03  0.27523324397E+03 0.  0.
         25    2    3    3    0    0 -0.47360313402E+02  0.82769521170E+01  0.55343047886E+02  0.14792651748E+03  0.12848305103E+03 0.  0.
         25    2    3    3    0    0  0.47360313402E+02 -0.82769521170E+01  0.11486372608E+01  0.13304438685E+03  0.12404830625E+03 0.  0.
          5    1    4    4  502    0 -0.28442950823E+02  0.61573776357E+02  0.60412473114E+02  0.90951021402E+02  0.47000000000E+01 0.  1.
         -5    1    4    4    0  502 -0.18917362579E+02 -0.53296824240E+02 -0.50694252275E+01  0.56975496076E+02  0.47000000000E+01 0.  1.
          5    1    5    5  503    0  0.87682168160E+02  0.12172380999E+01 -0.13515154844E+02  0.88850400631E+02  0.47000000000E+01 0.  1.
         -5    1    5    5    0  503 -0.40321854758E+02 -0.94941902170E+01  0.14663792105E+02  0.44193986218E+02  0.47000000000E+01 0.  1.
<mgrwt>
<rscale>  0 0.27523324E+03</rscale>
<asrwt>0</asrwt>
<pdfrwt beam="1">  1        1 0.25958661E-01 0.27523324E+03</pdfrwt>
<pdfrwt beam="2">  1       -1 0.17267632E-01 0.27523324E+03</pdfrwt>
<totfact> 0.46394051E+03</totfact>
</mgrwt>
</event>
<event>
 9    1  0.2073852E-002  0.2761441E+03  0.7818608E-02  0.1097814E+00
         -2   -1    0    0    0  501 -0.00000000000E+00  0.00000000000E+00  0.19808796734E+02  0.19808796734E+02  0.00000000000E+00 0.  1.
          2   -1    0    0  501    0  0.00000000000E+00 -0.00000000000E+00 -0.96239537183E+03  0.96239537183E+03  0.00000000000E+00 0.  1.
         36    2    1    2    0    0  0.00000000000E+00 -0.71054273576E-14 -0.94258657510E+03  0.98220416857E+03  0.27614412395E+03 0.  0.
         25    2    3    3    0    0  0.73105022989E+02 -0.39698422067E+02 -0.53855938053E+03  0.55940451291E+03  0.12636017410E+03 0.  0.
         25    2    3    3    0    0 -0.73105022989E+02  0.39698422067E+02 -0.40402719457E+03  0.42279965566E+03  0.92743009317E+02 0.  0.
          5    1    4    4  502    0 -0.16161573856E+02  0.16396467944E+02 -0.22046890332E+02  0.32221049081E+02  0.47000000000E+01 0. -1.
         -5    1    4    4    0  502  0.89266596846E+02 -0.56094890011E+02 -0.51651249020E+03  0.52718346383E+03  0.47000000000E+01 0. -1.
          5    1    5    5  503    0 -0.42214515465E+02  0.58616195412E+02 -0.35114670669E+03  0.35853036594E+03  0.47000000000E+01 0. -1.
         -5    1    5    5    0  503 -0.30890507525E+02 -0.18917773345E+02 -0.52880487877E+02  0.64269289724E+02  0.47000000000E+01 0. -1.
<mgrwt>
<rscale>  0 0.27614412E+03</rscale>
<asrwt>0</asrwt>
<pdfrwt beam="1">  1        2 0.14806079E+00 0.27614412E+03</pdfrwt>
<pdfrwt beam="2">  1       -2 0.30475079E-02 0.27614412E+03</pdfrwt>
<totfact> 0.11436667E+04</totfact>
</mgrwt>
</event>
<event>
 9    1  0.2073852E-002  0.2737246E+03  0.7818608E-02  0.1099167E+00
          2   -1    0    0  501    0  0.00000000000E+00  0.00000000000E+00  0.11337535367E+04  0.11337535367E+04  0.00000000000E+00 0.  1.
         -2   -1    0    0    0  501 -0.00000000000E+00 -0.00000000000E+00 -0.16521483946E+02  0.16521483946E+02  0.00000000000E+00 0.  1.
         36    2    1    2    0    0  0.00000000000E+00  0.00000000000E+00  0.11172320528E+04  0.11502750207E+04  0.27372461238E+03 0.  0.
         25    2    3    3    0    0 -0.19447318230E+02 -0.43830218614E+02  0.64606281867E+03  0.66021000328E+03  0.12720375985E+03 0.  0.
         25    2    3    3    0    0  0.19447318230E+02  0.43830218614E+02  0.47116923413E+03  0.49006501741E+03  0.12595232370E+03 0.  0.
          5    1    4    4  502    0  0.19430760996E+01 -0.86014721141E+02  0.35602844055E+03  0.36630676800E+03  0.47000000000E+01 0.  1.
         -5    1    4    4    0  502 -0.21390394329E+02  0.42184502527E+02  0.29003437811E+03  0.29390323528E+03  0.47000000000E+01 0.  1.
          5    1    5    5  503    0  0.50316138109E+02 -0.23893093749E+02  0.14318783653E+03  0.15371219930E+03  0.47000000000E+01 0.  1.
         -5    1    5    5    0  503 -0.30868819879E+02  0.67723312363E+02  0.32798139760E+03  0.33635281810E+03  0.47000000000E+01 0.  1.
<mgrwt>
<rscale>  0 0.27372461E+03</rscale>
<asrwt>0</asrwt>
<pdfrwt beam="1">  1        2 0.17442356E+00 0.27372461E+03</pdfrwt>
<pdfrwt beam="2">  1       -2 0.25417676E-02 0.27372461E+03</pdfrwt>
<totfact> 0.11811291E+04</totfact>
</mgrwt>
</event>
<event>
 9    1  0.2073852E-002  0.2719702E+03  0.7818608E-02  0.1100157E+00
         -2   -1    0    0    0  501 -0.00000000000E+00  0.00000000000E+00  0.94250478753E+01  0.94250478753E+01  0.00000000000E+00 0. -1.
          2   -1    0    0  501    0  0.00000000000E+00 -0.00000000000E+00 -0.19619997705E+04  0.19619997705E+04  0.00000000000E+00 0. -1.
         36    2    1    2    0    0 -0.35527136788E-14  0.00000000000E+00 -0.19525747226E+04  0.19714248183E+04  0.27197015842E+03 0.  0.
         25    2    3    3    0    0  0.12915857704E+02  0.46629711147E+02 -0.87158174281E+03  0.88202473773E+03  0.12637940584E+03 0.  0.
         25    2    3    3    0    0 -0.12915857704E+02 -0.46629711147E+02 -0.10809929798E+04  0.10894000806E+04  0.12611726276E+03 0.  0.
          5    1    4    4  502    0 -0.37276477062E+02  0.61238069958E+02 -0.32073853790E+03  0.32868668462E+03  0.47000000000E+01 0. -1.
         -5    1    4    4    0  502  0.50192334766E+02 -0.14608358811E+02 -0.55084320491E+03  0.55333805311E+03  0.47000000000E+01 0. -1.
          5    1    5    5  503    0 -0.30523178081E+02 -0.85510117329E+02 -0.66230855041E+03  0.66851952142E+03  0.47000000000E+01 0.  1.
         -5    1    5    5    0  503  0.17607320376E+02  0.38880406182E+02 -0.41868442936E+03  0.42088055919E+03  0.47000000000E+01 0.  1.
<mgrwt>
<rscale>  0 0.27197016E+03</rscale>
<asrwt>0</asrwt>
<pdfrwt beam="1">  1        2 0.30184626E+00 0.27197016E+03</pdfrwt>
<pdfrwt beam="2">  1       -2 0.14500067E-02 0.27197016E+03</pdfrwt>
<totfact> 0.96436309E+03</totfact>
</mgrwt>
</event>
<event>
 9    1  0.2073852E-002  0.2746379E+03  0.7818608E-02  0.1098654E+00
          1   -1    0    0  501    0  0.00000000000E+00  0.00000000000E+00  0.26654092333E+03  0.26654092333E+03  0.00000000000E+00 0.  1.
         -1   -1    0    0    0  501 -0.00000000000E+00 -0.00000000000E+00 -0.70745211962E+02  0.70745211962E+02  0.00000000000E+00 0.  1.
         36    2    1    2    0    0  0.71054273576E-14  0.71054273576E-14  0.19579571137E+03  0.33728613529E+03  0.27463790064E+03 0.  0.
         25    2    3    3    0    0  0.39101402382E+02 -0.33334102791E+01  0.47792982665E+02  0.14046616226E+03  0.12612114120E+03 0.  0.
         25    2    3    3    0    0 -0.39101402382E+02  0.33334102791E+01  0.14800272870E+03  0.19681997303E+03  0.12366593220E+03 0.  0.
          5    1    4    4  502    0  0.38346988374E+02  0.58126582807E+02  0.32292862040E+02  0.76903251459E+02  0.47000000000E+01 0. -1.
         -5    1    4    4    0  502  0.75441400774E+00 -0.61459993086E+02  0.15500120625E+02  0.63562910805E+02  0.47000000000E+01 0. -1.
          5    1    5    5  503    0 -0.70996856890E+01  0.50665658091E+02  0.17490413540E+02  0.54271714663E+02  0.47000000000E+01 0.  1.
         -5    1    5    5    0  503 -0.32001716693E+02 -0.47332247812E+02  0.13051231516E+03  0.14254825837E+03  0.47000000000E+01 0.  1.
<mgrwt>
<rscale>  0 0.27463790E+03</rscale>
<asrwt>0</asrwt>
<pdfrwt beam="1">  1        1 0.41006295E-01 0.27463790E+03</pdfrwt>
<pdfrwt beam="2">  1       -1 0.10883879E-01 0.27463790E+03</pdfrwt>
<totfact> 0.53997723E+03</totfact>
</mgrwt>
</event>
<event>
 9    1  0.2073852E-002  0.2747234E+03  0.7818608E-02  0.1098606E+00
         -3   -1    0    0    0  501 -0.00000000000E+00  0.00000000000E+00  0.38626688674E+02  0.38626688674E+02  0.00000000000E+00 0.  1.
          3   -1    0    0  501    0  0.00000000000E+00 -0.00000000000E+00 -0.48847668709E+03  0.48847668709E+03  0.00000000000E+00 0.  1.
         36    2    1    2    0    0 -0.28421709430E-13 -0.17763568394E-14 -0.44984999841E+03  0.52710337576E+03  0.27472340211E+03 0.  0.
         25    2    3    3    0    0 -0.64170968145E+02 -0.23145330974E+01 -0.23241371894E+03  0.27253280666E+03  0.12702253241E+03 0.  0.
         25    2    3    3    0    0  0.64170968145E+02  0.23145330974E+01 -0.21743627947E+03  0.25457056910E+03  0.11577723785E+03 0.  0.
          5    1    4    4  502    0 -0.53812813839E+02  0.31690387798E+02 -0.22795293903E+03  0.23639951781E+03  0.47000000000E+01 0. -1.
         -5    1    4    4    0  502 -0.10358154306E+02 -0.34004920895E+02 -0.44607799148E+01  0.36133288850E+02  0.47000000000E+01 0. -1.
          5    1    5    5  503    0  0.85314140617E+02  0.11230012216E+02 -0.88511340931E+02  0.12353527123E+03  0.47000000000E+01 0. -1.
         -5    1    5    5    0  503 -0.21143172472E+02 -0.89154791183E+01 -0.12892493854E+03  0.13103529787E+03  0.47000000000E+01 0. -1.
<mgrwt>
<rscale>  0 0.27472340E+03</rscale>
<asrwt>0</asrwt>
<pdfrwt beam="1">  1        3 0.75150260E-01 0.27472340E+03</pdfrwt>
<pdfrwt beam="2">  1       -3 0.59425675E-02 0.27472340E+03</pdfrwt>
<totfact> 0.75102890E+02</totfact>
</mgrwt>
</event>
<event>
 9    1  0.2073852E-002  0.2747249E+03  0.7818608E-02  0.1098605E+00
         -3   -1    0    0    0  501 -0.00000000000E+00  0.00000000000E+00  0.26102125395E+02  0.26102125395E+02  0.00000000000E+00 0.  1.
          3   -1    0    0  501    0  0.00000000000E+00 -0.00000000000E+00 -0.72286974096E+03  0.72286974096E+03  0.00000000000E+00 0.  1.
         36    2    1    2    0    0 -0.71054273576E-14  0.00000000000E+00 -0.69676761557E+03  0.74897186636E+03  0.27472485598E+03 0.  0.
         25    2    3    3    0    0 -0.97910233532E+01  0.11873414458E+02 -0.49367276248E+03  0.50917815951E+03  0.12374473565E+03 0.  0.
         25    2    3    3    0    0  0.97910233532E+01 -0.11873414458E+02 -0.20309485309E+03  0.23979370685E+03  0.12655694522E+03 0.  0.
          5    1    4    4  502    0 -0.47738806173E+02 -0.35776828025E+02 -0.18238226130E+03  0.19194883244E+03  0.47000000000E+01 0.  1.
         -5    1    4    4    0  502  0.37947782820E+02  0.47650242483E+02 -0.31129050118E+03  0.31722932707E+03  0.47000000000E+01 0.  1.
          5    1    5    5  503    0  0.36258071823E+02 -0.56570197333E+02 -0.71454162980E+02  0.98196855376E+02  0.47000000000E+01 0. -1.
         -5    1    5    5    0  503 -0.26467048469E+02  0.44696782874E+02 -0.13164069011E+03  0.14159685147E+03  0.47000000000E+01 0. -1.
<mgrwt>
<rscale>  0 0.27472486E+03</rscale>
<asrwt>0</asrwt>
<pdfrwt beam="1">  1        3 0.11121073E+00 0.27472486E+03</pdfrwt>
<pdfrwt beam="2">  1       -3 0.40157117E-02 0.27472486E+03</pdfrwt>
<totfact> 0.58036025E+02</totfact>
</mgrwt>
</event>
<event>
 9    1  0.2073852E-002  0.2740513E+03  0.7818608E-02  0.1098983E+00
         -1   -1    0    0    0  501 -0.00000000000E+00  0.00000000000E+00  0.43016515973E+02  0.43016515973E+02  0.00000000000E+00 0.  1.
          1   -1    0    0  501    0  0.00000000000E+00 -0.00000000000E+00 -0.43648421023E+03  0.43648421023E+03  0.00000000000E+00 0.  1.
         36    2    1    2    0    0  0.00000000000E+00 -0.35527136788E-14 -0.39346769426E+03  0.47950072621E+03  0.27405130908E+03 0.  0.
         25    2    3    3    0    0  0.26912807475E+02  0.19665356964E+02 -0.27911204717E+03  0.30640279521E+03  0.12193487017E+03 0.  0.
         25    2    3    3    0    0 -0.26912807475E+02 -0.19665356964E+02 -0.11435564709E+03  0.17309793100E+03  0.12559719035E+03 0.  0.
          5    1    4    4  502    0 -0.44814813415E+02  0.27929267359E+02 -0.13775558597E+03  0.14760454919E+03  0.47000000000E+01 0. -1.
         -5    1    4    4    0  502  0.71727620890E+02 -0.82639103955E+01 -0.14135646120E+03  0.15879824601E+03  0.47000000000E+01 0. -1.
          5    1    5    5  503    0 -0.15025466181E+02 -0.23512983267E+02  0.22153673518E+02  0.35937449359E+02  0.47000000000E+01 0. -1.
         -5    1    5    5    0  503 -0.11887341295E+02  0.38476263036E+01 -0.13650932061E+03  0.13716048164E+03  0.47000000000E+01 0. -1.
<mgrwt>
<rscale>  0 0.27405131E+03</rscale>
<asrwt>0</asrwt>
<pdfrwt beam="1">  1        1 0.67151417E-01 0.27405131E+03</pdfrwt>
<pdfrwt beam="2">  1       -1 0.66179255E-02 0.27405131E+03</pdfrwt>
<totfact> 0.61893718E+03</totfact>
</mgrwt>
</event>
<event>
 9    1  0.2073852E-002  0.2743945E+03  0.7818608E-02  0.1098791E+00
          3   -1    0    0  501    0  0.00000000000E+00  0.00000000000E+00  0.40470392807E+03  0.40470392807E+03  0.00000000000E+00 0. -1.
         -3   -1    0    0    0  501 -0.00000000000E+00 -0.00000000000E+00 -0.46510739588E+02  0.46510739588E+02  0.00000000000E+00 0. -1.
         36    2    1    2    0    0  0.00000000000E+00  0.00000000000E+00  0.35819318849E+03  0.45121466766E+03  0.27439445336E+03 0.  0.
         25    2    3    3    0    0  0.55213515479E+02  0.10768526440E+01  0.18198546335E+03  0.22975054873E+03  0.12890660910E+03 0.  0.
         25    2    3    3    0    0 -0.55213515479E+02 -0.10768526440E+01  0.17620772514E+03  0.22146411893E+03  0.12225997576E+03 0.  0.
          5    1    4    4  502    0  0.43836089843E+02  0.36621748537E+02  0.18336063629E+03  0.19210926104E+03  0.47000000000E+01 0.  1.
         -5    1    4    4    0  502  0.11377425637E+02 -0.35544895893E+02 -0.13751729395E+01  0.37641287688E+02  0.47000000000E+01 0.  1.
          5    1    5    5  503    0 -0.15510941299E+02 -0.58192706049E+02  0.10903877159E+03  0.12465361626E+03  0.47000000000E+01 0.  1.
         -5    1    5    5    0  503 -0.39702574180E+02  0.57115853405E+02  0.67168953553E+02  0.96810502675E+02  0.47000000000E+01 0.  1.
<mgrwt>
<rscale>  0 0.27439445E+03</rscale>
<asrwt>0</asrwt>
<pdfrwt beam="1">  1        3 0.62262141E-01 0.27439445E+03</pdfrwt>
<pdfrwt beam="2">  1       -3 0.71554987E-02 0.27439445E+03</pdfrwt>
<totfact> 0.82943949E+02</totfact>
</mgrwt>
</event>
<event>
 9    1  0.2073852E-002  0.2747892E+03  0.7818608E-02  0.1098569E+00
          1   -1    0    0  501    0  0.00000000000E+00  0.00000000000E+00  0.38609705686E+03  0.38609705686E+03  0.00000000000E+00 0.  1.
         -1   -1    0    0    0  501 -0.00000000000E+00 -0.00000000000E+00 -0.48892573118E+02  0.48892573118E+02  0.00000000000E+00 0.  1.
         36    2    1    2    0    0 -0.35527136788E-14  0.17763568394E-14  0.33720448374E+03  0.43498962998E+03  0.27478921801E+03 0.  0.
         25    2    3    3    0    0 -0.25968086348E+02 -0.15968240043E+02  0.12428101733E+03  0.18688228032E+03  0.13619797806E+03 0.  0.
         25    2    3    3    0    0  0.25968086348E+02  0.15968240043E+02  0.21292346641E+03  0.24810734966E+03  0.12365891884E+03 0.  0.
          5    1    4    4  502    0 -0.74720082936E+02  0.10138431163E+02  0.10232864955E+03  0.12719717410E+03  0.47000000000E+01 0.  1.
         -5    1    4    4    0  502  0.48751996589E+02 -0.26106671206E+02  0.21952367786E+02  0.59685106218E+02  0.47000000000E+01 0.  1.
          5    1    5    5  503    0  0.42008024490E+02  0.12057997994E+01  0.22052829883E+03  0.22454609473E+03  0.47000000000E+01 0. -1.
         -5    1    5    5    0  503 -0.16039938142E+02  0.14762440243E+02 -0.76048324235E+01  0.23561254927E+02  0.47000000000E+01 0. -1.
<mgrwt>
<rscale>  0 0.27478922E+03</rscale>
<asrwt>0</asrwt>
<pdfrwt beam="1">  1        1 0.59399545E-01 0.27478922E+03</pdfrwt>
<pdfrwt beam="2">  1       -1 0.75219346E-02 0.27478922E+03</pdfrwt>
<totfact> 0.59675907E+03</totfact>
</mgrwt>
</event>
<event>
 9    1  0.2073852E-002  0.2757232E+03  0.7818608E-02  0.1098048E+00
          1   -1    0    0  501    0  0.00000000000E+00  0.00000000000E+00  0.34330770220E+03  0.34330770220E+03  0.00000000000E+00 0.  1.
         -1   -1    0    0    0  501 -0.00000000000E+00 -0.00000000000E+00 -0.55360893761E+02  0.55360893761E+02  0.00000000000E+00 0.  1.
         36    2    1    2    0    0  0.35527136788E-14 -0.71054273576E-14  0.28794680844E+03  0.39866859596E+03  0.27572320344E+03 0.  0.
         25    2    3    3    0    0  0.21615026880E+02 -0.26207557578E+02  0.15906797029E+03  0.20617062000E+03  0.12668725239E+03 0.  0.
         25    2    3    3    0    0 -0.21615026880E+02  0.26207557578E+02  0.12887883814E+03  0.19249797595E+03  0.13889445764E+03 0.  0.
          5    1    4    4  502    0  0.87656805288E+01 -0.76769645766E+02  0.79960351534E+02  0.11129314212E+03  0.47000000000E+01 0. -1.
         -5    1    4    4    0  502  0.12849346351E+02  0.50562088188E+02  0.79107618758E+02  0.94877477882E+02  0.47000000000E+01 0. -1.
          5    1    5    5  503    0  0.16038027059E+02  0.34218261125E+02  0.14542921767E+03  0.15033248171E+03  0.47000000000E+01 0. -1.
         -5    1    5    5    0  503 -0.37653053939E+02 -0.80107035469E+01 -0.16550379524E+02  0.42165494241E+02  0.47000000000E+01 0. -1.
<mgrwt>
<rscale>  0 0.27572320E+03</rscale>
<asrwt>0</asrwt>
<pdfrwt beam="1">  1        1 0.52816568E-01 0.27572320E+03</pdfrwt>
<pdfrwt beam="2">  1       -1 0.85170608E-02 0.27572320E+03</pdfrwt>
<totfact> 0.57320243E+03</totfact>
</mgrwt>
</event>
<event>
 9    1  0.2073852E-002  0.2746905E+03  0.7818608E-02  0.1098625E+00
         -2   -1    0    0    0  501 -0.00000000000E+00  0.00000000000E+00  0.64533171339E+02  0.64533171339E+02  0.00000000000E+00 0.  1.
          2   -1    0    0  501    0  0.00000000000E+00 -0.00000000000E+00 -0.29231035954E+03  0.29231035954E+03  0.00000000000E+00 0.  1.
         36    2    1    2    0    0 -0.14210854715E-13  0.00000000000E+00 -0.22777718820E+03  0.35684353088E+03  0.27469047684E+03 0.  0.
         25    2    3    3    0    0 -0.57281483989E+02 -0.12890337870E+02 -0.12589176414E+03  0.18616180218E+03  0.12393607664E+03 0.  0.
         25    2    3    3    0    0  0.57281483989E+02  0.12890337870E+02 -0.10188542406E+03  0.17068172870E+03  0.12371048322E+03 0.  0.
          5    1    4    4  502    0 -0.94395270197E+02 -0.20543262891E+01 -0.10730083662E+03  0.14300435948E+03  0.47000000000E+01 0. -1.
         -5    1    4    4    0  502  0.37113786208E+02 -0.10836011581E+02 -0.18590927522E+02  0.43157442693E+02  0.47000000000E+01 0. -1.
          5    1    5    5  503    0  0.22507513152E+02  0.30355636197E+02  0.19742374447E+02  0.42894103860E+02  0.47000000000E+01 0.  1.
         -5    1    5    5    0  503  0.34773970837E+02 -0.17465298326E+02 -0.12162779851E+03  0.12778762484E+03  0.47000000000E+01 0.  1.
<mgrwt>
<rscale>  0 0.27469048E+03</rscale>
<asrwt>0</asrwt>
<pdfrwt beam="1">  1        2 0.44970825E-01 0.27469048E+03</pdfrwt>
<pdfrwt beam="2">  1       -2 0.99281801E-02 0.27469048E+03</pdfrwt>
<totfact> 0.74927504E+03</totfact>
</mgrwt>
</event>
<event>
 9    1  0.2073852E-002  0.2747683E+03  0.7818608E-02  0.1098581E+00
         -2   -1    0    0    0  501 -0.00000000000E+00  0.00000000000E+00  0.15003227485E+02  0.15003227485E+02  0.00000000000E+00 0.  1.
          2   -1    0    0  501    0  0.00000000000E+00 -0.00000000000E+00 -0.12580229216E+04  0.12580229216E+04  0.00000000000E+00 0.  1.
         36    2    1    2    0    0  0.00000000000E+00 -0.14210854715E-13 -0.12430196941E+04  0.12730261491E+04  0.27476829565E+03 0.  0.
         25    2    3    3    0    0  0.32129378584E+02  0.25083438999E+02 -0.42618826246E+03  0.44543578554E+03  0.12294359723E+03 0.  0.
         25    2    3    3    0    0 -0.32129378584E+02 -0.25083438999E+02 -0.81683143165E+03  0.82759036354E+03  0.12661258317E+03 0.  0.
          5    1    4    4  502    0  0.17709564648E+02 -0.49829623502E+02 -0.17441173138E+03  0.18231336238E+03  0.47000000000E+01 0. -1.
         -5    1    4    4    0  502  0.14419813935E+02  0.74913062501E+02 -0.25177653108E+03  0.26312242316E+03  0.47000000000E+01 0. -1.
          5    1    5    5  503    0  0.98681100655E+01 -0.63847167047E+02 -0.26563414029E+03  0.27341804407E+03  0.47000000000E+01 0.  1.
         -5    1    5    5    0  503 -0.41997488649E+02  0.38763728048E+02 -0.55119729136E+03  0.55417231947E+03  0.47000000000E+01 0.  1.
<mgrwt>
<rscale>  0 0.27476830E+03</rscale>
<asrwt>0</asrwt>
<pdfrwt beam="1">  1        2 0.19354199E+00 0.27476830E+03</pdfrwt>
<pdfrwt beam="2">  1       -2 0.23081888E-02 0.27476830E+03</pdfrwt>
<totfact> 0.11574643E+04</totfact>
</mgrwt>
</event>
<event>
 9    1  0.2073852E-002  0.2746157E+03  0.7818608E-02  0.1098667E+00
         -1   -1    0    0    0  501 -0.00000000000E+00  0.00000000000E+00  0.59594486352E+02  0.59594486352E+02  0.00000000000E+00 0.  1.
          1   -1    0    0  501    0  0.00000000000E+00 -0.00000000000E+00 -0.31636226462E+03  0.31636226462E+03  0.00000000000E+00 0.  1.
         36    2    1    2    0    0 -0.71054273576E-14  0.00000000000E+00 -0.25676777827E+03  0.37595675097E+03  0.27461570721E+03 0.  0.
         25    2    3    3    0    0 -0.32086101546E+02  0.33821019396E+02 -0.18693160324E+03  0.22744243578E+03  0.12088530943E+03 0.  0.
         25    2    3    3    0    0  0.32086101546E+02 -0.33821019396E+02 -0.69836175023E+02  0.14851431519E+03  0.12249910698E+03 0.  0.
          5    1    4    4  502    0  0.44776527628E+02  0.12430857570E+02 -0.46786179407E+02  0.66109758961E+02  0.47000000000E+01 0.  1.
         -5    1    4    4    0  502 -0.76862629174E+02  0.21390161826E+02 -0.14014542384E+03  0.16133267682E+03  0.47000000000E+01 0.  1.
          5    1    5    5  503    0  0.22380129763E+02 -0.80228101006E+02 -0.43968480408E+02  0.94301302582E+02  0.47000000000E+01 0.  1.
         -5    1    5    5    0  503  0.97059717828E+01  0.46407081609E+02 -0.25867694615E+02  0.54213012612E+02  0.47000000000E+01 0.  1.
<mgrwt>
<rscale>  0 0.27461571E+03</rscale>
<asrwt>0</asrwt>
<pdfrwt beam="1">  1        1 0.48671118E-01 0.27461571E+03</pdfrwt>
<pdfrwt beam="2">  1       -1 0.91683824E-02 0.27461571E+03</pdfrwt>
<totfact> 0.56750161E+03</totfact>
</mgrwt>
</event>
<event>
 9    1  0.2073852E-002  0.2752653E+03  0.7818608E-02  0.1098303E+00
          2   -1    0    0  501    0  0.00000000000E+00  0.00000000000E+00  0.14086663481E+03  0.14086663481E+03  0.00000000000E+00 0.  1.
         -2   -1    0    0    0  501 -0.00000000000E+00 -0.00000000000E+00 -0.13447288929E+03  0.13447288929E+03  0.00000000000E+00 0.  1.
         36    2    1    2    0    0 -0.14210854715E-13  0.00000000000E+00  0.63937455194E+01  0.27533952410E+03  0.27526527850E+03 0.  0.
         25    2    3    3    0    0 -0.45983089562E+02 -0.12594782327E+02  0.46370950767E+02  0.13590241512E+03  0.11851636297E+03 0.  0.
         25    2    3    3    0    0  0.45983089562E+02  0.12594782327E+02 -0.39977205247E+02  0.13943710898E+03  0.12478564563E+03 0.  0.
          5    1    4    4  502    0 -0.89676552624E+01 -0.62613170141E+02  0.11639209426E+02  0.64485572899E+02  0.47000000000E+01 0.  1.
         -5    1    4    4    0  502 -0.37015434300E+02  0.50018387814E+02  0.34731741340E+02  0.71416842218E+02  0.47000000000E+01 0.  1.
          5    1    5    5  503    0  0.31673579017E+01 -0.43888507420E+02 -0.51034676368E+02  0.67548955814E+02  0.47000000000E+01 0. -1.
         -5    1    5    5    0  503  0.42815731660E+02  0.56483289747E+02  0.11057471121E+02  0.71888153168E+02  0.47000000000E+01 0. -1.
<mgrwt>
<rscale>  0 0.27526528E+03</rscale>
<asrwt>0</asrwt>
<pdfrwt beam="1">  1        2 0.21671790E-01 0.27526528E+03</pdfrwt>
<pdfrwt beam="2">  1       -2 0.20688137E-01 0.27526528E+03</pdfrwt>
<totfact> 0.49843720E+03</totfact>
</mgrwt>
</event>
<event>
 9    1  0.2073852E-002  0.2747137E+03  0.7818608E-02  0.1098612E+00
         -2   -1    0    0    0  501 -0.00000000000E+00  0.00000000000E+00  0.46980027551E+02  0.46980027551E+02  0.00000000000E+00 0.  1.
          2   -1    0    0  501    0  0.00000000000E+00 -0.00000000000E+00 -0.40159411667E+03  0.40159411667E+03  0.00000000000E+00 0.  1.
         36    2    1    2    0    0  0.00000000000E+00 -0.35527136788E-14 -0.35461408912E+03  0.44857414422E+03  0.27471368852E+03 0.  0.
         25    2    3    3    0    0  0.29975734373E+02  0.11693916903E+02 -0.24419369432E+03  0.28093451797E+03  0.13512346465E+03 0.  0.
         25    2    3    3    0    0 -0.29975734373E+02 -0.11693916903E+02 -0.11042039480E+03  0.16763962625E+03  0.12196347141E+03 0.  0.
          5    1    4    4  502    0 -0.24828606395E+02  0.57908864062E+02 -0.14758510323E+03  0.16054080144E+03  0.47000000000E+01 0. -1.
         -5    1    4    4    0  502  0.54804340768E+02 -0.46214947159E+02 -0.96608591090E+02  0.12039371653E+03  0.47000000000E+01 0. -1.
          5    1    5    5  503    0  0.23092736236E+02 -0.56551550500E+01  0.16862660252E+02  0.29524473853E+02  0.47000000000E+01 0.  1.
         -5    1    5    5    0  503 -0.53068470609E+02 -0.60387618528E+01 -0.12728305506E+03  0.13811515240E+03  0.47000000000E+01 0.  1.
<mgrwt>
<rscale>  0 0.27471369E+03</rscale>
<asrwt>0</asrwt>
<pdfrwt beam="1">  1        2 0.61783713E-01 0.27471369E+03</pdfrwt>
<pdfrwt beam="2">  1       -2 0.72276963E-02 0.27471369E+03</pdfrwt>
<totfact> 0.87521653E+03</totfact>
</mgrwt>
</event>
<event>
 9    1  0.2073852E-002  0.2746594E+03  0.7818608E-02  0.1098642E+00
          1   -1    0    0  501    0  0.00000000000E+00  0.00000000000E+00  0.12686099738E+03  0.12686099738E+03  0.00000000000E+00 0. -1.
         -1   -1    0    0    0  501 -0.00000000000E+00 -0.00000000000E+00 -0.14866224842E+03  0.14866224842E+03  0.00000000000E+00 0. -1.
         36    2    1    2    0    0  0.00000000000E+00 -0.71054273576E-14 -0.21801251042E+02  0.27552324580E+03  0.27465936072E+03 0.  0.
         25    2    3    3    0    0  0.51068734040E+02 -0.15887481417E+02 -0.25508273110E+02  0.13681938088E+03  0.12332251751E+03 0.  0.
         25    2    3    3    0    0 -0.51068734040E+02  0.15887481417E+02  0.37070220687E+01  0.13870386492E+03  0.12792416687E+03 0.  0.
          5    1    4    4  502    0  0.17984362215E+02  0.51261276553E+02  0.71865333399E+01  0.54999018351E+02  0.47000000000E+01 0. -1.
         -5    1    4    4    0  502  0.33084371825E+02 -0.67148757970E+02 -0.32694806450E+02  0.81820362531E+02  0.47000000000E+01 0. -1.
          5    1    5    5  503    0 -0.62503647828E+02 -0.22888425582E+02 -0.40943251996E+02  0.78288095528E+02  0.47000000000E+01 0. -1.
         -5    1    5    5    0  503  0.11434913788E+02  0.38775906998E+02  0.44650274064E+02  0.60415769389E+02  0.47000000000E+01 0. -1.
<mgrwt>
<rscale>  0 0.27465936E+03</rscale>
<asrwt>0</asrwt>
<pdfrwt beam="1">  1        1 0.19517077E-01 0.27465936E+03</pdfrwt>
<pdfrwt beam="2">  1       -1 0.22871115E-01 0.27465936E+03</pdfrwt>
<totfact> 0.42329032E+03</totfact>
</mgrwt>
</event>
<event>
 9    1  0.2073852E-002  0.2753505E+03  0.7818608E-02  0.1098256E+00
          3   -1    0    0  501    0  0.00000000000E+00  0.00000000000E+00  0.19395864083E+03  0.19395864083E+03  0.00000000000E+00 0.  1.
         -3   -1    0    0    0  501 -0.00000000000E+00 -0.00000000000E+00 -0.97724288013E+02  0.97724288013E+02  0.00000000000E+00 0.  1.
         36    2    1    2    0    0  0.00000000000E+00  0.00000000000E+00  0.96234352819E+02  0.29168292885E+03  0.27535046816E+03 0.  0.
         25    2    3    3    0    0  0.48245886827E+02 -0.25488701517E+02  0.38959503071E+02  0.14332087916E+03  0.12667159122E+03 0.  0.
         25    2    3    3    0    0 -0.48245886827E+02  0.25488701517E+02  0.57274849749E+02  0.14836204969E+03  0.12551314622E+03 0.  0.
          5    1    4    4  502    0 -0.81845421341E+01 -0.26907024284E+02 -0.38158566928E+02  0.47635500583E+02  0.47000000000E+01 0.  1.
         -5    1    4    4    0  502  0.56430428961E+02  0.14183227674E+01  0.77118069999E+02  0.95685378573E+02  0.47000000000E+01 0.  1.
          5    1    5    5  503    0 -0.13634703519E+01  0.26029489521E+02 -0.35509000293E+02  0.44298673546E+02  0.47000000000E+01 0. -1.
         -5    1    5    5    0  503 -0.46882416475E+02 -0.54078800472E+00  0.92783850041E+02  0.10406337614E+03  0.47000000000E+01 0. -1.
<mgrwt>
<rscale>  0 0.27535047E+03</rscale>
<asrwt>0</asrwt>
<pdfrwt beam="1">  1        3 0.29839791E-01 0.27535047E+03</pdfrwt>
<pdfrwt beam="2">  1       -3 0.15034506E-01 0.27535047E+03</pdfrwt>
<totfact> 0.10198663E+03</totfact>
</mgrwt>
</event>
<event>
 9    1  0.2073852E-002  0.2749592E+03  0.7818608E-02  0.1098474E+00
          2   -1    0    0  501    0  0.00000000000E+00  0.00000000000E+00  0.54809570210E+03  0.54809570210E+03  0.00000000000E+00 0. -1.
         -2   -1    0    0    0  501 -0.00000000000E+00 -0.00000000000E+00 -0.34484208503E+02  0.34484208503E+02  0.00000000000E+00 0. -1.
         36    2    1    2    0    0 -0.35527136788E-14  0.00000000000E+00  0.51361149360E+03  0.58257991060E+03  0.27495924404E+03 0.  0.
         25    2    3    3    0    0 -0.95907797480E+01  0.52625079426E+02  0.29586808138E+03  0.32597359879E+03  0.12593444122E+03 0.  0.
         25    2    3    3    0    0  0.95907797480E+01 -0.52625079426E+02  0.21774341222E+03  0.25660631181E+03  0.12479272278E+03 0.  0.
          5    1    4    4  502    0 -0.14021011565E+02  0.86547073375E+02  0.13218848073E+03  0.15869111227E+03  0.47000000000E+01 0. -1.
         -5    1    4    4    0  502  0.44302318170E+01 -0.33921993949E+02  0.16367960065E+03  0.16728248652E+03  0.47000000000E+01 0. -1.
          5    1    5    5  503    0 -0.23366687026E+02  0.31397345255E+01  0.17977643769E+03  0.18137672823E+03  0.47000000000E+01 0. -1.
         -5    1    5    5    0  503  0.32957466774E+02 -0.55764813951E+02  0.37966974522E+02  0.75229583579E+02  0.47000000000E+01 0. -1.
<mgrwt>
<rscale>  0 0.27495924E+03</rscale>
<asrwt>0</asrwt>
<pdfrwt beam="1">  1        2 0.84322410E-01 0.27495924E+03</pdfrwt>
<pdfrwt beam="2">  1       -2 0.53052632E-02 0.27495924E+03</pdfrwt>
<totfact> 0.99714415E+03</totfact>
</mgrwt>
</event>
<event>
 9    1  0.2073852E-002  0.2767970E+03  0.7818608E-02  0.1097451E+00
         -2   -1    0    0    0  501 -0.00000000000E+00  0.00000000000E+00  0.79514486313E+01  0.79514486313E+01  0.00000000000E+00 0.  1.
          2   -1    0    0  501    0  0.00000000000E+00 -0.00000000000E+00 -0.24088868662E+04  0.24088868662E+04  0.00000000000E+00 0.  1.
         36    2    1    2    0    0  0.71054273576E-14 -0.35527136788E-14 -0.24009354176E+04  0.24168383149E+04  0.27679696657E+03 0.  0.
         25    2    3    3    0    0  0.11409464530E+02 -0.30800832413E+02 -0.76405672716E+03  0.77480169209E+03  0.12432261499E+03 0.  0.
         25    2    3    3    0    0 -0.11409464530E+02  0.30800832413E+02 -0.16368786905E+04  0.16420366228E+04  0.12583145923E+03 0.  0.
          5    1    4    4  502    0 -0.23934101399E+02 -0.68033679461E+02 -0.54441106383E+03  0.54918750821E+03  0.47000000000E+01 0. -1.
         -5    1    4    4    0  502  0.35343565929E+02  0.37232847048E+02 -0.21964566332E+03  0.22561418388E+03  0.47000000000E+01 0. -1.
          5    1    5    5  503    0  0.49075799346E+02  0.24220332147E+02 -0.11555901020E+04  0.11568948234E+04  0.47000000000E+01 0. -1.
         -5    1    5    5    0  503 -0.60485263876E+02  0.65805002663E+01 -0.48128858850E+03  0.48514179942E+03  0.47000000000E+01 0. -1.
<mgrwt>
<rscale>  0 0.27679697E+03</rscale>
<asrwt>0</asrwt>
<pdfrwt beam="1">  1        2 0.37059833E+00 0.27679697E+03</pdfrwt>
<pdfrwt beam="2">  1       -2 0.12232986E-02 0.27679697E+03</pdfrwt>
<totfact> 0.71485177E+03</totfact>
</mgrwt>
</event>
<event>
 9    1  0.2073852E-002  0.2764340E+03  0.7818608E-02  0.1097653E+00
         -1   -1    0    0    0  501 -0.00000000000E+00  0.00000000000E+00  0.59741404661E+02  0.59741404661E+02  0.00000000000E+00 0. -1.
          1   -1    0    0  501    0  0.00000000000E+00 -0.00000000000E+00 -0.31977714291E+03  0.31977714291E+03  0.00000000000E+00 0. -1.
         36    2    1    2    0    0  0.71054273576E-14  0.71054273576E-14 -0.26003573825E+03  0.37951854757E+03  0.27643397545E+03 0.  0.
         25    2    3    3    0    0  0.21404938142E+02  0.49558976478E+02 -0.19059516057E+03  0.23467840464E+03  0.12582994415E+03 0.  0.
         25    2    3    3    0    0 -0.21404938142E+02 -0.49558976478E+02 -0.69440577685E+02  0.14484014294E+03  0.11507566924E+03 0.  0.
          5    1    4    4  502    0 -0.51864014489E+02  0.25813009109E+02 -0.10010242237E+03  0.11575306649E+03  0.47000000000E+01 0. -1.
         -5    1    4    4    0  502  0.73268952631E+02  0.23745967369E+02 -0.90492738195E+02  0.11892533814E+03  0.47000000000E+01 0. -1.
          5    1    5    5  503    0 -0.21926090089E+02  0.34272932066E+02 -0.35761008092E+02  0.54372116004E+02  0.47000000000E+01 0. -1.
         -5    1    5    5    0  503  0.52115194733E+00 -0.83831908543E+02 -0.33679569593E+02  0.90468026934E+02  0.47000000000E+01 0. -1.
<mgrwt>
<rscale>  0 0.27643398E+03</rscale>
<asrwt>0</asrwt>
<pdfrwt beam="1">  1        1 0.49196484E-01 0.27643398E+03</pdfrwt>
<pdfrwt beam="2">  1       -1 0.91909853E-02 0.27643398E+03</pdfrwt>
<totfact> 0.55787412E+03</totfact>
</mgrwt>
</event>
<event>
 9    1  0.2073852E-002  0.2735987E+03  0.7818608E-02  0.1099237E+00
         -1   -1    0    0    0  501 -0.00000000000E+00  0.00000000000E+00  0.18258444794E+02  0.18258444794E+02  0.00000000000E+00 0. -1.
          1   -1    0    0  501    0  0.00000000000E+00 -0.00000000000E+00 -0.10249535158E+04  0.10249535158E+04  0.00000000000E+00 0. -1.
         36    2    1    2    0    0  0.00000000000E+00  0.71054273576E-14 -0.10066950710E+04  0.10432119605E+04  0.27359866362E+03 0.  0.
         25    2    3    3    0    0 -0.32979628665E+02 -0.19196258577E+02 -0.48741358951E+03  0.50717301564E+03  0.13489369259E+03 0.  0.
         25    2    3    3    0    0  0.32979628665E+02  0.19196258577E+02 -0.51928148145E+03  0.53603894491E+03  0.12739050685E+03 0.  0.
          5    1    4    4  502    0  0.26853647596E+02 -0.46018255952E+02 -0.35847404995E+03  0.36244245440E+03  0.47000000000E+01 0. -1.
         -5    1    4    4    0  502 -0.59833276261E+02  0.26821997375E+02 -0.12893953956E+03  0.14473056123E+03  0.47000000000E+01 0. -1.
          5    1    5    5  503    0  0.28160501536E+02  0.54021737270E+02 -0.47678736751E+03  0.48068663988E+03  0.47000000000E+01 0.  1.
         -5    1    5    5    0  503  0.48191271285E+01 -0.34825478693E+02 -0.42494113938E+02  0.55352305027E+02  0.47000000000E+01 0.  1.
<mgrwt>
<rscale>  0 0.27359866E+03</rscale>
<asrwt>0</asrwt>
<pdfrwt beam="1">  1        1 0.15768519E+00 0.27359866E+03</pdfrwt>
<pdfrwt beam="2">  1       -1 0.28089910E-02 0.27359866E+03</pdfrwt>
<totfact> 0.63637854E+03</totfact>
</mgrwt>
</event>
<event>
 9    1  0.2073852E-002  0.2748009E+03  0.7818608E-02  0.1098563E+00
         -2   -1    0    0    0  501 -0.00000000000E+00  0.00000000000E+00  0.45557468848E+02  0.45557468848E+02  0.00000000000E+00 0.  1.
          2   -1    0    0  501    0  0.00000000000E+00 -0.00000000000E+00 -0.41439726012E+03  0.41439726012E+03  0.00000000000E+00 0.  1.
         36    2    1    2    0    0  0.71054273576E-14  0.00000000000E+00 -0.36883979127E+03  0.45995472897E+03  0.27480094810E+03 0.  0.
         25    2    3    3    0    0  0.10483867679E+02  0.23954318804E+02 -0.97041222134E+02  0.16051691336E+03  0.12515973718E+03 0.  0.
         25    2    3    3    0    0 -0.10483867679E+02 -0.23954318804E+02 -0.27179856914E+03  0.29943781560E+03  0.12290167760E+03 0.  0.
          5    1    4    4  502    0 -0.53763264694E+02  0.17051793556E+02 -0.20403019315E+02  0.60163323472E+02  0.47000000000E+01 0. -1.
         -5    1    4    4    0  502  0.64247132373E+02  0.69025252482E+01 -0.76638202818E+02  0.10035358989E+03  0.47000000000E+01 0. -1.
          5    1    5    5  503    0  0.50578772632E+02  0.28843808791E+01 -0.67845766816E+02  0.84803714358E+02  0.47000000000E+01 0. -1.
         -5    1    5    5    0  503 -0.61062640311E+02 -0.26838699683E+02 -0.20395280232E+03  0.21463410124E+03  0.47000000000E+01 0. -1.
<mgrwt>
<rscale>  0 0.27480095E+03</rscale>
<asrwt>0</asrwt>
<pdfrwt beam="1">  1        2 0.63753424E-01 0.27480095E+03</pdfrwt>
<pdfrwt beam="2">  1       -2 0.70088414E-02 0.27480095E+03</pdfrwt>
<totfact> 0.88711502E+03</totfact>
</mgrwt>
</event>
<event>
 9    1  0.2073852E-002  0.2739386E+03  0.7818608E-02  0.1099046E+00
         -2   -1    0    0    0  501 -0.00000000000E+00  0.00000000000E+00  0.36358650610E+02  0.36358650610E+02  0.00000000000E+00 0. -1.
          2   -1    0    0  501    0  0.00000000000E+00 -0.00000000000E+00 -0.51598694591E+03  0.51598694591E+03  0.00000000000E+00 0. -1.
         36    2    1    2    0    0  0.00000000000E+00  0.00000000000E+00 -0.47962829530E+03  0.55234559652E+03  0.27393859958E+03 0.  0.
         25    2    3    3    0    0  0.16322871964E+02  0.27595488011E+02 -0.31940000930E+03  0.34660377945E+03  0.13072821762E+03 0.  0.
         25    2    3    3    0    0 -0.16322871964E+02 -0.27595488011E+02 -0.16022828600E+03  0.20574181707E+03  0.12501457734E+03 0.  0.
          5    1    4    4  502    0  0.71583823887E+01  0.70493656710E+02 -0.99017809705E+02  0.12184914736E+03  0.47000000000E+01 0. -1.
         -5    1    4    4    0  502  0.91644895754E+01 -0.42898168698E+02 -0.22038219959E+03  0.22475463209E+03  0.47000000000E+01 0. -1.
          5    1    5    5  503    0  0.29256792194E+02  0.31795724321E+02 -0.10169796380E+03  0.11059608409E+03  0.47000000000E+01 0. -1.
         -5    1    5    5    0  503 -0.45579664158E+02 -0.59391212333E+02 -0.58530322202E+02  0.95145732979E+02  0.47000000000E+01 0. -1.
<mgrwt>
<rscale>  0 0.27393860E+03</rscale>
<asrwt>0</asrwt>
<pdfrwt beam="1">  1        2 0.79382607E-01 0.27393860E+03</pdfrwt>
<pdfrwt beam="2">  1       -2 0.55936385E-02 0.27393860E+03</pdfrwt>
<totfact> 0.98463212E+03</totfact>
</mgrwt>
</event>
<event>
 9    1  0.2073852E-002  0.2766732E+03  0.7818608E-02  0.1097520E+00
          2   -1    0    0  501    0  0.00000000000E+00  0.00000000000E+00  0.10507234479E+04  0.10507234479E+04  0.00000000000E+00 0.  1.
         -2   -1    0    0    0  501 -0.00000000000E+00 -0.00000000000E+00 -0.18213183161E+02  0.18213183161E+02  0.00000000000E+00 0.  1.
         36    2    1    2    0    0 -0.17763568394E-14 -0.71054273576E-14  0.10325102648E+04  0.10689366311E+04  0.27667322681E+03 0.  0.
         25    2    3    3    0    0  0.55795654606E+01  0.49191323065E+02  0.65642589076E+03  0.66972999893E+03  0.12325746873E+03 0.  0.
         25    2    3    3    0    0 -0.55795654606E+01 -0.49191323065E+02  0.37608437401E+03  0.39920663216E+03  0.12440080775E+03 0.  0.
          5    1    4    4  502    0  0.20578999670E+02 -0.37339792765E+02  0.27284391491E+03  0.27619494430E+03  0.47000000000E+01 0.  1.
         -5    1    4    4    0  502 -0.14999434209E+02  0.86531115830E+02  0.38358197584E+03  0.39353505463E+03  0.47000000000E+01 0.  1.
          5    1    5    5  503    0  0.51516064414E+02  0.70020088863E+01  0.17762824537E+03  0.18513999183E+03  0.47000000000E+01 0. -1.
         -5    1    5    5    0  503 -0.57095629875E+02 -0.56193331951E+02  0.19845612864E+03  0.21406664033E+03  0.47000000000E+01 0. -1.
<mgrwt>
<rscale>  0 0.27667323E+03</rscale>
<asrwt>0</asrwt>
<pdfrwt beam="1">  1        2 0.16164971E+00 0.27667323E+03</pdfrwt>
<pdfrwt beam="2">  1       -2 0.28020290E-02 0.27667323E+03</pdfrwt>
<totfact> 0.11444340E+04</totfact>
</mgrwt>
</event>
<event>
 9    1  0.2073852E-002  0.2760255E+03  0.7818608E-02  0.1097880E+00
         -2   -1    0    0    0  501 -0.00000000000E+00  0.00000000000E+00  0.38295300129E+02  0.38295300129E+02  0.00000000000E+00 0.  1.
          2   -1    0    0  501    0  0.00000000000E+00 -0.00000000000E+00 -0.49738526780E+03  0.49738526780E+03  0.00000000000E+00 0.  1.
         36    2    1    2    0    0 -0.14210854715E-13  0.00000000000E+00 -0.45908996767E+03  0.53568056793E+03  0.27602549237E+03 0.  0.
         25    2    3    3    0    0  0.45223666513E+02 -0.21915086474E+02 -0.28334928887E+03  0.31423535103E+03  0.12622038385E+03 0.  0.
         25    2    3    3    0    0 -0.45223666513E+02  0.21915086474E+02 -0.17574067879E+03  0.22144521690E+03  0.12501098703E+03 0.  0.
          5    1    4    4  502    0 -0.72320118481E+01  0.37953133749E+02 -0.31517706165E+02  0.50081914487E+02  0.47000000000E+01 0. -1.
         -5    1    4    4    0  502  0.52455678361E+02 -0.59868220223E+02 -0.25183158271E+03  0.26415343654E+03  0.47000000000E+01 0. -1.
          5    1    5    5  503    0  0.24338870036E+02  0.52452327920E+02 -0.86492089448E+02  0.10414700589E+03  0.47000000000E+01 0. -1.
         -5    1    5    5    0  503 -0.69562536548E+02 -0.30537241446E+02 -0.89248589347E+02  0.11729821101E+03  0.47000000000E+01 0. -1.
<mgrwt>
<rscale>  0 0.27602549E+03</rscale>
<asrwt>0</asrwt>
<pdfrwt beam="1">  1        2 0.76520807E-01 0.27602549E+03</pdfrwt>
<pdfrwt beam="2">  1       -2 0.58915849E-02 0.27602549E+03</pdfrwt>
<totfact> 0.94796054E+03</totfact>
</mgrwt>
</event>
<event>
 9    1  0.2073852E-002  0.2741153E+03  0.7818608E-02  0.1098947E+00
          3   -1    0    0  501    0  0.00000000000E+00  0.00000000000E+00  0.20423432259E+04  0.20423432259E+04  0.00000000000E+00 0.  1.
         -3   -1    0    0    0  501 -0.00000000000E+00 -0.00000000000E+00 -0.91976727615E+01  0.91976727615E+01  0.00000000000E+00 0.  1.
         36    2    1    2    0    0 -0.35527136788E-14  0.14210854715E-13  0.20331455531E+04  0.20515408986E+04  0.27411533819E+03 0.  0.
         25    2    3    3    0    0 -0.14726763988E+02  0.81011695102E+02  0.72842593637E+03  0.74100972265E+03  0.10821872279E+03 0.  0.
         25    2    3    3    0    0  0.14726763988E+02 -0.81011695102E+02  0.13047196167E+04  0.13105311760E+04  0.91754632575E+02 0.  0.
          5    1    4    4  502    0 -0.57206697761E+01 -0.20895497521E+02  0.47415747993E+02  0.52342058013E+02  0.47000000000E+01 0. -1.
         -5    1    4    4    0  502 -0.90060942122E+01  0.10190719262E+03  0.68101018838E+03  0.68866766463E+03  0.47000000000E+01 0. -1.
          5    1    5    5  503    0  0.41472820215E+02 -0.86053259952E+02  0.10019592140E+04  0.10065135443E+04  0.47000000000E+01 0.  1.
         -5    1    5    5    0  503 -0.26746056227E+02  0.50415648509E+01  0.30276040272E+03  0.30401763166E+03  0.47000000000E+01 0.  1.
<mgrwt>
<rscale>  0 0.27411534E+03</rscale>
<asrwt>0</asrwt>
<pdfrwt beam="1">  1        3 0.31420629E+00 0.27411534E+03</pdfrwt>
<pdfrwt beam="2">  1       -3 0.14150282E-02 0.27411534E+03</pdfrwt>
<totfact> 0.15346282E+02</totfact>
</mgrwt>
</event>
<event>
 9    1  0.2073852E-002  0.2763420E+03  0.7818608E-02  0.1097704E+00
         -1   -1    0    0    0  501 -0.00000000000E+00  0.00000000000E+00  0.40182910621E+02  0.40182910621E+02  0.00000000000E+00 0.  1.
          1   -1    0    0  501    0  0.00000000000E+00 -0.00000000000E+00 -0.47510811591E+03  0.47510811591E+03  0.00000000000E+00 0.  1.
         36    2    1    2    0    0  0.00000000000E+00  0.17763568394E-14 -0.43492520529E+03  0.51529102653E+03  0.27634201242E+03 0.  0.
         25    2    3    3    0    0 -0.24386594188E+02  0.87739349279E+00 -0.10202515817E+03  0.15595462779E+03  0.11540033464E+03 0.  0.
         25    2    3    3    0    0  0.24386594188E+02 -0.87739349279E+00 -0.33290004712E+03  0.35933639874E+03  0.13305912329E+03 0.  0.
          5    1    4    4  502    0 -0.63184828011E+02  0.70791715345E+01 -0.23362005765E+02  0.67899267108E+02  0.47000000000E+01 0. -1.
         -5    1    4    4    0  502  0.38798233823E+02 -0.62017780417E+01 -0.78663152401E+02  0.88055360679E+02  0.47000000000E+01 0. -1.
          5    1    5    5  503    0  0.69694287416E+02 -0.35055430242E+02 -0.20154354886E+03  0.21616676196E+03  0.47000000000E+01 0. -1.
         -5    1    5    5    0  503 -0.45307693228E+02  0.34178036749E+02 -0.13135649826E+03  0.14316963678E+03  0.47000000000E+01 0. -1.
<mgrwt>
<rscale>  0 0.27634201E+03</rscale>
<asrwt>0</asrwt>
<pdfrwt beam="1">  1        1 0.73093559E-01 0.27634201E+03</pdfrwt>
<pdfrwt beam="2">  1       -1 0.61819861E-02 0.27634201E+03</pdfrwt>
<totfact> 0.61434508E+03</totfact>
</mgrwt>
</event>
<event>
 9    1  0.2073852E-002  0.2776734E+03  0.7818608E-02  0.1096966E+00
          2   -1    0    0  501    0  0.00000000000E+00  0.00000000000E+00  0.18775723906E+03  0.18775723906E+03  0.00000000000E+00 0.  1.
         -2   -1    0    0    0  501 -0.00000000000E+00 -0.00000000000E+00 -0.10266252274E+03  0.10266252274E+03  0.00000000000E+00 0.  1.
         36    2    1    2    0    0  0.71054273576E-14 -0.14210854715E-13  0.85094716329E+02  0.29041976180E+03  0.27767341842E+03 0.  0.
         25    2    3    3    0    0  0.33046493355E+02 -0.41704177001E+02  0.84068968376E+01  0.13554169992E+03  0.12437671567E+03 0.  0.
         25    2    3    3    0    0 -0.33046493355E+02  0.41704177001E+02  0.76687819491E+02  0.15487806188E+03  0.12359159879E+03 0.  0.
          5    1    4    4  502    0 -0.22173008850E+02  0.20731355835E+02  0.36271846200E+02  0.47530708631E+02  0.47000000000E+01 0.  1.
         -5    1    4    4    0  502  0.55219502206E+02 -0.62435532836E+02 -0.27864949363E+02  0.88010991287E+02  0.47000000000E+01 0.  1.
          5    1    5    5  503    0  0.45935418393E+01  0.79741117172E+02  0.37371205520E+02  0.88308795691E+02  0.47000000000E+01 0. -1.
         -5    1    5    5    0  503 -0.37640035195E+02 -0.38036940170E+02  0.39316613972E+02  0.66569266191E+02  0.47000000000E+01 0. -1.
<mgrwt>
<rscale>  0 0.27767342E+03</rscale>
<asrwt>0</asrwt>
<pdfrwt beam="1">  1        2 0.28885729E-01 0.27767342E+03</pdfrwt>
<pdfrwt beam="2">  1       -2 0.15794234E-01 0.27767342E+03</pdfrwt>
<totfact> 0.57050306E+03</totfact>
</mgrwt>
</event>
<event>
 9    1  0.2073852E-002  0.2735767E+03  0.7818608E-02  0.1099250E+00
         -1   -1    0    0    0  501 -0.00000000000E+00  0.00000000000E+00  0.10861765557E+03  0.10861765557E+03  0.00000000000E+00 0. -1.
          1   -1    0    0  501    0  0.00000000000E+00 -0.00000000000E+00 -0.17226534964E+03  0.17226534964E+03  0.00000000000E+00 0. -1.
         36    2    1    2    0    0  0.35527136788E-14  0.00000000000E+00 -0.63647694073E+02  0.28088300521E+03  0.27357674180E+03 0.  0.
         25    2    3    3    0    0  0.17354408914E+01 -0.74152999966E+01  0.24129753369E+02  0.12779461171E+03  0.12526459737E+03 0.  0.
         25    2    3    3    0    0 -0.17354408914E+01  0.74152999966E+01 -0.87777447441E+02  0.15308839350E+03  0.12519256175E+03 0.  0.
          5    1    4    4  502    0 -0.50988151134E+02  0.57593674780E+01  0.45954919170E+02  0.69042787211E+02  0.47000000000E+01 0.  1.
         -5    1    4    4    0  502  0.52723592026E+02 -0.13174667475E+02 -0.21825165802E+02  0.58751824495E+02  0.47000000000E+01 0.  1.
          5    1    5    5  503    0  0.25513800424E+02  0.25116419825E+01 -0.11261846223E+03  0.11559528707E+03  0.47000000000E+01 0. -1.
         -5    1    5    5    0  503 -0.27249241315E+02  0.49036580141E+01  0.24841014790E+02  0.37493106433E+02  0.47000000000E+01 0. -1.
<mgrwt>
<rscale>  0 0.27357674E+03</rscale>
<asrwt>0</asrwt>
<pdfrwt beam="1">  1        1 0.26502361E-01 0.27357674E+03</pdfrwt>
<pdfrwt beam="2">  1       -1 0.16710409E-01 0.27357674E+03</pdfrwt>
<totfact> 0.47618039E+03</totfact>
</mgrwt>
</event>
<event>
 8    1  0.2073852E-002  0.2581216E+03  0.7818608E-02  0.1108277E+00
          2   -1    0    0  501    0  0.00000000000E+00  0.00000000000E+00  0.25580226956E+02  0.25580226956E+02  0.00000000000E+00 0. -1.
         -2   -1    0    0    0  501 -0.00000000000E+00 -0.00000000000E+00 -0.65115483259E+03  0.65115483259E+03  0.00000000000E+00 0. -1.
         25    2    1    2    0    0  0.40168407863E+02  0.19455459309E+02 -0.32985147802E+03  0.35231134821E+03  0.11545246917E+03 0.  0.
         25    2    1    2    0    0 -0.40168407863E+02 -0.19455459309E+02 -0.29572312761E+03  0.32442371133E+03  0.12572414400E+03 0.  0.
          5    1    3    3  502    0  0.48147799569E+02  0.48605242984E+02 -0.30581939125E+03  0.31341389618E+03  0.47000000000E+01 0.  1.
         -5    1    3    3    0  502 -0.79793917065E+01 -0.29149783676E+02 -0.24032086769E+02  0.38897452035E+02  0.47000000000E+01 0.  1.
          5    1    4    4  503    0 -0.97107013819E+00  0.49205659075E+02 -0.74147879941E+02  0.89118673475E+02  0.47000000000E+01 0. -1.
         -5    1    4    4    0  503 -0.39197337725E+02 -0.68661118383E+02 -0.22157524767E+03  0.23530503786E+03  0.47000000000E+01 0. -1.
<mgrwt>
<rscale>  0 0.25812159E+03</rscale>
<asrwt>0</asrwt>
<pdfrwt beam="1">  1        2 0.39354194E-02 0.25812159E+03</pdfrwt>
<pdfrwt beam="2">  1       -2 0.10017767E+00 0.25812159E+03</pdfrwt>
<totfact> 0.18436606E+03</totfact>
</mgrwt>
</event>
<event>
 9    1  0.2073852E-002  0.2743288E+03  0.7818608E-02  0.1098827E+00
         -1   -1    0    0    0  501 -0.00000000000E+00  0.00000000000E+00  0.27327167163E+02  0.27327167163E+02  0.00000000000E+00 0. -1.
          1   -1    0    0  501    0  0.00000000000E+00 -0.00000000000E+00 -0.68847495659E+03  0.68847495659E+03  0.00000000000E+00 0. -1.
         36    2    1    2    0    0  0.00000000000E+00  0.00000000000E+00 -0.66114778943E+03  0.71580212376E+03  0.27432878250E+03 0.  0.
         25    2    3    3    0    0 -0.28348493739E+02  0.38070234444E+02 -0.43778291907E+03  0.45681095306E+03  0.12152934937E+03 0.  0.
         25    2    3    3    0    0  0.28348493739E+02 -0.38070234444E+02 -0.22336487036E+03  0.25899117069E+03  0.12219484989E+03 0.  0.
          5    1    4    4  502    0 -0.44861955634E+02  0.77391069893E+01 -0.40915733709E+03  0.41170900565E+03  0.47000000000E+01 0. -1.
         -5    1    4    4    0  502  0.16513461895E+02  0.30331127454E+02 -0.28625581984E+02  0.45101947412E+02  0.47000000000E+01 0. -1.
          5    1    5    5  503    0  0.10525768289E+02  0.36517304991E+02 -0.23651502283E+02  0.45008764948E+02  0.47000000000E+01 0. -1.
         -5    1    5    5    0  503  0.17822725451E+02 -0.74587539435E+02 -0.19971336807E+03  0.21398240575E+03  0.47000000000E+01 0. -1.
<mgrwt>
<rscale>  0 0.27432878E+03</rscale>
<asrwt>0</asrwt>
<pdfrwt beam="1">  1        1 0.10591922E+00 0.27432878E+03</pdfrwt>
<pdfrwt beam="2">  1       -1 0.42041798E-02 0.27432878E+03</pdfrwt>
<totfact> 0.65747962E+03</totfact>
</mgrwt>
</event>
<event>
 9    1  0.2073852E-002  0.2750436E+03  0.7818608E-02  0.1098427E+00
         -4   -1    0    0    0  501 -0.00000000000E+00  0.00000000000E+00  0.14552261803E+03  0.14552261803E+03  0.00000000000E+00 0. -1.
          4   -1    0    0  501    0  0.00000000000E+00 -0.00000000000E+00 -0.12996089564E+03  0.12996089564E+03  0.00000000000E+00 0. -1.
         36    2    1    2    0    0  0.35527136788E-14 -0.71054273576E-14  0.15561722390E+02  0.27548351366E+03  0.27504363126E+03 0.  0.
         25    2    3    3    0    0 -0.18251972105E+02  0.26501463006E+02  0.52704904520E+02  0.14118990722E+03  0.12696976378E+03 0.  0.
         25    2    3    3    0    0  0.18251972105E+02 -0.26501463006E+02 -0.37143182130E+02  0.13429360644E+03  0.12497877710E+03 0.  0.
          5    1    4    4  502    0 -0.61074833003E+02  0.31461414160E+02  0.66453480540E+02  0.95698019223E+02  0.47000000000E+01 0.  1.
         -5    1    4    4    0  502  0.42822860898E+02 -0.49599511543E+01 -0.13748576021E+02  0.45491887997E+02  0.47000000000E+01 0.  1.
          5    1    5    5  503    0  0.41491643382E+02  0.40044310539E+02 -0.22936773895E+02  0.62235752376E+02  0.47000000000E+01 0. -1.
         -5    1    5    5    0  503 -0.23239671278E+02 -0.66545773545E+02 -0.14206408235E+02  0.72057854067E+02  0.47000000000E+01 0. -1.
<mgrwt>
<rscale>  0 0.27504363E+03</rscale>
<asrwt>0</asrwt>
<pdfrwt beam="1">  1        4 0.19993984E-01 0.27504363E+03</pdfrwt>
<pdfrwt beam="2">  1       -4 0.22388095E-01 0.27504363E+03</pdfrwt>
<totfact> 0.77768400E+02</totfact>
</mgrwt>
</event>
<event>
 9    1  0.2073852E-002  0.2753308E+03  0.7818608E-02  0.1098267E+00
          2   -1    0    0  501    0  0.00000000000E+00  0.00000000000E+00  0.14368208971E+04  0.14368208971E+04  0.00000000000E+00 0.  1.
         -2   -1    0    0    0  501 -0.00000000000E+00 -0.00000000000E+00 -0.13190062769E+02  0.13190062769E+02  0.00000000000E+00 0.  1.
         36    2    1    2    0    0  0.00000000000E+00  0.00000000000E+00  0.14236308343E+04  0.14500109599E+04  0.27533076705E+03 0.  0.
         25    2    3    3    0    0  0.22635294190E+02 -0.47146833728E+02  0.83898489292E+03  0.84939907592E+03  0.12185220208E+03 0.  0.
         25    2    3    3    0    0 -0.22635294190E+02  0.47146833728E+02  0.58464594140E+03  0.60061188394E+03  0.12723434230E+03 0.  0.
          5    1    4    4  502    0  0.53715101187E+02 -0.82175246951E+01  0.16977522899E+03  0.17832150231E+03  0.47000000000E+01 0. -1.
         -5    1    4    4    0  502 -0.31079806996E+02 -0.38929309032E+02  0.66920966393E+03  0.67107757361E+03  0.47000000000E+01 0. -1.
          5    1    5    5  503    0  0.52839182959E+02  0.22478173565E+02  0.26865961364E+03  0.27476776657E+03  0.47000000000E+01 0. -1.
         -5    1    5    5    0  503 -0.75474477149E+02  0.24668660163E+02  0.31598632776E+03  0.32584411738E+03  0.47000000000E+01 0. -1.
<mgrwt>
<rscale>  0 0.27533077E+03</rscale>
<asrwt>0</asrwt>
<pdfrwt beam="1">  1        2 0.22104925E+00 0.27533077E+03</pdfrwt>
<pdfrwt beam="2">  1       -2 0.20292416E-02 0.27533077E+03</pdfrwt>
<totfact> 0.11165561E+04</totfact>
</mgrwt>
</event>
<event>
 9    1  0.2073852E-002  0.2731486E+03  0.7818608E-02  0.1099491E+00
          2   -1    0    0  501    0  0.00000000000E+00  0.00000000000E+00  0.20047368329E+04  0.20047368329E+04  0.00000000000E+00 0.  1.
         -2   -1    0    0    0  501 -0.00000000000E+00 -0.00000000000E+00 -0.93042340165E+01  0.93042340165E+01  0.00000000000E+00 0.  1.
         36    2    1    2    0    0  0.00000000000E+00  0.00000000000E+00  0.19954325989E+04  0.20140410669E+04  0.27314860889E+03 0.  0.
         25    2    3    3    0    0  0.14479105854E+02  0.48088837843E+02  0.11489305807E+04  0.11569122576E+04  0.12602504466E+03 0.  0.
         25    2    3    3    0    0 -0.14479105854E+02 -0.48088837843E+02  0.84650201820E+03  0.85712880925E+03  0.12482767320E+03 0.  0.
          5    1    4    4  502    0  0.70183406266E+02  0.33375562179E+02  0.65950283567E+03  0.66408261454E+03  0.47000000000E+01 0. -1.
         -5    1    4    4    0  502 -0.55704300411E+02  0.14713275663E+02  0.48942774499E+03  0.49282964311E+03  0.47000000000E+01 0. -1.
          5    1    5    5  503    0  0.34503518814E+02 -0.69417394708E+02  0.58925284266E+03  0.59434860990E+03  0.47000000000E+01 0.  1.
         -5    1    5    5    0  503 -0.48982624668E+02  0.21328556866E+02  0.25724917553E+03  0.26278019935E+03  0.47000000000E+01 0.  1.
<mgrwt>
<rscale>  0 0.27314861E+03</rscale>
<asrwt>0</asrwt>
<pdfrwt beam="1">  1        2 0.30842071E+00 0.27314861E+03</pdfrwt>
<pdfrwt beam="2">  1       -2 0.14314222E-02 0.27314861E+03</pdfrwt>
<totfact> 0.93321950E+03</totfact>
</mgrwt>
</event>
<event>
 9    1  0.2073852E-002  0.2743691E+03  0.7818608E-02  0.1098805E+00
          2   -1    0    0  501    0  0.00000000000E+00  0.00000000000E+00  0.79427290236E+02  0.79427290236E+02  0.00000000000E+00 0. -1.
         -2   -1    0    0    0  501 -0.00000000000E+00 -0.00000000000E+00 -0.23694127755E+03  0.23694127755E+03  0.00000000000E+00 0. -1.
         36    2    1    2    0    0  0.00000000000E+00 -0.71054273576E-14 -0.15751398732E+03  0.31636856779E+03  0.27436912086E+03 0.  0.
         25    2    3    3    0    0 -0.58573978930E+01  0.52340548365E+02 -0.62152929017E+02  0.14895852336E+03  0.12470690832E+03 0.  0.
         25    2    3    3    0    0  0.58573978930E+01 -0.52340548365E+02 -0.95361058298E+02  0.16741004443E+03  0.12711628307E+03 0.  0.
          5    1    4    4  502    0  0.56087676152E+02  0.45194335512E+02 -0.25976017905E+02  0.76715049923E+02  0.47000000000E+01 0.  1.
         -5    1    4    4    0  502 -0.61945074045E+02  0.71462128528E+01 -0.36176911112E+02  0.72243473437E+02  0.47000000000E+01 0.  1.
          5    1    5    5  503    0  0.47465332744E+02 -0.71674446174E+02 -0.83168699343E+02  0.11970508175E+03  0.47000000000E+01 0. -1.
         -5    1    5    5    0  503 -0.41607934851E+02  0.19333897809E+02 -0.12192358955E+02  0.47704962676E+02  0.47000000000E+01 0. -1.
<mgrwt>
<rscale>  0 0.27436912E+03</rscale>
<asrwt>0</asrwt>
<pdfrwt beam="1">  1        2 0.12219583E-01 0.27436912E+03</pdfrwt>
<pdfrwt beam="2">  1       -2 0.36452503E-01 0.27436912E+03</pdfrwt>
<totfact> 0.35373678E+03</totfact>
</mgrwt>
</event>
<event>
 9    1  0.2073852E-002  0.2779766E+03  0.7818608E-02  0.1096799E+00
          1   -1    0    0  501    0  0.00000000000E+00  0.00000000000E+00  0.12330929865E+04  0.12330929865E+04  0.00000000000E+00 0. -1.
         -1   -1    0    0    0  501 -0.00000000000E+00 -0.00000000000E+00 -0.15666089877E+02  0.15666089877E+02  0.00000000000E+00 0. -1.
         36    2    1    2    0    0  0.00000000000E+00  0.35527136788E-14  0.12174268967E+04  0.12487590764E+04  0.27797658573E+03 0.  0.
         25    2    3    3    0    0 -0.41715373864E+02  0.25318074434E+02  0.90714554709E+03  0.91703047476E+03  0.12510264071E+03 0.  0.
         25    2    3    3    0    0  0.41715373864E+02 -0.25318074434E+02  0.31028134956E+03  0.33172860165E+03  0.10671537826E+03 0.  0.
          5    1    4    4  502    0  0.83133891332E+01  0.60401715111E+02  0.64146214739E+03  0.64437043396E+03  0.47000000000E+01 0. -1.
         -5    1    4    4    0  502 -0.50028762997E+02 -0.35083640676E+02  0.26568339970E+03  0.27266004080E+03  0.47000000000E+01 0. -1.
          5    1    5    5  503    0  0.30348500651E+02  0.98360882046E+01  0.28475847613E+03  0.28657854045E+03  0.47000000000E+01 0. -1.
         -5    1    5    5    0  503  0.11366873214E+02 -0.35154162639E+02  0.25522873430E+02  0.45150061192E+02  0.47000000000E+01 0. -1.
<mgrwt>
<rscale>  0 0.27797659E+03</rscale>
<asrwt>0</asrwt>
<pdfrwt beam="1">  1        1 0.18970654E+00 0.27797659E+03</pdfrwt>
<pdfrwt beam="2">  1       -1 0.24101686E-02 0.27797659E+03</pdfrwt>
<totfact> 0.56592052E+03</totfact>
</mgrwt>
</event>
<event>
 9    1  0.2073852E-002  0.2750278E+03  0.7818608E-02  0.1098436E+00
         -1   -1    0    0    0  501 -0.00000000000E+00  0.00000000000E+00  0.28954574531E+02  0.28954574531E+02  0.00000000000E+00 0. -1.
          1   -1    0    0  501    0  0.00000000000E+00 -0.00000000000E+00 -0.65309429107E+03  0.65309429107E+03  0.00000000000E+00 0. -1.
         36    2    1    2    0    0  0.71054273576E-14  0.71054273576E-14 -0.62413971654E+03  0.68204886560E+03  0.27502776098E+03 0.  0.
         25    2    3    3    0    0  0.17000696038E+02  0.54686059187E+02 -0.27029643878E+03  0.30369303118E+03  0.12605436777E+03 0.  0.
         25    2    3    3    0    0 -0.17000696038E+02 -0.54686059187E+02 -0.35384327776E+03  0.37835583442E+03  0.12111351490E+03 0.  0.
          5    1    4    4  502    0 -0.46352920781E+01  0.69771896486E+02 -0.26776201771E+03  0.27678184839E+03  0.47000000000E+01 0.  1.
         -5    1    4    4    0  502  0.21635988116E+02 -0.15085837299E+02 -0.25344210709E+01  0.26911182786E+02  0.47000000000E+01 0.  1.
          5    1    5    5  503    0 -0.51467919628E+02  0.13147314953E+02 -0.19509645377E+03  0.20225359061E+03  0.47000000000E+01 0. -1.
         -5    1    5    5    0  503  0.34467223590E+02 -0.67833374140E+02 -0.15874682399E+03  0.17610224381E+03  0.47000000000E+01 0. -1.
<mgrwt>
<rscale>  0 0.27502776E+03</rscale>
<asrwt>0</asrwt>
<pdfrwt beam="1">  1        1 0.10047605E+00 0.27502776E+03</pdfrwt>
<pdfrwt beam="2">  1       -1 0.44545498E-02 0.27502776E+03</pdfrwt>
<totfact> 0.65074108E+03</totfact>
</mgrwt>
</event>
<event>
 9    1  0.2073852E-002  0.2748852E+03  0.7818608E-02  0.1098516E+00
          2   -1    0    0  501    0  0.00000000000E+00  0.00000000000E+00  0.49896638690E+03  0.49896638690E+03  0.00000000000E+00 0.  1.
         -2   -1    0    0    0  501 -0.00000000000E+00 -0.00000000000E+00 -0.37859208748E+02  0.37859208748E+02  0.00000000000E+00 0.  1.
         36    2    1    2    0    0  0.71054273576E-14  0.35527136788E-14  0.46110717815E+03  0.53682559565E+03  0.27488523132E+03 0.  0.
         25    2    3    3    0    0 -0.48625512391E+02 -0.14200437264E+02  0.26833624076E+03  0.30098322537E+03  0.12657199919E+03 0.  0.
         25    2    3    3    0    0  0.48625512391E+02  0.14200437264E+02  0.19277093740E+03  0.23584237028E+03  0.12607496357E+03 0.  0.
          5    1    4    4  502    0 -0.30422877441E+01 -0.10501606520E+02 -0.12000980902E+02  0.16901266131E+02  0.47000000000E+01 0.  1.
         -5    1    4    4    0  502 -0.45583224647E+02 -0.36988307442E+01  0.28033722166E+03  0.28408195924E+03  0.47000000000E+01 0.  1.
          5    1    5    5  503    0  0.73690795223E+02  0.42698175649E+02  0.80685548263E+02  0.11741258537E+03  0.47000000000E+01 0.  1.
         -5    1    5    5    0  503 -0.25065282832E+02 -0.28497738385E+02  0.11208538913E+03  0.11842978491E+03  0.47000000000E+01 0.  1.
<mgrwt>
<rscale>  0 0.27488523E+03</rscale>
<asrwt>0</asrwt>
<pdfrwt beam="1">  1        2 0.76764055E-01 0.27488523E+03</pdfrwt>
<pdfrwt beam="2">  1       -2 0.58244940E-02 0.27488523E+03</pdfrwt>
<totfact> 0.96117106E+03</totfact>
</mgrwt>
</event>
<event>
 9    1  0.2073852E-002  0.2755124E+03  0.7818608E-02  0.1098165E+00
          4   -1    0    0  501    0  0.00000000000E+00  0.00000000000E+00  0.18483074837E+03  0.18483074837E+03  0.00000000000E+00 0.  1.
         -4   -1    0    0    0  501 -0.00000000000E+00 -0.00000000000E+00 -0.10267110133E+03  0.10267110133E+03  0.00000000000E+00 0.  1.
         36    2    1    2    0    0 -0.35527136788E-14  0.00000000000E+00  0.82159647047E+02  0.28750184970E+03  0.27551244251E+03 0.  0.
         25    2    3    3    0    0 -0.83832349023E+01  0.42740060281E+02  0.84506201461E+02  0.15452918616E+03  0.12182356057E+03 0.  0.
         25    2    3    3    0    0  0.83832349023E+01 -0.42740060281E+02 -0.23465544141E+01  0.13297266354E+03  0.12561541128E+03 0.  0.
          5    1    4    4  502    0 -0.93993380520E+01  0.81395541597E+01 -0.31067369678E+02  0.33791587067E+02  0.47000000000E+01 0. -1.
         -5    1    4    4    0  502  0.10161031498E+01  0.34600506122E+02  0.11557357114E+03  0.12073759910E+03  0.47000000000E+01 0. -1.
          5    1    5    5  503    0  0.62385573379E+02  0.17091937171E+01  0.30878899471E+01  0.62661839850E+02  0.47000000000E+01 0. -1.
         -5    1    5    5    0  503 -0.54002338477E+02 -0.44449253998E+02 -0.54344443612E+01  0.70310823687E+02  0.47000000000E+01 0. -1.
<mgrwt>
<rscale>  0 0.27551244E+03</rscale>
<asrwt>0</asrwt>
<pdfrwt beam="1">  1        4 0.28435500E-01 0.27551244E+03</pdfrwt>
<pdfrwt beam="2">  1       -4 0.15795554E-01 0.27551244E+03</pdfrwt>
<totfact> 0.75969752E+02</totfact>
</mgrwt>
</event>
<event>
 9    1  0.2073852E-002  0.2731319E+03  0.7818608E-02  0.1099500E+00
         -2   -1    0    0    0  501 -0.00000000000E+00  0.00000000000E+00  0.94300334963E+01  0.94300334963E+01  0.00000000000E+00 0. -1.
          2   -1    0    0  501    0  0.00000000000E+00 -0.00000000000E+00 -0.19777509312E+04  0.19777509312E+04  0.00000000000E+00 0. -1.
         36    2    1    2    0    0  0.00000000000E+00  0.00000000000E+00 -0.19683208977E+04  0.19871809647E+04  0.27313189143E+03 0.  0.
         25    2    3    3    0    0 -0.53733316752E+01  0.53244239010E+02 -0.96832459040E+03  0.97786984580E+03  0.12535190975E+03 0.  0.
         25    2    3    3    0    0  0.53733316752E+01 -0.53244239010E+02 -0.99999630734E+03  0.10093111189E+04  0.12590670521E+03 0.  0.
          5    1    4    4  502    0  0.52901731256E+02 -0.53902201004E+01 -0.39916997439E+03  0.40272373421E+03  0.47000000000E+01 0. -1.
         -5    1    4    4    0  502 -0.58275062931E+02  0.58634459111E+02 -0.56915461601E+03  0.57514611159E+03  0.47000000000E+01 0. -1.
          5    1    5    5  503    0  0.59659553730E+02 -0.43850344416E+02 -0.72671151007E+03  0.73048875688E+03  0.47000000000E+01 0. -1.
         -5    1    5    5    0  503 -0.54286222055E+02 -0.93938945942E+01 -0.27328479727E+03  0.27882236205E+03  0.47000000000E+01 0. -1.
<mgrwt>
<rscale>  0 0.27313189E+03</rscale>
<asrwt>0</asrwt>
<pdfrwt beam="1">  1        2 0.30426973E+00 0.27313189E+03</pdfrwt>
<pdfrwt beam="2">  1       -2 0.14507727E-02 0.27313189E+03</pdfrwt>
<totfact> 0.94547102E+03</totfact>
</mgrwt>
</event>
<event>
 9    1  0.2073852E-002  0.2788172E+03  0.7818608E-02  0.1096337E+00
          1   -1    0    0  501    0  0.00000000000E+00  0.00000000000E+00  0.29230111635E+02  0.29230111635E+02  0.00000000000E+00 0. -1.
         -1   -1    0    0    0  501 -0.00000000000E+00 -0.00000000000E+00 -0.66488835258E+03  0.66488835258E+03  0.00000000000E+00 0. -1.
         36    2    1    2    0    0 -0.14210854715E-13  0.71054273576E-14 -0.63565824095E+03  0.69411846422E+03  0.27881722164E+03 0.  0.
         25    2    3    3    0    0  0.67031148317E+02 -0.23379083190E+02 -0.27952466917E+03  0.31042421350E+03  0.11484509252E+03 0.  0.
         25    2    3    3    0    0 -0.67031148317E+02  0.23379083190E+02 -0.35613357177E+03  0.38369425071E+03  0.12389673407E+03 0.  0.
          5    1    4    4  502    0 -0.19787372763E+02  0.19249882152E+02 -0.23021626569E+02  0.36251667184E+02  0.47000000000E+01 0. -1.
         -5    1    4    4    0  502  0.86818521081E+02 -0.42628965342E+02 -0.25650304261E+03  0.27417254632E+03  0.47000000000E+01 0. -1.
          5    1    5    5  503    0  0.95792216756E+00  0.42814272720E+02 -0.37009323556E+02  0.56795770912E+02  0.47000000000E+01 0.  1.
         -5    1    5    5    0  503 -0.67989070485E+02 -0.19435189530E+02 -0.31912424822E+03  0.32689847980E+03  0.47000000000E+01 0.  1.
<mgrwt>
<rscale>  0 0.27881722E+03</rscale>
<asrwt>0</asrwt>
<pdfrwt beam="1">  1        1 0.44969407E-02 0.27881722E+03</pdfrwt>
<pdfrwt beam="2">  1       -1 0.10229051E+00 0.27881722E+03</pdfrwt>
<totfact> 0.18477433E+03</totfact>
</mgrwt>
</event>
<event>
 9    1  0.2073852E-002  0.2749515E+03  0.7818608E-02  0.1098479E+00
          2   -1    0    0  501    0  0.00000000000E+00  0.00000000000E+00  0.53992354538E+03  0.53992354538E+03  0.00000000000E+00 0. -1.
         -2   -1    0    0    0  501 -0.00000000000E+00 -0.00000000000E+00 -0.35004172670E+02  0.35004172670E+02  0.00000000000E+00 0. -1.
         36    2    1    2    0    0 -0.71054273576E-14  0.00000000000E+00  0.50491937271E+03  0.57492771805E+03  0.27495146489E+03 0.  0.
         25    2    3    3    0    0 -0.51626805811E+02  0.16848787769E+02  0.26024658126E+03  0.29315645432E+03  0.12354438443E+03 0.  0.
         25    2    3    3    0    0  0.51626805811E+02 -0.16848787769E+02  0.24467279145E+03  0.28177126373E+03  0.12876747051E+03 0.  0.
          5    1    4    4  502    0 -0.83397600490E+02  0.10926385673E+02  0.24088471202E+03  0.25519028225E+03  0.47000000000E+01 0.  1.
         -5    1    4    4    0  502  0.31770794678E+02  0.59224020959E+01  0.19361869246E+02  0.37966172072E+02  0.47000000000E+01 0.  1.
          5    1    5    5  503    0 -0.47187122591E+01 -0.29896956987E+02  0.21391406614E+03  0.21609583980E+03  0.47000000000E+01 0.  1.
         -5    1    5    5    0  503  0.56345518070E+02  0.13048169218E+02  0.30758725302E+02  0.65675423933E+02  0.47000000000E+01 0.  1.
<mgrwt>
<rscale>  0 0.27495146E+03</rscale>
<asrwt>0</asrwt>
<pdfrwt beam="1">  1        2 0.83065155E-01 0.27495146E+03</pdfrwt>
<pdfrwt beam="2">  1       -2 0.53852577E-02 0.27495146E+03</pdfrwt>
<totfact> 0.99142224E+03</totfact>
</mgrwt>
</event>
<event>
 9    1  0.2073852E-002  0.2746824E+03  0.7818608E-02  0.1098629E+00
         -3   -1    0    0    0  501 -0.00000000000E+00  0.00000000000E+00  0.47384186468E+03  0.47384186468E+03  0.00000000000E+00 0.  1.
          3   -1    0    0  501    0  0.00000000000E+00 -0.00000000000E+00 -0.39807812448E+02  0.39807812448E+02  0.00000000000E+00 0.  1.
         36    2    1    2    0    0  0.35527136788E-14 -0.71054273576E-14  0.43403405223E+03  0.51364967712E+03  0.27468242084E+03 0.  0.
         25    2    3    3    0    0  0.14332100413E+02  0.61538264531E+02  0.21961658971E+03  0.26200402406E+03  0.12814950270E+03 0.  0.
         25    2    3    3    0    0 -0.14332100413E+02 -0.61538264531E+02  0.21441746252E+03  0.25164565307E+03  0.11557819592E+03 0.  0.
          5    1    4    4  502    0 -0.30502303356E+02  0.86078439440E+02  0.14553311290E+03  0.17187747146E+03  0.47000000000E+01 0.  1.
         -5    1    4    4    0  502  0.44834403769E+02 -0.24540174909E+02  0.74083476813E+02  0.90126552594E+02  0.47000000000E+01 0.  1.
          5    1    5    5  503    0  0.16293793761E+02 -0.81878442065E+02  0.18909436502E+03  0.20675670696E+03  0.47000000000E+01 0. -1.
         -5    1    5    5    0  503 -0.30625894173E+02  0.20340177534E+02  0.25323097500E+02  0.44888946112E+02  0.47000000000E+01 0. -1.
<mgrwt>
<rscale>  0 0.27468242E+03</rscale>
<asrwt>0</asrwt>
<pdfrwt beam="1">  1        3 0.61242792E-02 0.27468242E+03</pdfrwt>
<pdfrwt beam="2">  1       -3 0.72898744E-01 0.27468242E+03</pdfrwt>
<totfact> 0.76309230E+02</totfact>
</mgrwt>
</event>
<event>
 9    1  0.2073852E-002  0.2747806E+03  0.7818608E-02  0.1098574E+00
         -1   -1    0    0    0  501 -0.00000000000E+00  0.00000000000E+00  0.20300012006E+02  0.20300012006E+02  0.00000000000E+00 0.  1.
          1   -1    0    0  501    0  0.00000000000E+00 -0.00000000000E+00 -0.92985614090E+03  0.92985614090E+03  0.00000000000E+00 0.  1.
         36    2    1    2    0    0  0.00000000000E+00  0.00000000000E+00 -0.90955612890E+03  0.95015615291E+03  0.27478057300E+03 0.  0.
         25    2    3    3    0    0 -0.22860801624E+02 -0.48266943101E+02 -0.48771290030E+03  0.50655268787E+03  0.12601364380E+03 0.  0.
         25    2    3    3    0    0  0.22860801624E+02  0.48266943101E+02 -0.42184322860E+03  0.44360346504E+03  0.12641206680E+03 0.  0.
          5    1    4    4  502    0  0.18398725452E+02  0.13917022051E+02 -0.34166926731E+03  0.34247945168E+03  0.47000000000E+01 0.  1.
         -5    1    4    4    0  502 -0.41259527076E+02 -0.62183965152E+02 -0.14604363299E+03  0.16407323619E+03  0.47000000000E+01 0.  1.
          5    1    5    5  503    0 -0.30726242882E+02 -0.11589924925E+02 -0.26740620432E+03  0.26945611233E+03  0.47000000000E+01 0.  1.
         -5    1    5    5    0  503  0.53587044506E+02  0.59856868025E+02 -0.15443702427E+03  0.17414735271E+03  0.47000000000E+01 0.  1.
<mgrwt>
<rscale>  0 0.27478057E+03</rscale>
<asrwt>0</asrwt>
<pdfrwt beam="1">  1        1 0.14305478E+00 0.27478057E+03</pdfrwt>
<pdfrwt beam="2">  1       -1 0.31230789E-02 0.27478057E+03</pdfrwt>
<totfact> 0.64237315E+03</totfact>
</mgrwt>
</event>
<event>
 9    1  0.2073852E-002  0.2750500E+03  0.7818608E-02  0.1098424E+00
         -1   -1    0    0    0  501 -0.00000000000E+00  0.00000000000E+00  0.51583097569E+03  0.51583097569E+03  0.00000000000E+00 0. -1.
          1   -1    0    0  501    0  0.00000000000E+00 -0.00000000000E+00 -0.36665353443E+02  0.36665353443E+02  0.00000000000E+00 0. -1.
         36    2    1    2    0    0 -0.71054273576E-14  0.00000000000E+00  0.47916562225E+03  0.55249632913E+03  0.27504999575E+03 0.  0.
         25    2    3    3    0    0  0.37759735138E+02  0.80380420236E+01  0.14270235892E+03  0.19213822815E+03  0.12273030497E+03 0.  0.
         25    2    3    3    0    0 -0.37759735138E+02 -0.80380420236E+01  0.33646326333E+03  0.36035810098E+03  0.12312605596E+03 0.  0.
          5    1    4    4  502    0  0.11919120270E+02 -0.18458929592E+02  0.15202996757E+03  0.15368148408E+03  0.47000000000E+01 0. -1.
         -5    1    4    4    0  502  0.25840614868E+02  0.26496971616E+02 -0.93276086495E+01  0.38456744073E+02  0.47000000000E+01 0. -1.
          5    1    5    5  503    0  0.26942214735E+02  0.39899408892E+02  0.12689350496E+03  0.13580094759E+03  0.47000000000E+01 0.  1.
         -5    1    5    5    0  503 -0.64701949873E+02 -0.47937450915E+02  0.20956975837E+03  0.22455715339E+03  0.47000000000E+01 0.  1.
<mgrwt>
<rscale>  0 0.27505000E+03</rscale>
<asrwt>0</asrwt>
<pdfrwt beam="1">  1        1 0.56408240E-02 0.27505000E+03</pdfrwt>
<pdfrwt beam="2">  1       -1 0.79358607E-01 0.27505000E+03</pdfrwt>
<totfact> 0.23305806E+03</totfact>
</mgrwt>
</event>
<event>
 9    1  0.2073852E-002  0.2753357E+03  0.7818608E-02  0.1098264E+00
         -1   -1    0    0    0  501 -0.00000000000E+00  0.00000000000E+00  0.20766528997E+03  0.20766528997E+03  0.00000000000E+00 0. -1.
          1   -1    0    0  501    0  0.00000000000E+00 -0.00000000000E+00 -0.91264364967E+02  0.91264364967E+02  0.00000000000E+00 0. -1.
         36    2    1    2    0    0 -0.14210854715E-13 -0.35527136788E-14  0.11640092500E+03  0.29892965493E+03  0.27533572826E+03 0.  0.
         25    2    3    3    0    0  0.56611570709E+02  0.12471796984E+02  0.72756043765E+02  0.15660137757E+03  0.12597671965E+03 0.  0.
         25    2    3    3    0    0 -0.56611570709E+02 -0.12471796984E+02  0.43644881234E+02  0.14232827736E+03  0.12244201575E+03 0.  0.
          5    1    4    4  502    0  0.80717009778E+02  0.44122253274E+02  0.27425752325E+02  0.96105519051E+02  0.47000000000E+01 0.  1.
         -5    1    4    4    0  502 -0.24105439069E+02 -0.31650456290E+02  0.45330291440E+02  0.60495858520E+02  0.47000000000E+01 0.  1.
          5    1    5    5  503    0 -0.45547341721E+02 -0.62033594848E+02  0.48516959599E+02  0.91097269972E+02  0.47000000000E+01 0. -1.
         -5    1    5    5    0  503 -0.11064228988E+02  0.49561797864E+02 -0.48720783648E+01  0.51231007390E+02  0.47000000000E+01 0. -1.
<mgrwt>
<rscale>  0 0.27533573E+03</rscale>
<asrwt>0</asrwt>
<pdfrwt beam="1">  1        1 0.14040672E-01 0.27533573E+03</pdfrwt>
<pdfrwt beam="2">  1       -1 0.31948506E-01 0.27533573E+03</pdfrwt>
<totfact> 0.37099104E+03</totfact>
</mgrwt>
</event>
<event>
 9    1  0.2073852E-002  0.2775253E+03  0.7818608E-02  0.1097048E+00
         -1   -1    0    0    0  501 -0.00000000000E+00  0.00000000000E+00  0.18025551846E+02  0.18025551846E+02  0.00000000000E+00 0.  1.
          1   -1    0    0  501    0  0.00000000000E+00 -0.00000000000E+00 -0.10682099078E+04  0.10682099078E+04  0.00000000000E+00 0.  1.
         36    2    1    2    0    0 -0.71054273576E-14  0.00000000000E+00 -0.10501843560E+04  0.10862354597E+04  0.27752530030E+03 0.  0.
         25    2    3    3    0    0 -0.64643369874E+01  0.52839425979E+02 -0.62077373220E+03  0.63539026314E+03  0.12460725227E+03 0.  0.
         25    2    3    3    0    0  0.64643369874E+01 -0.52839425979E+02 -0.42941062380E+03  0.45084519655E+03  0.12662588529E+03 0.  0.
          5    1    4    4  502    0  0.33340495059E+02  0.56008332532E+02 -0.15951154565E+03  0.17237907391E+03  0.47000000000E+01 0. -1.
         -5    1    4    4    0  502 -0.39804832047E+02 -0.31689065528E+01 -0.46126218654E+03  0.46301118924E+03  0.47000000000E+01 0. -1.
          5    1    5    5  503    0  0.46538229497E+02 -0.23992996393E+02 -0.36879513513E+03  0.37252303603E+03  0.47000000000E+01 0. -1.
         -5    1    5    5    0  503 -0.40073892509E+02 -0.28846429586E+02 -0.60615488671E+02  0.78322160514E+02  0.47000000000E+01 0. -1.
<mgrwt>
<rscale>  0 0.27752530E+03</rscale>
<asrwt>0</asrwt>
<pdfrwt beam="1">  1        1 0.16434004E+00 0.27752530E+03</pdfrwt>
<pdfrwt beam="2">  1       -1 0.27731609E-02 0.27752530E+03</pdfrwt>
<totfact> 0.60292376E+03</totfact>
</mgrwt>
</event>
<event>
 9    1  0.2073852E-002  0.2759440E+03  0.7818608E-02  0.1097925E+00
         -2   -1    0    0    0  501 -0.00000000000E+00  0.00000000000E+00  0.16172926753E+02  0.16172926753E+02  0.00000000000E+00 0.  1.
          2   -1    0    0  501    0  0.00000000000E+00 -0.00000000000E+00 -0.11770452681E+04  0.11770452681E+04  0.00000000000E+00 0.  1.
         36    2    1    2    0    0  0.00000000000E+00  0.17763568394E-14 -0.11608723414E+04  0.11932181949E+04  0.27594395740E+03 0.  0.
         25    2    3    3    0    0  0.54394458939E+02 -0.12195545728E+02 -0.68638106496E+03  0.70013910090E+03  0.12636576190E+03 0.  0.
         25    2    3    3    0    0 -0.54394458939E+02  0.12195545728E+02 -0.47449127639E+03  0.49307909396E+03  0.12197349312E+03 0.  0.
          5    1    4    4  502    0 -0.94173468924E+01  0.38663702540E+02 -0.40922195524E+03  0.41117911786E+03  0.47000000000E+01 0.  1.
         -5    1    4    4    0  502  0.63811805831E+02 -0.50859248269E+02 -0.27715910972E+03  0.28895998304E+03  0.47000000000E+01 0.  1.
          5    1    5    5  503    0 -0.91483066578E+02 -0.54369477970E+01 -0.29782427001E+03  0.31164097561E+03  0.47000000000E+01 0.  1.
         -5    1    5    5    0  503  0.37088607639E+02  0.17632493525E+02 -0.17666700638E+03  0.18143811835E+03  0.47000000000E+01 0.  1.
<mgrwt>
<rscale>  0 0.27594396E+03</rscale>
<asrwt>0</asrwt>
<pdfrwt beam="1">  1        2 0.18108393E+00 0.27594396E+03</pdfrwt>
<pdfrwt beam="2">  1       -2 0.24881419E-02 0.27594396E+03</pdfrwt>
<totfact> 0.11512288E+04</totfact>
</mgrwt>
</event>
<event>
 9    1  0.2073852E-002  0.2739647E+03  0.7818608E-02  0.1099032E+00
         -2   -1    0    0    0  501 -0.00000000000E+00  0.00000000000E+00  0.54616908415E+02  0.54616908415E+02  0.00000000000E+00 0. -1.
          2   -1    0    0  501    0  0.00000000000E+00 -0.00000000000E+00 -0.34355965208E+03  0.34355965208E+03  0.00000000000E+00 0. -1.
         36    2    1    2    0    0  0.00000000000E+00  0.35527136788E-14 -0.28894274367E+03  0.39817656049E+03  0.27396471344E+03 0.  0.
         25    2    3    3    0    0 -0.33282821963E+02 -0.14112500024E+02 -0.12972143438E+03  0.18249117684E+03  0.12316034342E+03 0.  0.
         25    2    3    3    0    0  0.33282821963E+02  0.14112500024E+02 -0.15922130929E+03  0.21568538366E+03  0.14093207760E+03 0.  0.
          5    1    4    4  502    0 -0.14189654132E+02  0.16446871479E+02  0.19095707846E+02  0.29301568627E+02  0.47000000000E+01 0.  1.
         -5    1    4    4    0  502 -0.19093167830E+02 -0.30559371504E+02 -0.14881714222E+03  0.15318960821E+03  0.47000000000E+01 0.  1.
          5    1    5    5  503    0 -0.23961577441E+02  0.53010194839E+02 -0.22835846607E+02  0.62672193520E+02  0.47000000000E+01 0. -1.
         -5    1    5    5    0  503  0.57244399404E+02 -0.38897694814E+02 -0.13638546268E+03  0.15301319014E+03  0.47000000000E+01 0. -1.
<mgrwt>
<rscale>  0 0.27396471E+03</rscale>
<asrwt>0</asrwt>
<pdfrwt beam="1">  1        2 0.52855330E-01 0.27396471E+03</pdfrwt>
<pdfrwt beam="2">  1       -2 0.84026015E-02 0.27396471E+03</pdfrwt>
<totfact> 0.81924750E+03</totfact>
</mgrwt>
</event>
<event>
 9    1  0.2073852E-002  0.2774792E+03  0.7818608E-02  0.1097074E+00
         -3   -1    0    0    0  501 -0.00000000000E+00  0.00000000000E+00  0.86957305491E+02  0.86957305491E+02  0.00000000000E+00 0.  1.
          3   -1    0    0  501    0  0.00000000000E+00 -0.00000000000E+00 -0.22135770638E+03  0.22135770638E+03  0.00000000000E+00 0.  1.
         36    2    1    2    0    0 -0.35527136788E-14  0.71054273576E-14 -0.13440040089E+03  0.30831501187E+03  0.27747915018E+03 0.  0.
         25    2    3    3    0    0  0.19032865400E+02 -0.48938600308E+02 -0.10334976904E+03  0.17060468661E+03  0.12517007537E+03 0.  0.
         25    2    3    3    0    0 -0.19032865400E+02  0.48938600308E+02 -0.31050631845E+02  0.13771032526E+03  0.12346155425E+03 0.  0.
          5    1    4    4  502    0  0.37342163384E+02  0.23638135893E+02 -0.80924282384E+02  0.92325663355E+02  0.47000000000E+01 0.  1.
         -5    1    4    4    0  502 -0.18309297984E+02 -0.72576736201E+02 -0.22425486657E+02  0.78279023257E+02  0.47000000000E+01 0.  1.
          5    1    5    5  503    0  0.14005033141E+02  0.80359545775E+02  0.11168863236E+01  0.81713738046E+02  0.47000000000E+01 0. -1.
         -5    1    5    5    0  503 -0.33037898541E+02 -0.31420945467E+02 -0.32167518169E+02  0.55996587210E+02  0.47000000000E+01 0. -1.
<mgrwt>
<rscale>  0 0.27747915E+03</rscale>
<asrwt>0</asrwt>
<pdfrwt beam="1">  1        3 0.34055031E-01 0.27747915E+03</pdfrwt>
<pdfrwt beam="2">  1       -3 0.13378047E-01 0.27747915E+03</pdfrwt>
<totfact> 0.97264953E+02</totfact>
</mgrwt>
</event>
<event>
 9    1  0.2073852E-002  0.2747453E+03  0.7818608E-02  0.1098594E+00
         -2   -1    0    0    0  501 -0.00000000000E+00  0.00000000000E+00  0.21586053734E+02  0.21586053734E+02  0.00000000000E+00 0.  1.
          2   -1    0    0  501    0  0.00000000000E+00 -0.00000000000E+00 -0.87423312422E+03  0.87423312422E+03  0.00000000000E+00 0.  1.
         36    2    1    2    0    0  0.00000000000E+00 -0.14210854715E-13 -0.85264707049E+03  0.89581917795E+03  0.27474528710E+03 0.  0.
         25    2    3    3    0    0 -0.74601400616E+01 -0.54968492102E+02 -0.39797636742E+03  0.42068632135E+03  0.12455762974E+03 0.  0.
         25    2    3    3    0    0  0.74601400616E+01  0.54968492102E+02 -0.45467070306E+03  0.47513285661E+03  0.12628774442E+03 0.  0.
          5    1    4    4  502    0 -0.11246690460E+02 -0.56192125049E+02 -0.40629095272E+03  0.41033945853E+03  0.47000000000E+01 0.  1.
         -5    1    4    4    0  502  0.37865503980E+01  0.12236329464E+01  0.83145852968E+01  0.10346862817E+02  0.47000000000E+01 0.  1.
          5    1    5    5  503    0  0.16741561315E+02 -0.23691907071E+02 -0.29867693152E+03  0.30011928588E+03  0.47000000000E+01 0.  1.
         -5    1    5    5    0  503 -0.92814212529E+01  0.78660399174E+02 -0.15599377155E+03  0.17501357073E+03  0.47000000000E+01 0.  1.
<mgrwt>
<rscale>  0 0.27474529E+03</rscale>
<asrwt>0</asrwt>
<pdfrwt beam="1">  1        2 0.13449744E+00 0.27474529E+03</pdfrwt>
<pdfrwt beam="2">  1       -2 0.33209305E-02 0.27474529E+03</pdfrwt>
<totfact> 0.11454037E+04</totfact>
</mgrwt>
</event>
<event>
 9    1  0.2073852E-002  0.2736896E+03  0.7818608E-02  0.1099186E+00
          1   -1    0    0  501    0  0.00000000000E+00  0.00000000000E+00  0.30935973362E+03  0.30935973362E+03  0.00000000000E+00 0. -1.
         -1   -1    0    0    0  501 -0.00000000000E+00 -0.00000000000E+00 -0.60533079117E+02  0.60533079117E+02  0.00000000000E+00 0. -1.
         36    2    1    2    0    0 -0.14210854715E-13  0.00000000000E+00  0.24882665450E+03  0.36989281274E+03  0.27368958497E+03 0.  0.
         25    2    3    3    0    0  0.42108883261E+02  0.20263484224E+02  0.17581674031E+03  0.21977650915E+03  0.12331431773E+03 0.  0.
         25    2    3    3    0    0 -0.42108883261E+02 -0.20263484224E+02  0.73009914194E+02  0.15011630359E+03  0.12255892538E+03 0.  0.
          5    1    4    4  502    0  0.28757833831E+02  0.71520658084E+02  0.11983766713E+03  0.14256708597E+03  0.47000000000E+01 0. -1.
         -5    1    4    4    0  502  0.13351049430E+02 -0.51257173860E+02  0.55979073182E+02  0.77209423177E+02  0.47000000000E+01 0. -1.
          5    1    5    5  503    0 -0.35722820745E+02 -0.90085228133E+01  0.10709693541E+03  0.11335394558E+03  0.47000000000E+01 0.  1.
         -5    1    5    5    0  503 -0.63860625153E+01 -0.11254961411E+02 -0.34087021216E+02  0.36762358006E+02  0.47000000000E+01 0.  1.
<mgrwt>
<rscale>  0 0.27368958E+03</rscale>
<asrwt>0</asrwt>
<pdfrwt beam="1">  1        1 0.47593805E-01 0.27368958E+03</pdfrwt>
<pdfrwt beam="2">  1       -1 0.93127815E-02 0.27368958E+03</pdfrwt>
<totfact> 0.56979814E+03</totfact>
</mgrwt>
</event>
<event>
 9    1  0.2073852E-002  0.2749597E+03  0.7818608E-02  0.1098474E+00
          3   -1    0    0  501    0  0.00000000000E+00  0.00000000000E+00  0.25729495398E+03  0.25729495398E+03  0.00000000000E+00 0. -1.
         -3   -1    0    0    0  501 -0.00000000000E+00 -0.00000000000E+00 -0.73459309011E+02  0.73459309011E+02  0.00000000000E+00 0. -1.
         36    2    1    2    0    0  0.71054273576E-14  0.00000000000E+00  0.18383564496E+03  0.33075426299E+03  0.27495970273E+03 0.  0.
         25    2    3    3    0    0  0.43549236574E+01 -0.47031950525E+02  0.44145684182E+02  0.13953633169E+03  0.12365507147E+03 0.  0.
         25    2    3    3    0    0 -0.43549236574E+01  0.47031950525E+02  0.13968996078E+03  0.19121793130E+03  0.12173759639E+03 0.  0.
          5    1    4    4  502    0  0.44103015071E+02 -0.47941475969E+02 -0.16039217186E+02  0.67251821867E+02  0.47000000000E+01 0. -1.
         -5    1    4    4    0  502 -0.39748091414E+02  0.90952544373E+00  0.60184901368E+02  0.72284509823E+02  0.47000000000E+01 0. -1.
          5    1    5    5  503    0  0.22037330033E+02  0.61689066170E+02  0.21442773882E+02  0.69087389237E+02  0.47000000000E+01 0.  1.
         -5    1    5    5    0  503 -0.26392253691E+02 -0.14657115645E+02  0.11824718690E+03  0.12213054206E+03  0.47000000000E+01 0.  1.
<mgrwt>
<rscale>  0 0.27495970E+03</rscale>
<asrwt>0</asrwt>
<pdfrwt beam="1">  1        3 0.39583839E-01 0.27495970E+03</pdfrwt>
<pdfrwt beam="2">  1       -3 0.11301432E-01 0.27495970E+03</pdfrwt>
<totfact> 0.96904242E+02</totfact>
</mgrwt>
</event>
<event>
 9    1  0.2073852E-002  0.2745297E+03  0.7818608E-02  0.1098715E+00
          1   -1    0    0  501    0  0.00000000000E+00  0.00000000000E+00  0.79318591441E+03  0.79318591441E+03  0.00000000000E+00 0.  1.
         -1   -1    0    0    0  501 -0.00000000000E+00 -0.00000000000E+00 -0.23754386362E+02  0.23754386362E+02  0.00000000000E+00 0.  1.
         36    2    1    2    0    0  0.00000000000E+00 -0.71054273576E-14  0.76943152804E+03  0.81694030077E+03  0.27452974096E+03 0.  0.
         25    2    3    3    0    0 -0.13578394010E+02  0.73464785946E+01  0.43556818295E+03  0.46014254015E+03  0.14755735062E+03 0.  0.
         25    2    3    3    0    0  0.13578394010E+02 -0.73464785946E+01  0.33386334509E+03  0.35679776062E+03  0.12490622584E+03 0.  0.
          5    1    4    4  502    0  0.58490227921E+01 -0.57562509639E+02  0.84203027494E+02  0.10227362037E+03  0.47000000000E+01 0. -1.
         -5    1    4    4    0  502 -0.19427416802E+02  0.64908988233E+02  0.35136515546E+03  0.35786891978E+03  0.47000000000E+01 0. -1.
          5    1    5    5  503    0  0.25236933052E+02 -0.63403573272E+02  0.17999967289E+03  0.19255879137E+03  0.47000000000E+01 0.  1.
         -5    1    5    5    0  503 -0.11658539042E+02  0.56057094677E+02  0.15386367220E+03  0.16423896924E+03  0.47000000000E+01 0.  1.
<mgrwt>
<rscale>  0 0.27452974E+03</rscale>
<asrwt>0</asrwt>
<pdfrwt beam="1">  1        1 0.12202858E+00 0.27452974E+03</pdfrwt>
<pdfrwt beam="2">  1       -1 0.36545216E-02 0.27452974E+03</pdfrwt>
<totfact> 0.65568106E+03</totfact>
</mgrwt>
</event>
<event>
 9    1  0.2073852E-002  0.2787580E+03  0.7818608E-02  0.1096369E+00
          4   -1    0    0  501    0  0.00000000000E+00  0.00000000000E+00  0.81084886265E+03  0.81084886265E+03  0.00000000000E+00 0. -1.
         -4   -1    0    0    0  501 -0.00000000000E+00 -0.00000000000E+00 -0.23958226713E+02  0.23958226713E+02  0.00000000000E+00 0. -1.
         36    2    1    2    0    0  0.35527136788E-14  0.35527136788E-14  0.78689063594E+03  0.83480708936E+03  0.27875796585E+03 0.  0.
         25    2    3    3    0    0 -0.73905361312E+01 -0.12285671524E+02  0.20552605523E+03  0.24009717613E+03  0.12328883510E+03 0.  0.
         25    2    3    3    0    0  0.73905361312E+01  0.12285671524E+02  0.58136458071E+03  0.59470991323E+03  0.12445701042E+03 0.  0.
          5    1    4    4  502    0  0.96377949405E+01 -0.42977202272E+02  0.19927368041E+03  0.20413724969E+03  0.47000000000E+01 0.  1.
         -5    1    4    4    0  502 -0.17028331072E+02  0.30691530748E+02  0.62523748167E+01  0.35959926440E+02  0.47000000000E+01 0.  1.
          5    1    5    5  503    0 -0.45145612831E+02 -0.31431313878E+02  0.21366270564E+03  0.22068052844E+03  0.47000000000E+01 0.  1.
         -5    1    5    5    0  503  0.52536148962E+02  0.43716985402E+02  0.36770187506E+03  0.37402938479E+03  0.47000000000E+01 0.  1.
<mgrwt>
<rscale>  0 0.27875797E+03</rscale>
<asrwt>0</asrwt>
<pdfrwt beam="1">  1        4 0.12474596E+00 0.27875797E+03</pdfrwt>
<pdfrwt beam="2">  1       -4 0.36858817E-02 0.27875797E+03</pdfrwt>
<totfact> 0.36730870E+02</totfact>
</mgrwt>
</event>
<event>
 9    1  0.2073852E-002  0.2711749E+03  0.7818608E-02  0.1100609E+00
         -2   -1    0    0    0  501 -0.00000000000E+00  0.00000000000E+00  0.24590834679E+02  0.24590834679E+02  0.00000000000E+00 0. -1.
          2   -1    0    0  501    0  0.00000000000E+00 -0.00000000000E+00 -0.74759378552E+03  0.74759378552E+03  0.00000000000E+00 0. -1.
         36    2    1    2    0    0 -0.53290705182E-14  0.00000000000E+00 -0.72300295084E+03  0.77218462020E+03  0.27117488959E+03 0.  0.
         25    2    3    3    0    0 -0.49159783458E+01 -0.48909815133E+02 -0.54345414528E+03  0.55978412869E+03  0.12489806184E+03 0.  0.
         25    2    3    3    0    0  0.49159783458E+01  0.48909815133E+02 -0.17954880557E+03  0.21240049152E+03  0.10227344893E+03 0.  0.
          5    1    4    4  502    0 -0.62061471597E+00 -0.61092573481E+02 -0.54255950269E+03  0.54600878350E+03  0.47000000000E+01 0.  1.
         -5    1    4    4    0  502 -0.42953636299E+01  0.12182758348E+02 -0.89464258509E+00  0.13775345188E+02  0.47000000000E+01 0.  1.
          5    1    5    5  503    0  0.43311410801E+02  0.58757134967E+02 -0.10733110113E+03  0.12988585175E+03  0.47000000000E+01 0. -1.
         -5    1    5    5    0  503 -0.38395432455E+02 -0.98473198340E+01 -0.72217704435E+02  0.82514639762E+02  0.47000000000E+01 0. -1.
<mgrwt>
<rscale>  0 0.27117489E+03</rscale>
<asrwt>0</asrwt>
<pdfrwt beam="1">  1        2 0.11501442E+00 0.27117489E+03</pdfrwt>
<pdfrwt beam="2">  1       -2 0.37832055E-02 0.27117489E+03</pdfrwt>
<totfact> 0.11506539E+04</totfact>
</mgrwt>
</event>
<event>
 9    1  0.2073852E-002  0.2755377E+03  0.7818608E-02  0.1098151E+00
         -2   -1    0    0    0  501 -0.00000000000E+00  0.00000000000E+00  0.88001535964E+02  0.88001535964E+02  0.00000000000E+00 0. -1.
          2   -1    0    0  501    0  0.00000000000E+00 -0.00000000000E+00 -0.21568100996E+03  0.21568100996E+03  0.00000000000E+00 0. -1.
         36    2    1    2    0    0  0.71054273576E-14  0.00000000000E+00 -0.12767947399E+03  0.30368254592E+03  0.27553772994E+03 0.  0.
         25    2    3    3    0    0  0.39592886915E+02 -0.21606730220E+02 -0.58097167215E+02  0.15485038535E+03  0.13626780074E+03 0.  0.
         25    2    3    3    0    0 -0.39592886915E+02  0.21606730220E+02 -0.69582306778E+02  0.14883216058E+03  0.12359153337E+03 0.  0.
          5    1    4    4  502    0  0.85318823837E+01 -0.38634269394E+02 -0.95283674664E+02  0.10327859626E+03  0.47000000000E+01 0. -1.
         -5    1    4    4    0  502  0.31061004531E+02  0.17027539174E+02  0.37186507449E+02  0.51571789082E+02  0.47000000000E+01 0. -1.
          5    1    5    5  503    0  0.23767454622E+02  0.20384161810E+02 -0.78517324106E+02  0.84660889061E+02  0.47000000000E+01 0. -1.
         -5    1    5    5    0  503 -0.63360341537E+02  0.12225684102E+01  0.89350173273E+01  0.64171271515E+02  0.47000000000E+01 0. -1.
<mgrwt>
<rscale>  0 0.27553773E+03</rscale>
<asrwt>0</asrwt>
<pdfrwt beam="1">  1        2 0.33181694E-01 0.27553773E+03</pdfrwt>
<pdfrwt beam="2">  1       -2 0.13538698E-01 0.27553773E+03</pdfrwt>
<totfact> 0.63165098E+03</totfact>
</mgrwt>
</event>
<event>
 9    1  0.2073852E-002  0.2729182E+03  0.7818608E-02  0.1099621E+00
         -2   -1    0    0    0  501 -0.00000000000E+00  0.00000000000E+00  0.64972174164E+02  0.64972174164E+02  0.00000000000E+00 0.  1.
          2   -1    0    0  501    0  0.00000000000E+00 -0.00000000000E+00 -0.28660098389E+03  0.28660098389E+03  0.00000000000E+00 0.  1.
         36    2    1    2    0    0  0.00000000000E+00 -0.71054273576E-14 -0.22162880972E+03  0.35157315805E+03  0.27291822248E+03 0.  0.
         25    2    3    3    0    0  0.13371959699E+02 -0.38845541460E+02 -0.16482788521E+03  0.21016960872E+03  0.12375478693E+03 0.  0.
         25    2    3    3    0    0 -0.13371959699E+02  0.38845541460E+02 -0.56800924512E+02  0.14140354933E+03  0.12280404448E+03 0.  0.
          5    1    4    4  502    0 -0.43162315380E+02  0.18941022698E+02 -0.79430613968E+02  0.92482756475E+02  0.47000000000E+01 0. -1.
         -5    1    4    4    0  502  0.56534275079E+02 -0.57786564158E+02 -0.85397271243E+02  0.11768685225E+03  0.47000000000E+01 0. -1.
          5    1    5    5  503    0  0.45414288714E+02  0.43874234035E+02 -0.52153678182E+02  0.82033543014E+02  0.47000000000E+01 0.  1.
         -5    1    5    5    0  503 -0.58786248413E+02 -0.50286925751E+01 -0.46472463307E+01  0.59370006316E+02  0.47000000000E+01 0.  1.
<mgrwt>
<rscale>  0 0.27291822E+03</rscale>
<asrwt>0</asrwt>
<pdfrwt beam="1">  1        2 0.44092460E-01 0.27291822E+03</pdfrwt>
<pdfrwt beam="2">  1       -2 0.99957189E-02 0.27291822E+03</pdfrwt>
<totfact> 0.75694861E+03</totfact>
</mgrwt>
</event>
<event>
 9    1  0.2073852E-002  0.2629302E+03  0.7818608E-02  0.1105395E+00
          1   -1    0    0  501    0  0.00000000000E+00  0.00000000000E+00  0.21634916664E+04  0.21634916664E+04  0.00000000000E+00 0.  1.
         -1   -1    0    0    0  501 -0.00000000000E+00 -0.00000000000E+00 -0.79885117104E+01  0.79885117104E+01  0.00000000000E+00 0.  1.
         36    2    1    2    0    0  0.00000000000E+00 -0.71054273576E-14  0.21555031547E+04  0.21714801781E+04  0.26293024560E+03 0.  0.
         25    2    3    3    0    0 -0.14370075161E+02  0.37256833909E+02  0.93168588320E+03  0.94090813413E+03  0.12519968524E+03 0.  0.
         25    2    3    3    0    0  0.14370075161E+02 -0.37256833909E+02  0.12238172715E+04  0.12305720440E+04  0.12241025569E+03 0.  0.
          5    1    4    4  502    0  0.34385522839E+02  0.32558185867E+01  0.72383602648E+03  0.72467485658E+03  0.47000000000E+01 0.  1.
         -5    1    4    4    0  502 -0.48755598000E+02  0.34001015323E+02  0.20784985672E+03  0.21623327754E+03  0.47000000000E+01 0.  1.
          5    1    5    5  503    0  0.34343982502E+02 -0.33704443608E+02  0.11891388890E+04  0.11901213745E+04  0.47000000000E+01 0. -1.
         -5    1    5    5    0  503 -0.19973907340E+02 -0.35523903015E+01  0.34678382491E+02  0.40450669506E+02  0.47000000000E+01 0. -1.
<mgrwt>
<rscale>  0 0.26293025E+03</rscale>
<asrwt>0</asrwt>
<pdfrwt beam="1">  1        1 0.33284441E+00 0.26293025E+03</pdfrwt>
<pdfrwt beam="2">  1       -1 0.12290035E-02 0.26293025E+03</pdfrwt>
<totfact> 0.36832250E+03</totfact>
</mgrwt>
</event>
<event>
 9    1  0.2073852E-002  0.2751561E+03  0.7818608E-02  0.1098364E+00
         -2   -1    0    0    0  501 -0.00000000000E+00  0.00000000000E+00  0.10911222432E+03  0.10911222432E+03  0.00000000000E+00 0. -1.
          2   -1    0    0  501    0  0.00000000000E+00 -0.00000000000E+00 -0.17347014312E+03  0.17347014312E+03  0.00000000000E+00 0. -1.
         36    2    1    2    0    0  0.00000000000E+00  0.35527136788E-14 -0.64357918801E+02  0.28258236744E+03  0.27515605149E+03 0.  0.
         25    2    3    3    0    0  0.32149944427E+01  0.17027348478E+02 -0.84455191716E+02  0.15383602931E+03  0.12740713372E+03 0.  0.
         25    2    3    3    0    0 -0.32149944427E+01 -0.17027348478E+02  0.20097272915E+02  0.12874633812E+03  0.12598195274E+03 0.  0.
          5    1    4    4  502    0  0.37455560153E+02  0.34493272929E+02  0.96834307027E+01  0.52043863172E+02  0.47000000000E+01 0.  1.
         -5    1    4    4    0  502 -0.34240565710E+02 -0.17465924451E+02 -0.94138622419E+02  0.10179216614E+03  0.47000000000E+01 0.  1.
          5    1    5    5  503    0 -0.22484892050E+02 -0.66001914598E+02  0.28066039886E+02  0.75310130102E+02  0.47000000000E+01 0. -1.
         -5    1    5    5    0  503  0.19269897607E+02  0.48974566119E+02 -0.79687669714E+01  0.53436208019E+02  0.47000000000E+01 0. -1.
<mgrwt>
<rscale>  0 0.27515605E+03</rscale>
<asrwt>0</asrwt>
<pdfrwt beam="1">  1        2 0.26687714E-01 0.27515605E+03</pdfrwt>
<pdfrwt beam="2">  1       -2 0.16786496E-01 0.27515605E+03</pdfrwt>
<totfact> 0.56232691E+03</totfact>
</mgrwt>
</event>
<event>
 9    1  0.2073852E-002  0.2737237E+03  0.7818608E-02  0.1099167E+00
         -2   -1    0    0    0  501 -0.00000000000E+00  0.00000000000E+00  0.34183741965E+02  0.34183741965E+02  0.00000000000E+00 0. -1.
          2   -1    0    0  501    0  0.00000000000E+00 -0.00000000000E+00 -0.54795547824E+03  0.54795547824E+03  0.00000000000E+00 0. -1.
         36    2    1    2    0    0  0.00000000000E+00 -0.35527136788E-14 -0.51377173627E+03  0.58213922020E+03  0.27372371966E+03 0.  0.
         25    2    3    3    0    0 -0.49328922083E+02 -0.28933721831E+02 -0.24199523550E+03  0.27748073894E+03  0.12313961046E+03 0.  0.
         25    2    3    3    0    0  0.49328922083E+02  0.28933721831E+02 -0.27177650078E+03  0.30465848126E+03  0.12523506306E+03 0.  0.
          5    1    4    4  502    0 -0.24635169810E+02 -0.76916291853E+02 -0.13089096912E+03  0.15387509006E+03  0.47000000000E+01 0. -1.
         -5    1    4    4    0  502 -0.24693752273E+02  0.47982570022E+02 -0.11110426637E+03  0.12360564888E+03  0.47000000000E+01 0. -1.
          5    1    5    5  503    0  0.17451239308E+01 -0.27640476357E+02 -0.59636755019E+01  0.28717534997E+02  0.47000000000E+01 0. -1.
         -5    1    5    5    0  503  0.47583798153E+02  0.56574198188E+02 -0.26581282527E+03  0.27594094627E+03  0.47000000000E+01 0. -1.
<mgrwt>
<rscale>  0 0.27372372E+03</rscale>
<asrwt>0</asrwt>
<pdfrwt beam="1">  1        2 0.84300849E-01 0.27372372E+03</pdfrwt>
<pdfrwt beam="2">  1       -2 0.52590368E-02 0.27372372E+03</pdfrwt>
<totfact> 0.10106487E+04</totfact>
</mgrwt>
</event>
<event>
 8    1  0.2073852E-002  0.2987716E+03  0.7818608E-02  0.1085856E+00
         -2   -1    0    0    0  501 -0.00000000000E+00  0.00000000000E+00  0.40473331863E+02  0.40473331863E+02  0.00000000000E+00 0.  1.
          2   -1    0    0  501    0  0.00000000000E+00 -0.00000000000E+00 -0.55137821819E+03  0.55137821819E+03  0.00000000000E+00 0.  1.
         25    2    1    2    0    0 -0.45821954888E+02  0.67748218585E+02 -0.22155415909E+03  0.26714251662E+03  0.12485754325E+03 0.  0.
         25    2    1    2    0    0  0.45821954888E+02 -0.67748218585E+02 -0.28935072724E+03  0.32470903343E+03  0.12256688119E+03 0.  0.
          5    1    3    3  502    0 -0.67274843339E+02 -0.61385258758E+01 -0.13638631895E+03  0.15227246647E+03  0.47000000000E+01 0. -1.
         -5    1    3    3    0  502  0.21452888451E+02  0.73886744460E+02 -0.85167840137E+02  0.11487005016E+03  0.47000000000E+01 0. -1.
          5    1    4    4  503    0  0.69471306019E+02 -0.85000153780E+02 -0.26304944609E+03  0.28507611192E+03  0.47000000000E+01 0. -1.
         -5    1    4    4    0  503 -0.23649351130E+02  0.17251935195E+02 -0.26301281150E+02  0.39632921504E+02  0.47000000000E+01 0. -1.
<mgrwt>
<rscale>  0 0.29877158E+03</rscale>
<asrwt>0</asrwt>
<pdfrwt beam="1">  1        2 0.84827414E-01 0.29877158E+03</pdfrwt>
<pdfrwt beam="2">  1       -2 0.62266667E-02 0.29877158E+03</pdfrwt>
<totfact> 0.77705897E+03</totfact>
</mgrwt>
</event>
<event>
 9    1  0.2073852E-002  0.2752502E+03  0.7818608E-02  0.1098312E+00
         -1   -1    0    0    0  501 -0.00000000000E+00  0.00000000000E+00  0.18183998197E+02  0.18183998197E+02  0.00000000000E+00 0.  1.
          1   -1    0    0  501    0  0.00000000000E+00 -0.00000000000E+00 -0.10416117699E+04  0.10416117699E+04  0.00000000000E+00 0.  1.
         36    2    1    2    0    0  0.00000000000E+00 -0.71054273576E-14 -0.10234277717E+04  0.10597957681E+04  0.27525018834E+03 0.  0.
         25    2    3    3    0    0 -0.30309189222E+02  0.45521549219E+02 -0.51721548377E+03  0.53502853575E+03  0.12551023474E+03 0.  0.
         25    2    3    3    0    0  0.30309189222E+02 -0.45521549219E+02 -0.50621228791E+03  0.52476723232E+03  0.12703900697E+03 0.  0.
          5    1    4    4  502    0  0.38426774504E+02 -0.15625417276E+02 -0.11342877805E+03  0.12086748262E+03  0.47000000000E+01 0.  1.
         -5    1    4    4    0  502 -0.68735963726E+02  0.61146966495E+02 -0.40378670571E+03  0.41416105313E+03  0.47000000000E+01 0.  1.
          5    1    5    5  503    0  0.54507654092E+02  0.27233094275E+02 -0.20513625089E+03  0.21404601656E+03  0.47000000000E+01 0. -1.
         -5    1    5    5    0  503 -0.24198464870E+02 -0.72754643493E+02 -0.30107603702E+03  0.31072121576E+03  0.47000000000E+01 0. -1.
<mgrwt>
<rscale>  0 0.27525019E+03</rscale>
<asrwt>0</asrwt>
<pdfrwt beam="1">  1        1 0.16024793E+00 0.27525019E+03</pdfrwt>
<pdfrwt beam="2">  1       -1 0.27975388E-02 0.27525019E+03</pdfrwt>
<totfact> 0.62241541E+03</totfact>
</mgrwt>
</event>
<event>
 9    1  0.2073852E-002  0.2742928E+03  0.7818608E-02  0.1098848E+00
          1   -1    0    0  501    0  0.00000000000E+00  0.00000000000E+00  0.12396985231E+04  0.12396985231E+04  0.00000000000E+00 0. -1.
         -1   -1    0    0    0  501 -0.00000000000E+00 -0.00000000000E+00 -0.15172343264E+02  0.15172343264E+02  0.00000000000E+00 0. -1.
         36    2    1    2    0    0  0.00000000000E+00  0.17763568394E-14  0.12245261799E+04  0.12548708664E+04  0.27429277451E+03 0.  0.
         25    2    3    3    0    0  0.81448504032E+02 -0.10417173235E+02  0.62028325909E+03  0.63274848339E+03  0.94217543012E+02 0.  0.
         25    2    3    3    0    0 -0.81448504032E+02  0.10417173235E+02  0.60424292077E+03  0.62212238300E+03  0.12322489937E+03 0.  0.
          5    1    4    4  502    0  0.25616470992E+01 -0.11314203326E+02  0.37156340495E+03  0.37177416146E+03  0.47000000000E+01 0. -1.
         -5    1    4    4    0  502  0.78886856933E+02  0.89703009115E+00  0.24871985414E+03  0.26097432193E+03  0.47000000000E+01 0. -1.
          5    1    5    5  503    0 -0.20417517312E+02  0.83646394989E+00  0.76487269303E+01  0.22319670893E+02  0.47000000000E+01 0.  1.
         -5    1    5    5    0  503 -0.61030986719E+02  0.95807092847E+01  0.59659419384E+03  0.59980271211E+03  0.47000000000E+01 0.  1.
<mgrwt>
<rscale>  0 0.27429277E+03</rscale>
<asrwt>0</asrwt>
<pdfrwt beam="1">  1        1 0.19072277E+00 0.27429277E+03</pdfrwt>
<pdfrwt beam="2">  1       -1 0.23342076E-02 0.27429277E+03</pdfrwt>
<totfact> 0.58681371E+03</totfact>
</mgrwt>
</event>
<event>
 9    1  0.2073852E-002  0.2766823E+03  0.7818608E-02  0.1097515E+00
         -1   -1    0    0    0  501 -0.00000000000E+00  0.00000000000E+00  0.97389446099E+02  0.97389446099E+02  0.00000000000E+00 0.  1.
          1   -1    0    0  501    0  0.00000000000E+00 -0.00000000000E+00 -0.19651285645E+03  0.19651285645E+03  0.00000000000E+00 0.  1.
         36    2    1    2    0    0  0.00000000000E+00  0.00000000000E+00 -0.99123410353E+02  0.29390230255E+03  0.27668233222E+03 0.  0.
         25    2    3    3    0    0 -0.31461785296E+02 -0.35050988151E+02 -0.17009319986E+01  0.12637842241E+03  0.11726123305E+03 0.  0.
         25    2    3    3    0    0  0.31461785296E+02  0.35050988151E+02 -0.97422478355E+02  0.16752388014E+03  0.12788547777E+03 0.  0.
          5    1    4    4  502    0 -0.14304141951E+02  0.17875406810E+02 -0.48296399856E+02  0.53654178631E+02  0.47000000000E+01 0. -1.
         -5    1    4    4    0  502 -0.17157643346E+02 -0.52926394961E+02  0.46595467857E+02  0.72724243782E+02  0.47000000000E+01 0. -1.
          5    1    5    5  503    0  0.55674721109E+02 -0.12372979456E+02 -0.98659475651E+02  0.11405501886E+03  0.47000000000E+01 0.  1.
         -5    1    5    5    0  503 -0.24212935813E+02  0.47423967607E+02  0.12369972963E+01  0.53468861280E+02  0.47000000000E+01 0.  1.
<mgrwt>
<rscale>  0 0.27668233E+03</rscale>
<asrwt>0</asrwt>
<pdfrwt beam="1">  1        1 0.30232747E-01 0.27668233E+03</pdfrwt>
<pdfrwt beam="2">  1       -1 0.14982992E-01 0.27668233E+03</pdfrwt>
<totfact> 0.47982752E+03</totfact>
</mgrwt>
</event>
<event>
 9    1  0.2073852E-002  0.2648409E+03  0.7818608E-02  0.1104269E+00
          2   -1    0    0  501    0  0.00000000000E+00  0.00000000000E+00  0.26215208022E+04  0.26215208022E+04  0.00000000000E+00 0. -1.
         -2   -1    0    0    0  501 -0.00000000000E+00 -0.00000000000E+00 -0.66889336474E+01  0.66889336474E+01  0.00000000000E+00 0. -1.
         36    2    1    2    0    0 -0.71054273576E-14  0.35527136788E-14  0.26148318685E+04  0.26282097358E+04  0.26484092358E+03 0.  0.
         25    2    3    3    0    0  0.40760989062E+02 -0.29593788347E+02  0.13980929650E+04  0.14041724351E+04  0.12041195197E+03 0.  0.
         25    2    3    3    0    0 -0.40760989062E+02  0.29593788347E+02  0.12167389036E+04  0.12240373008E+04  0.12359815396E+03 0.  0.
          5    1    4    4  502    0 -0.42013445121E+02  0.62041568098E+00  0.44987251309E+03  0.45185493526E+03  0.47000000000E+01 0. -1.
         -5    1    4    4    0  502  0.82774434182E+02 -0.30214204028E+02  0.94822045186E+03  0.95231749979E+03  0.47000000000E+01 0. -1.
          5    1    5    5  503    0 -0.37549178893E+02  0.79490504666E+00  0.10017126710E+03  0.10708382446E+03  0.47000000000E+01 0. -1.
         -5    1    5    5    0  503 -0.32118101685E+01  0.28798883300E+02  0.11165676365E+04  0.11169534763E+04  0.47000000000E+01 0. -1.
<mgrwt>
<rscale>  0 0.26484092E+03</rscale>
<asrwt>0</asrwt>
<pdfrwt beam="1">  1        2 0.40331007E+00 0.26484092E+03</pdfrwt>
<pdfrwt beam="2">  1       -2 0.10290688E-02 0.26484092E+03</pdfrwt>
<totfact> 0.70277058E+03</totfact>
</mgrwt>
</event>
<event>
 9    1  0.2073852E-002  0.2660153E+03  0.7818608E-02  0.1103582E+00
         -4   -1    0    0    0  501 -0.00000000000E+00  0.00000000000E+00  0.34413266424E+02  0.34413266424E+02  0.00000000000E+00 0. -1.
          4   -1    0    0  501    0  0.00000000000E+00 -0.00000000000E+00 -0.51407605767E+03  0.51407605767E+03  0.00000000000E+00 0. -1.
         36    2    1    2    0    0  0.17763568394E-14  0.00000000000E+00 -0.47966279124E+03  0.54848932409E+03  0.26601531035E+03 0.  0.
         25    2    3    3    0    0 -0.63597700219E+01  0.15595235268E+02 -0.27755327610E+03  0.30441484222E+03  0.12389074643E+03 0.  0.
         25    2    3    3    0    0  0.63597700219E+01 -0.15595235268E+02 -0.20210951514E+03  0.24407448187E+03  0.13579557634E+03 0.  0.
          5    1    4    4  502    0 -0.70085031222E+01  0.64157113098E+02 -0.91498182120E+02  0.11206811147E+03  0.47000000000E+01 0. -1.
         -5    1    4    4    0  502  0.64873310025E+00 -0.48561877830E+02 -0.18605509398E+03  0.19234673075E+03  0.47000000000E+01 0. -1.
          5    1    5    5  503    0  0.61364006825E+02 -0.36170152308E+02 -0.14693658399E+03  0.16335933082E+03  0.47000000000E+01 0. -1.
         -5    1    5    5    0  503 -0.55004236803E+02  0.20574917040E+02 -0.55172931149E+02  0.80715151050E+02  0.47000000000E+01 0. -1.
<mgrwt>
<rscale>  0 0.26601531E+03</rscale>
<asrwt>0</asrwt>
<pdfrwt beam="1">  1        4 0.79088615E-01 0.26601531E+03</pdfrwt>
<pdfrwt beam="2">  1       -4 0.52943493E-02 0.26601531E+03</pdfrwt>
<totfact> 0.59164243E+02</totfact>
</mgrwt>
</event>
<event>
 9    1  0.2073852E-002  0.2774866E+03  0.7818608E-02  0.1097070E+00
         -2   -1    0    0    0  501 -0.00000000000E+00  0.00000000000E+00  0.18548342992E+02  0.18548342992E+02  0.00000000000E+00 0.  1.
          2   -1    0    0  501    0  0.00000000000E+00 -0.00000000000E+00 -0.10378121872E+04  0.10378121872E+04  0.00000000000E+00 0.  1.
         36    2    1    2    0    0  0.00000000000E+00  0.00000000000E+00 -0.10192638443E+04  0.10563605302E+04  0.27748655038E+03 0.  0.
         25    2    3    3    0    0  0.33250144905E+02  0.45790683904E+02 -0.41764563300E+03  0.43964715555E+03  0.12513747543E+03 0.  0.
         25    2    3    3    0    0 -0.33250144905E+02 -0.45790683904E+02 -0.60161821126E+03  0.61671337468E+03  0.12324185786E+03 0.  0.
          5    1    4    4  502    0  0.60670987792E+02  0.11996174665E+02 -0.36912444651E+03  0.37429911031E+03  0.47000000000E+01 0.  1.
         -5    1    4    4    0  502 -0.27420842887E+02  0.33794509239E+02 -0.48521186485E+02  0.65348045244E+02  0.47000000000E+01 0.  1.
          5    1    5    5  503    0 -0.78420318122E+02 -0.27630746366E+02 -0.44172685492E+03  0.44950851916E+03  0.47000000000E+01 0. -1.
         -5    1    5    5    0  503  0.45170173217E+02 -0.18159937538E+02 -0.15989135634E+03  0.16720485553E+03  0.47000000000E+01 0. -1.
<mgrwt>
<rscale>  0 0.27748655E+03</rscale>
<asrwt>0</asrwt>
<pdfrwt beam="1">  1        2 0.15966337E+00 0.27748655E+03</pdfrwt>
<pdfrwt beam="2">  1       -2 0.28535919E-02 0.27748655E+03</pdfrwt>
<totfact> 0.11340201E+04</totfact>
</mgrwt>
</event>
<event>
 9    1  0.2073852E-002  0.2757388E+03  0.7818608E-02  0.1098039E+00
          1   -1    0    0  501    0  0.00000000000E+00  0.00000000000E+00  0.62458396190E+02  0.62458396190E+02  0.00000000000E+00 0.  1.
         -1   -1    0    0    0  501 -0.00000000000E+00 -0.00000000000E+00 -0.30433013932E+03  0.30433013932E+03  0.00000000000E+00 0.  1.
         36    2    1    2    0    0  0.00000000000E+00  0.88817841970E-15 -0.24187174313E+03  0.36678853551E+03  0.27573880695E+03 0.  0.
         25    2    3    3    0    0 -0.33582983879E+02 -0.49541214368E+00 -0.61054976807E+02  0.14938194310E+03  0.13213323765E+03 0.  0.
         25    2    3    3    0    0  0.33582983879E+02  0.49541214368E+00 -0.18081676632E+03  0.21740659241E+03  0.11594335341E+03 0.  0.
          5    1    4    4  502    0 -0.25236410032E+02 -0.42241219985E+02 -0.86453656915E+02  0.99586755400E+02  0.47000000000E+01 0.  1.
         -5    1    4    4    0  502 -0.83465738465E+01  0.41745807841E+02  0.25398680108E+02  0.49795187704E+02  0.47000000000E+01 0.  1.
          5    1    5    5  503    0  0.52881918150E+01 -0.60104383233E+01 -0.18710139269E+03  0.18733155497E+03  0.47000000000E+01 0. -1.
         -5    1    5    5    0  503  0.28294792064E+02  0.65058504670E+01  0.62846263662E+01  0.30075037436E+02  0.47000000000E+01 0. -1.
<mgrwt>
<rscale>  0 0.27573881E+03</rscale>
<asrwt>0</asrwt>
<pdfrwt beam="1">  1        1 0.96089842E-02 0.27573881E+03</pdfrwt>
<pdfrwt beam="2">  1       -1 0.46820021E-01 0.27573881E+03</pdfrwt>
<totfact> 0.31301838E+03</totfact>
</mgrwt>
</event>
<event>
 9    1  0.2073852E-002  0.2763336E+03  0.7818608E-02  0.1097708E+00
         -3   -1    0    0    0  501 -0.00000000000E+00  0.00000000000E+00  0.68131159461E+03  0.68131159461E+03  0.00000000000E+00 0.  1.
          3   -1    0    0  501    0  0.00000000000E+00 -0.00000000000E+00 -0.28019571731E+02  0.28019571731E+02  0.00000000000E+00 0.  1.
         36    2    1    2    0    0  0.00000000000E+00  0.71054273576E-14  0.65329202288E+03  0.70933116634E+03  0.27633356001E+03 0.  0.
         25    2    3    3    0    0  0.14599774844E+02 -0.57266188793E+02  0.31167487559E+03  0.34136190997E+03  0.12607202584E+03 0.  0.
         25    2    3    3    0    0 -0.14599774844E+02  0.57266188793E+02  0.34161714729E+03  0.36796925637E+03  0.12331475381E+03 0.  0.
          5    1    4    4  502    0  0.64389425102E+02 -0.26703305825E+02  0.10188250125E+03  0.12353622411E+03  0.47000000000E+01 0.  1.
         -5    1    4    4    0  502 -0.49789650258E+02 -0.30562882968E+02  0.20979237435E+03  0.21782568586E+03  0.47000000000E+01 0.  1.
          5    1    5    5  503    0  0.44721061059E+02  0.48223280050E+01  0.20559110154E+03  0.21050657753E+03  0.47000000000E+01 0. -1.
         -5    1    5    5    0  503 -0.59320835903E+02  0.52443860788E+02  0.13602604575E+03  0.15746267884E+03  0.47000000000E+01 0. -1.
<mgrwt>
<rscale>  0 0.27633356E+03</rscale>
<asrwt>0</asrwt>
<pdfrwt beam="1">  1        3 0.43107038E-02 0.27633356E+03</pdfrwt>
<pdfrwt beam="2">  1       -3 0.10481716E+00 0.27633356E+03</pdfrwt>
<totfact> 0.59461069E+02</totfact>
</mgrwt>
</event>
<event>
 9    1  0.2073852E-002  0.2753190E+03  0.7818608E-02  0.1098273E+00
         -4   -1    0    0    0  501 -0.00000000000E+00  0.00000000000E+00  0.10654549101E+03  0.10654549101E+03  0.00000000000E+00 0.  1.
          4   -1    0    0  501    0  0.00000000000E+00 -0.00000000000E+00 -0.17785964553E+03  0.17785964553E+03  0.00000000000E+00 0.  1.
         36    2    1    2    0    0 -0.17763568394E-14 -0.71054273576E-14 -0.71314154517E+02  0.28440513654E+03  0.27531903867E+03 0.  0.
         25    2    3    3    0    0 -0.12638942174E+02 -0.25466818373E+02 -0.89476666545E+02  0.15638840693E+03  0.12507181244E+03 0.  0.
         25    2    3    3    0    0  0.12638942174E+02  0.25466818373E+02  0.18162512028E+02  0.12801672961E+03  0.12349131354E+03 0.  0.
          5    1    4    4  502    0 -0.41693565711E+02 -0.61318587322E+02 -0.79743401742E+02  0.10899276441E+03  0.47000000000E+01 0. -1.
         -5    1    4    4    0  502  0.29054623537E+02  0.35851768949E+02 -0.97332648030E+01  0.47395642515E+02  0.47000000000E+01 0. -1.
          5    1    5    5  503    0  0.22952085782E+02 -0.46265650196E+02  0.19439665930E+02  0.55383203602E+02  0.47000000000E+01 0. -1.
         -5    1    5    5    0  503 -0.10313143608E+02  0.71732468568E+02 -0.12771539015E+01  0.72633526006E+02  0.47000000000E+01 0. -1.
<mgrwt>
<rscale>  0 0.27531904E+03</rscale>
<asrwt>0</asrwt>
<pdfrwt beam="1">  1        4 0.27363022E-01 0.27531904E+03</pdfrwt>
<pdfrwt beam="2">  1       -4 0.16391614E-01 0.27531904E+03</pdfrwt>
<totfact> 0.76491114E+02</totfact>
</mgrwt>
</event>
<event>
 9    1  0.2073852E-002  0.2745026E+03  0.7818608E-02  0.1098730E+00
         -2   -1    0    0    0  501 -0.00000000000E+00  0.00000000000E+00  0.78383512774E+01  0.78383512774E+01  0.00000000000E+00 0. -1.
          2   -1    0    0  501    0  0.00000000000E+00 -0.00000000000E+00 -0.24033016985E+04  0.24033016985E+04  0.00000000000E+00 0. -1.
         36    2    1    2    0    0  0.71054273576E-14  0.00000000000E+00 -0.23954633472E+04  0.24111400498E+04  0.27450262613E+03 0.  0.
         25    2    3    3    0    0 -0.53694165218E+02 -0.38998022962E+02 -0.12319834430E+04  0.12395166548E+04  0.11922426195E+03 0.  0.
         25    2    3    3    0    0  0.53694165218E+02  0.38998022962E+02 -0.11634799043E+04  0.11716233950E+04  0.12088003495E+03 0.  0.
          5    1    4    4  502    0 -0.18105552087E+02 -0.94782200019E+01 -0.10883296275E+04  0.10885316329E+04  0.47000000000E+01 0. -1.
         -5    1    4    4    0  502 -0.35588613131E+02 -0.29519802960E+02 -0.14365381545E+03  0.15098502192E+03  0.47000000000E+01 0. -1.
          5    1    5    5  503    0  0.19357504115E+02  0.66221407915E+02 -0.33979301268E+03  0.34675837307E+03  0.47000000000E+01 0.  1.
         -5    1    5    5    0  503  0.34336661104E+02 -0.27223384953E+02 -0.82368689160E+03  0.82486502192E+03  0.47000000000E+01 0.  1.
<mgrwt>
<rscale>  0 0.27450263E+03</rscale>
<asrwt>0</asrwt>
<pdfrwt beam="1">  1        2 0.36973869E+00 0.27450263E+03</pdfrwt>
<pdfrwt beam="2">  1       -2 0.12059003E-02 0.27450263E+03</pdfrwt>
<totfact> 0.73505705E+03</totfact>
</mgrwt>
</event>
<event>
 9    1  0.2073852E-002  0.2746804E+03  0.7818608E-02  0.1098630E+00
          2   -1    0    0  501    0  0.00000000000E+00  0.00000000000E+00  0.20502127226E+03  0.20502127226E+03  0.00000000000E+00 0.  1.
         -2   -1    0    0    0  501 -0.00000000000E+00 -0.00000000000E+00 -0.92001829668E+02  0.92001829668E+02  0.00000000000E+00 0.  1.
         36    2    1    2    0    0  0.71054273576E-14  0.00000000000E+00  0.11301944259E+03  0.29702310193E+03  0.27468041189E+03 0.  0.
         25    2    3    3    0    0 -0.81774700608E+01 -0.34950142364E+01  0.16754062530E+02  0.12530685938E+03  0.12386292526E+03 0.  0.
         25    2    3    3    0    0  0.81774700608E+01  0.34950142364E+01  0.96265380064E+02  0.17171624255E+03  0.14191673057E+03 0.  0.
          5    1    4    4  502    0 -0.41332687945E+02 -0.50295278981E+02 -0.35602823789E+00  0.65270383304E+02  0.47000000000E+01 0.  1.
         -5    1    4    4    0  502  0.33155217884E+02  0.46800264744E+02  0.17110090768E+02  0.60036476072E+02  0.47000000000E+01 0.  1.
          5    1    5    5  503    0  0.37813112400E+02  0.23382826898E+02 -0.20751049782E+02  0.49287768565E+02  0.47000000000E+01 0. -1.
         -5    1    5    5    0  503 -0.29635642339E+02 -0.19887812661E+02  0.11701642985E+03  0.12242847399E+03  0.47000000000E+01 0. -1.
<mgrwt>
<rscale>  0 0.27468041E+03</rscale>
<asrwt>0</asrwt>
<pdfrwt beam="1">  1        2 0.31541734E-01 0.27468041E+03</pdfrwt>
<pdfrwt beam="2">  1       -2 0.14154128E-01 0.27468041E+03</pdfrwt>
<totfact> 0.62061591E+03</totfact>
</mgrwt>
</event>
<event>
 9    1  0.2073852E-002  0.2760085E+03  0.7818608E-02  0.1097889E+00
          2   -1    0    0  501    0  0.00000000000E+00  0.00000000000E+00  0.32880626768E+04  0.32880626768E+04  0.00000000000E+00 0.  1.
         -2   -1    0    0    0  501 -0.00000000000E+00 -0.00000000000E+00 -0.57922173946E+01  0.57922173946E+01  0.00000000000E+00 0.  1.
         36    2    1    2    0    0 -0.14210854715E-13  0.00000000000E+00  0.32822704594E+04  0.32938548942E+04  0.27600850589E+03 0.  0.
         25    2    3    3    0    0 -0.60344877023E+02  0.72842550908E+01  0.13593078300E+04  0.13663855975E+04  0.12488898956E+03 0.  0.
         25    2    3    3    0    0  0.60344877023E+02 -0.72842550908E+01  0.19229626294E+04  0.19274692967E+04  0.11686766524E+03 0.  0.
          5    1    4    4  502    0 -0.50836271487E+02  0.63193278454E+02  0.86786437893E+03  0.87165841197E+03  0.47000000000E+01 0.  1.
         -5    1    4    4    0  502 -0.95086055360E+01 -0.55909023363E+02  0.49144345111E+03  0.49472718554E+03  0.47000000000E+01 0.  1.
          5    1    5    5  503    0 -0.35031405801E+02 -0.45450546781E+01  0.60536065508E+03  0.60640866553E+03  0.47000000000E+01 0. -1.
         -5    1    5    5    0  503  0.95376282823E+02 -0.27392004127E+01  0.13176019743E+04  0.13210606312E+04  0.47000000000E+01 0. -1.
<mgrwt>
<rscale>  0 0.27600851E+03</rscale>
<asrwt>0</asrwt>
<pdfrwt beam="1">  1        2 0.50585431E+00 0.27600851E+03</pdfrwt>
<pdfrwt beam="2">  1       -2 0.89111299E-03 0.27600851E+03</pdfrwt>
<totfact> 0.35027389E+03</totfact>
</mgrwt>
</event>
<event>
 9    1  0.2073852E-002  0.2756176E+03  0.7818608E-02  0.1098107E+00
         -2   -1    0    0    0  501 -0.00000000000E+00  0.00000000000E+00  0.59241032705E+01  0.59241032705E+01  0.00000000000E+00 0. -1.
          2   -1    0    0  501    0  0.00000000000E+00 -0.00000000000E+00 -0.32057624301E+04  0.32057624301E+04  0.00000000000E+00 0. -1.
         36    2    1    2    0    0  0.71054273576E-14 -0.71054273576E-14 -0.31998383268E+04  0.32116865334E+04  0.27561761697E+03 0.  0.
         25    2    3    3    0    0 -0.15691693908E+02  0.27193258461E+01 -0.14903012115E+04  0.14959269829E+04  0.12863208539E+03 0.  0.
         25    2    3    3    0    0  0.15691693908E+02 -0.27193258461E+01 -0.17095371154E+04  0.17157595505E+04  0.14512085345E+03 0.  0.
          5    1    4    4  502    0 -0.40289257628E+02 -0.38269681441E+02 -0.12278954616E+04  0.12291611560E+04  0.47000000000E+01 0. -1.
         -5    1    4    4    0  502  0.24597563720E+02  0.40989007287E+02 -0.26240574985E+03  0.26676582692E+03  0.47000000000E+01 0. -1.
          5    1    5    5  503    0  0.23611907220E+01 -0.53284360216E+02 -0.26959763139E+03  0.27486318618E+03  0.47000000000E+01 0.  1.
         -5    1    5    5    0  503  0.13330503186E+02  0.50565034370E+02 -0.14399394840E+04  0.14408963643E+04  0.47000000000E+01 0.  1.
<mgrwt>
<rscale>  0 0.27561762E+03</rscale>
<asrwt>0</asrwt>
<pdfrwt beam="1">  1        2 0.49319279E+00 0.27561762E+03</pdfrwt>
<pdfrwt beam="2">  1       -2 0.91140315E-03 0.27561762E+03</pdfrwt>
<totfact> 0.38157857E+03</totfact>
</mgrwt>
</event>
<event>
 9    1  0.2073852E-002  0.2755028E+03  0.7818608E-02  0.1098171E+00
          1   -1    0    0  501    0  0.00000000000E+00  0.00000000000E+00  0.97431164999E+02  0.97431164999E+02  0.00000000000E+00 0.  1.
         -1   -1    0    0    0  501 -0.00000000000E+00 -0.00000000000E+00 -0.19475743004E+03  0.19475743004E+03  0.00000000000E+00 0.  1.
         36    2    1    2    0    0  0.17763568394E-14  0.71054273576E-14 -0.97326265036E+02  0.29218859503E+03  0.27550276442E+03 0.  0.
         25    2    3    3    0    0  0.40182404964E+01 -0.14548591000E+02 -0.10985759166E+03  0.16537619529E+03  0.12268980303E+03 0.  0.
         25    2    3    3    0    0 -0.40182404964E+01  0.14548591000E+02  0.12531326625E+02  0.12681239974E+03  0.12528584447E+03 0.  0.
          5    1    4    4  502    0  0.36188531103E+01 -0.65260095721E+02 -0.33510343382E+02  0.73600334951E+02  0.47000000000E+01 0.  1.
         -5    1    4    4    0  502  0.39938738608E+00  0.50711504721E+02 -0.76347248279E+02  0.91775860340E+02  0.47000000000E+01 0.  1.
          5    1    5    5  503    0  0.16528853198E+02  0.66976090064E+02  0.10582949611E+01  0.69153522084E+02  0.47000000000E+01 0. -1.
         -5    1    5    5    0  503 -0.20547093694E+02 -0.52427499064E+02  0.11473031664E+02  0.57658877660E+02  0.47000000000E+01 0. -1.
<mgrwt>
<rscale>  0 0.27550276E+03</rscale>
<asrwt>0</asrwt>
<pdfrwt beam="1">  1        1 0.14989410E-01 0.27550276E+03</pdfrwt>
<pdfrwt beam="2">  1       -1 0.29962681E-01 0.27550276E+03</pdfrwt>
<totfact> 0.37987360E+03</totfact>
</mgrwt>
</event>
<event>
 9    1  0.2073852E-002  0.2748981E+03  0.7818608E-02  0.1098509E+00
         -1   -1    0    0    0  501 -0.00000000000E+00  0.00000000000E+00  0.21658132298E+04  0.21658132298E+04  0.00000000000E+00 0.  1.
          1   -1    0    0  501    0  0.00000000000E+00 -0.00000000000E+00 -0.87229321923E+01  0.87229321923E+01  0.00000000000E+00 0.  1.
         36    2    1    2    0    0 -0.71054273576E-14  0.00000000000E+00  0.21570902976E+04  0.21745361620E+04  0.27489810436E+03 0.  0.
         25    2    3    3    0    0  0.42582783175E+02  0.56185049504E+01  0.13180723157E+04  0.13253006531E+04  0.13138618874E+03 0.  0.
         25    2    3    3    0    0 -0.42582783175E+02 -0.56185049504E+01  0.83901798187E+03  0.84923550888E+03  0.12411653649E+03 0.  0.
          5    1    4    4  502    0 -0.20280335700E+01 -0.44373122371E+02  0.18797779832E+03  0.19321187740E+03  0.47000000000E+01 0. -1.
         -5    1    4    4    0  502  0.44610816745E+02  0.49991627322E+02  0.11300945174E+04  0.11320887757E+04  0.47000000000E+01 0. -1.
          5    1    5    5  503    0 -0.22712562450E+02  0.20407935033E+01  0.22343511899E+02  0.32269921833E+02  0.47000000000E+01 0. -1.
         -5    1    5    5    0  503 -0.19870220726E+02 -0.76592984537E+01  0.81667446997E+03  0.81696558705E+03  0.47000000000E+01 0. -1.
<mgrwt>
<rscale>  0 0.27489810E+03</rscale>
<asrwt>0</asrwt>
<pdfrwt beam="1">  1        1 0.13419913E-02 0.27489810E+03</pdfrwt>
<pdfrwt beam="2">  1       -1 0.33320161E+00 0.27489810E+03</pdfrwt>
<totfact> 0.25451574E+02</totfact>
</mgrwt>
</event>
<event>
 9    1  0.2073852E-002  0.2757443E+03  0.7818608E-02  0.1098036E+00
          2   -1    0    0  501    0  0.00000000000E+00  0.00000000000E+00  0.14817675995E+04  0.14817675995E+04  0.00000000000E+00 0. -1.
         -2   -1    0    0    0  501 -0.00000000000E+00 -0.00000000000E+00 -0.12828410785E+02  0.12828410785E+02  0.00000000000E+00 0. -1.
         36    2    1    2    0    0  0.00000000000E+00  0.71054273576E-14  0.14689391887E+04  0.14945960103E+04  0.27574425437E+03 0.  0.
         25    2    3    3    0    0  0.51699151266E+02 -0.36458727282E+02  0.66209359500E+03  0.67634711747E+03  0.12278213932E+03 0.  0.
         25    2    3    3    0    0 -0.51699151266E+02  0.36458727282E+02  0.80684559373E+03  0.81824889283E+03  0.12053795027E+03 0.  0.
          5    1    4    4  502    0  0.64908851885E+02  0.27492070543E+02  0.40063469877E+03  0.40681595944E+03  0.47000000000E+01 0. -1.
         -5    1    4    4    0  502 -0.13209700619E+02 -0.63950797826E+02  0.26145889623E+03  0.26953115803E+03  0.47000000000E+01 0. -1.
          5    1    5    5  503    0  0.11227752594E+01 -0.33503824017E+01  0.61926457781E+03  0.61929249391E+03  0.47000000000E+01 0.  1.
         -5    1    5    5    0  503 -0.52821926525E+02  0.39809109684E+02  0.18758101592E+03  0.19895639892E+03  0.47000000000E+01 0.  1.
<mgrwt>
<rscale>  0 0.27574425E+03</rscale>
<asrwt>0</asrwt>
<pdfrwt beam="1">  1        2 0.22796411E+00 0.27574425E+03</pdfrwt>
<pdfrwt beam="2">  1       -2 0.19736028E-02 0.27574425E+03</pdfrwt>
<totfact> 0.11001933E+04</totfact>
</mgrwt>
</event>
<event>
 9    1  0.2073852E-002  0.2753013E+03  0.7818608E-02  0.1098283E+00
          2   -1    0    0  501    0  0.00000000000E+00  0.00000000000E+00  0.64167088177E+03  0.64167088177E+03  0.00000000000E+00 0. -1.
         -2   -1    0    0    0  501 -0.00000000000E+00 -0.00000000000E+00 -0.29528687981E+02  0.29528687981E+02  0.00000000000E+00 0. -1.
         36    2    1    2    0    0  0.00000000000E+00  0.00000000000E+00  0.61214219379E+03  0.67119956976E+03  0.27530128408E+03 0.  0.
         25    2    3    3    0    0 -0.71424333355E+01 -0.26497190148E+02  0.25775111534E+03  0.29406771409E+03  0.13887788727E+03 0.  0.
         25    2    3    3    0    0  0.71424333355E+01  0.26497190148E+02  0.35439107845E+03  0.37713185566E+03  0.12602493653E+03 0.  0.
          5    1    4    4  502    0 -0.12552403321E+01  0.35453385675E+02  0.21608880720E+03  0.21903191726E+03  0.47000000000E+01 0. -1.
         -5    1    4    4    0  502 -0.58871930033E+01 -0.61950575824E+02  0.41662308147E+02  0.75035796834E+02  0.47000000000E+01 0. -1.
          5    1    5    5  503    0  0.15055189425E+02 -0.43297558789E+02  0.67497967471E+02  0.81727614295E+02  0.47000000000E+01 0. -1.
         -5    1    5    5    0  503 -0.79127560893E+01  0.69794748937E+02  0.28689311098E+03  0.29540424137E+03  0.47000000000E+01 0. -1.
<mgrwt>
<rscale>  0 0.27530128E+03</rscale>
<asrwt>0</asrwt>
<pdfrwt beam="1">  1        2 0.98718587E-01 0.27530128E+03</pdfrwt>
<pdfrwt beam="2">  1       -2 0.45428755E-02 0.27530128E+03</pdfrwt>
<totfact> 0.10513610E+04</totfact>
</mgrwt>
</event>
<event>
 9    1  0.2073852E-002  0.2760203E+03  0.7818608E-02  0.1097883E+00
         -1   -1    0    0    0  501 -0.00000000000E+00  0.00000000000E+00  0.27894797107E+02  0.27894797107E+02  0.00000000000E+00 0.  1.
          1   -1    0    0  501    0  0.00000000000E+00 -0.00000000000E+00 -0.68280818932E+03  0.68280818932E+03  0.00000000000E+00 0.  1.
         36    2    1    2    0    0  0.71054273576E-14  0.00000000000E+00 -0.65491339221E+03  0.71070298642E+03  0.27602025943E+03 0.  0.
         25    2    3    3    0    0  0.29050917853E+02  0.16358989760E+02 -0.45320300337E+03  0.47314030086E+03  0.13174676339E+03 0.  0.
         25    2    3    3    0    0 -0.29050917853E+02 -0.16358989760E+02 -0.20171038884E+03  0.23756268557E+03  0.12098502482E+03 0.  0.
          5    1    4    4  502    0  0.63659776861E+02  0.39993056185E+02 -0.15912092848E+03  0.17604991228E+03  0.47000000000E+01 0. -1.
         -5    1    4    4    0  502 -0.34608859008E+02 -0.23634066425E+02 -0.29408207489E+03  0.29709038858E+03  0.47000000000E+01 0. -1.
          5    1    5    5  503    0  0.23114343335E+02  0.15403789113E+02 -0.16229542598E+03  0.16472232660E+03  0.47000000000E+01 0. -1.
         -5    1    5    5    0  503 -0.52165261187E+02 -0.31762778872E+02 -0.39414962865E+02  0.72840358965E+02  0.47000000000E+01 0. -1.
<mgrwt>
<rscale>  0 0.27602026E+03</rscale>
<asrwt>0</asrwt>
<pdfrwt beam="1">  1        1 0.10504740E+00 0.27602026E+03</pdfrwt>
<pdfrwt beam="2">  1       -1 0.42915079E-02 0.27602026E+03</pdfrwt>
<totfact> 0.64543494E+03</totfact>
</mgrwt>
</event>
<event>
 9    1  0.2073852E-002  0.2755870E+03  0.7818608E-02  0.1098124E+00
         -2   -1    0    0    0  501 -0.00000000000E+00  0.00000000000E+00  0.17320304301E+02  0.17320304301E+02  0.00000000000E+00 0. -1.
          2   -1    0    0  501    0  0.00000000000E+00 -0.00000000000E+00 -0.10962303197E+04  0.10962303197E+04  0.00000000000E+00 0. -1.
         36    2    1    2    0    0  0.00000000000E+00  0.71054273576E-14 -0.10789100154E+04  0.11135506240E+04  0.27558695703E+03 0.  0.
         25    2    3    3    0    0  0.27588395552E+02  0.26242735584E+02 -0.39479937561E+03  0.41572440688E+03  0.12454089591E+03 0.  0.
         25    2    3    3    0    0 -0.27588395552E+02 -0.26242735584E+02 -0.68411063974E+03  0.69782621707E+03  0.13230366997E+03 0.  0.
          5    1    4    4  502    0  0.28442043602E+02  0.32153457656E+01 -0.10717465755E+02  0.30923168739E+02  0.47000000000E+01 0.  1.
         -5    1    4    4    0  502 -0.85364805029E+00  0.23027389819E+02 -0.38408190985E+03  0.38480123814E+03  0.47000000000E+01 0.  1.
          5    1    5    5  503    0 -0.39292484791E+00  0.40976834652E+02 -0.86689288084E+02  0.96001968920E+02  0.47000000000E+01 0. -1.
         -5    1    5    5    0  503 -0.27195470704E+02 -0.67219570237E+02 -0.59742135166E+03  0.60182424815E+03  0.47000000000E+01 0. -1.
<mgrwt>
<rscale>  0 0.27558696E+03</rscale>
<asrwt>0</asrwt>
<pdfrwt beam="1">  1        2 0.16865086E+00 0.27558696E+03</pdfrwt>
<pdfrwt beam="2">  1       -2 0.26646616E-02 0.27558696E+03</pdfrwt>
<totfact> 0.11585718E+04</totfact>
</mgrwt>
</event>
<event>
 9    1  0.2073852E-002  0.2748115E+03  0.7818608E-02  0.1098557E+00
          2   -1    0    0  501    0  0.00000000000E+00  0.00000000000E+00  0.61771977786E+03  0.61771977786E+03  0.00000000000E+00 0. -1.
         -2   -1    0    0    0  501 -0.00000000000E+00 -0.00000000000E+00 -0.30564578103E+02  0.30564578103E+02  0.00000000000E+00 0. -1.
         36    2    1    2    0    0  0.35527136788E-14  0.00000000000E+00  0.58715519975E+03  0.64828435596E+03  0.27481153102E+03 0.  0.
         25    2    3    3    0    0  0.25764061625E+02 -0.42095494693E+02  0.22439019703E+03  0.26087192206E+03  0.12356124656E+03 0.  0.
         25    2    3    3    0    0 -0.25764061625E+02  0.42095494693E+02  0.36276500273E+03  0.38741243390E+03  0.12670489017E+03 0.  0.
          5    1    4    4  502    0  0.48793204469E+02  0.22589905545E+02  0.50734290872E+02  0.74075224638E+02  0.47000000000E+01 0. -1.
         -5    1    4    4    0  502 -0.23029142844E+02 -0.64685400239E+02  0.17365590616E+03  0.18679669742E+03  0.47000000000E+01 0. -1.
          5    1    5    5  503    0 -0.24319435172E+01 -0.30941332551E+02  0.22595112194E+02  0.38676989339E+02  0.47000000000E+01 0. -1.
         -5    1    5    5    0  503 -0.23332118108E+02  0.73036827244E+02  0.34016989053E+03  0.34873544456E+03  0.47000000000E+01 0. -1.
<mgrwt>
<rscale>  0 0.27481153E+03</rscale>
<asrwt>0</asrwt>
<pdfrwt beam="1">  1        2 0.95033803E-01 0.27481153E+03</pdfrwt>
<pdfrwt beam="2">  1       -2 0.47022432E-02 0.27481153E+03</pdfrwt>
<totfact> 0.10434783E+04</totfact>
</mgrwt>
</event>
<event>
 9    1  0.2073852E-002  0.2753797E+03  0.7818608E-02  0.1098240E+00
          2   -1    0    0  501    0  0.00000000000E+00  0.00000000000E+00  0.20789259140E+03  0.20789259140E+03  0.00000000000E+00 0. -1.
         -2   -1    0    0    0  501 -0.00000000000E+00 -0.00000000000E+00 -0.91193726072E+02  0.91193726072E+02  0.00000000000E+00 0. -1.
         36    2    1    2    0    0  0.00000000000E+00  0.00000000000E+00  0.11669886533E+03  0.29908631748E+03  0.27537973805E+03 0.  0.
         25    2    3    3    0    0  0.52435002008E+02  0.11958426589E+02  0.28577566528E+02  0.13771210799E+03  0.12351321377E+03 0.  0.
         25    2    3    3    0    0 -0.52435002008E+02 -0.11958426589E+02  0.88121298804E+02  0.16137420949E+03  0.12403160397E+03 0.  0.
          5    1    4    4  502    0  0.57191596736E+02 -0.33097279115E+02 -0.21853051781E+02  0.69756393930E+02  0.47000000000E+01 0.  1.
         -5    1    4    4    0  502 -0.47565947279E+01  0.45055705704E+02  0.50430618309E+02  0.67955714057E+02  0.47000000000E+01 0.  1.
          5    1    5    5  503    0 -0.22765648875E+02 -0.66836901998E+02  0.33369630287E+02  0.78237257512E+02  0.47000000000E+01 0. -1.
         -5    1    5    5    0  503 -0.29669353133E+02  0.54878475409E+02  0.54751668517E+02  0.83136951976E+02  0.47000000000E+01 0. -1.
<mgrwt>
<rscale>  0 0.27537974E+03</rscale>
<asrwt>0</asrwt>
<pdfrwt beam="1">  1        2 0.31983476E-01 0.27537974E+03</pdfrwt>
<pdfrwt beam="2">  1       -2 0.14029804E-01 0.27537974E+03</pdfrwt>
<totfact> 0.62022834E+03</totfact>
</mgrwt>
</event>
<event>
 9    1  0.2073852E-002  0.2754020E+03  0.7818608E-02  0.1098227E+00
         -2   -1    0    0    0  501 -0.00000000000E+00  0.00000000000E+00  0.38973319372E+03  0.38973319372E+03  0.00000000000E+00 0. -1.
          2   -1    0    0  501    0  0.00000000000E+00 -0.00000000000E+00 -0.48652666982E+02  0.48652666982E+02  0.00000000000E+00 0. -1.
         36    2    1    2    0    0 -0.35527136788E-14 -0.14210854715E-13  0.34108052674E+03  0.43838586070E+03  0.27540195559E+03 0.  0.
         25    2    3    3    0    0  0.24005848946E+02 -0.24697799020E+02  0.24101920982E+03  0.27401117327E+03  0.12572033055E+03 0.  0.
         25    2    3    3    0    0 -0.24005848946E+02  0.24697799020E+02  0.10006131692E+03  0.16437468743E+03  0.12577960353E+03 0.  0.
          5    1    4    4  502    0 -0.28281554174E+01 -0.65193879248E+02  0.19943335079E+03  0.20989042799E+03  0.47000000000E+01 0.  1.
         -5    1    4    4    0  502  0.26834004363E+02  0.40496080229E+02  0.41585859032E+02  0.64120745282E+02  0.47000000000E+01 0.  1.
          5    1    5    5  503    0 -0.69945804807E+02  0.32232933466E+02  0.85949901529E+02  0.11550261115E+03  0.47000000000E+01 0. -1.
         -5    1    5    5    0  503  0.45939955861E+02 -0.75351344469E+01  0.14111415388E+02  0.48872076280E+02  0.47000000000E+01 0. -1.
<mgrwt>
<rscale>  0 0.27540196E+03</rscale>
<asrwt>0</asrwt>
<pdfrwt beam="1">  1        2 0.74850260E-02 0.27540196E+03</pdfrwt>
<pdfrwt beam="2">  1       -2 0.59958951E-01 0.27540196E+03</pdfrwt>
<totfact> 0.24462813E+03</totfact>
</mgrwt>
</event>
<event>
 9    1  0.2073852E-002  0.2767832E+03  0.7818608E-02  0.1097459E+00
          1   -1    0    0  501    0  0.00000000000E+00  0.00000000000E+00  0.43956020515E+03  0.43956020515E+03  0.00000000000E+00 0.  1.
         -1   -1    0    0    0  501 -0.00000000000E+00 -0.00000000000E+00 -0.43571342259E+02  0.43571342259E+02  0.00000000000E+00 0.  1.
         36    2    1    2    0    0 -0.71054273576E-14  0.00000000000E+00  0.39598886289E+03  0.48313154741E+03  0.27678315080E+03 0.  0.
         25    2    3    3    0    0 -0.24727864404E+02 -0.52936626789E+01  0.28879489837E+03  0.31873695418E+03  0.13248117787E+03 0.  0.
         25    2    3    3    0    0  0.24727864404E+02  0.52936626789E+01  0.10719396452E+03  0.16439459323E+03  0.12204731096E+03 0.  0.
          5    1    4    4  502    0 -0.15515252592E+02  0.20576323213E+02  0.28968020105E+03  0.29086219593E+03  0.47000000000E+01 0.  1.
         -5    1    4    4    0  502 -0.92126118116E+01 -0.25869985892E+02 -0.88530267876E+00  0.27874758246E+02  0.47000000000E+01 0.  1.
          5    1    5    5  503    0  0.48143416929E-01  0.61893354683E+02  0.61998670489E+02  0.87730922793E+02  0.47000000000E+01 0.  1.
         -5    1    5    5    0  503  0.24679720987E+02 -0.56599692004E+02  0.45195294029E+02  0.76663670440E+02  0.47000000000E+01 0.  1.
<mgrwt>
<rscale>  0 0.27678315E+03</rscale>
<asrwt>0</asrwt>
<pdfrwt beam="1">  1        1 0.67624644E-01 0.27678315E+03</pdfrwt>
<pdfrwt beam="2">  1       -1 0.67032838E-02 0.27678315E+03</pdfrwt>
<totfact> 0.60171340E+03</totfact>
</mgrwt>
</event>
<event>
 9    1  0.2073852E-002  0.2716736E+03  0.7818608E-02  0.1100326E+00
          2   -1    0    0  501    0  0.00000000000E+00  0.00000000000E+00  0.23973745402E+03  0.23973745402E+03  0.00000000000E+00 0. -1.
         -2   -1    0    0    0  501 -0.00000000000E+00 -0.00000000000E+00 -0.76966033592E+02  0.76966033592E+02  0.00000000000E+00 0. -1.
         36    2    1    2    0    0 -0.35527136788E-14  0.00000000000E+00  0.16277142042E+03  0.31670348761E+03  0.27167363464E+03 0.  0.
         25    2    3    3    0    0  0.17981416098E+02  0.33826100925E+02  0.53505563853E+02  0.14591484266E+03  0.13023348079E+03 0.  0.
         25    2    3    3    0    0 -0.17981416098E+02 -0.33826100925E+02  0.10926585657E+03  0.17078864494E+03  0.12554759018E+03 0.  0.
          5    1    4    4  502    0 -0.28850138392E+02  0.39594881007E+02  0.78240428029E+02  0.92432351833E+02  0.47000000000E+01 0. -1.
         -5    1    4    4    0  502  0.46831554490E+02 -0.57687800818E+01 -0.24734864177E+02  0.53482490830E+02  0.47000000000E+01 0. -1.
          5    1    5    5  503    0  0.34513976839E+02 -0.26515392302E+02  0.10912527873E+03  0.11757847202E+03  0.47000000000E+01 0. -1.
         -5    1    5    5    0  503 -0.52495392937E+02 -0.73107086226E+01  0.14057784569E+00  0.53210172921E+02  0.47000000000E+01 0. -1.
<mgrwt>
<rscale>  0 0.27167363E+03</rscale>
<asrwt>0</asrwt>
<pdfrwt beam="1">  1        2 0.36882685E-01 0.27167363E+03</pdfrwt>
<pdfrwt beam="2">  1       -2 0.11840928E-01 0.27167363E+03</pdfrwt>
<totfact> 0.69957354E+03</totfact>
</mgrwt>
</event>
<event>
 9    1  0.2073852E-002  0.2741510E+03  0.7818608E-02  0.1098927E+00
         -3   -1    0    0    0  501 -0.00000000000E+00  0.00000000000E+00  0.32785902401E+03  0.32785902401E+03  0.00000000000E+00 0. -1.
          3   -1    0    0  501    0  0.00000000000E+00 -0.00000000000E+00 -0.57310281836E+02  0.57310281836E+02  0.00000000000E+00 0. -1.
         36    2    1    2    0    0  0.00000000000E+00 -0.14210854715E-13  0.27054874218E+03  0.38516930585E+03  0.27415100269E+03 0.  0.
         25    2    3    3    0    0 -0.16344863605E+02 -0.34175454635E+02  0.85505697955E+02  0.15719950202E+03  0.12635403747E+03 0.  0.
         25    2    3    3    0    0  0.16344863605E+02  0.34175454635E+02  0.18504304422E+03  0.22796980383E+03  0.12764868577E+03 0.  0.
          5    1    4    4  502    0  0.53960161015E+02 -0.12760813931E+02  0.52475364731E+02  0.76487196658E+02  0.47000000000E+01 0.  1.
         -5    1    4    4    0  502 -0.70305024621E+02 -0.21414640703E+02  0.33030333224E+02  0.80712305358E+02  0.47000000000E+01 0.  1.
          5    1    5    5  503    0  0.61749781025E+02  0.37025026554E+02  0.56837062976E+02  0.91850039606E+02  0.47000000000E+01 0. -1.
         -5    1    5    5    0  503 -0.45404917419E+02 -0.28495719190E+01  0.12820598125E+03  0.13611976423E+03  0.47000000000E+01 0. -1.
<mgrwt>
<rscale>  0 0.27415100E+03</rscale>
<asrwt>0</asrwt>
<pdfrwt beam="1">  1        3 0.88169666E-02 0.27415100E+03</pdfrwt>
<pdfrwt beam="2">  1       -3 0.50439849E-01 0.27415100E+03</pdfrwt>
<totfact> 0.90687810E+02</totfact>
</mgrwt>
</event>
<event>
 9    1  0.2073852E-002  0.2750338E+03  0.7818608E-02  0.1098433E+00
         -2   -1    0    0    0  501 -0.00000000000E+00  0.00000000000E+00  0.14821613840E+02  0.14821613840E+02  0.00000000000E+00 0. -1.
          2   -1    0    0  501    0  0.00000000000E+00 -0.00000000000E+00 -0.12759003372E+04  0.12759003372E+04  0.00000000000E+00 0. -1.
         36    2    1    2    0    0  0.00000000000E+00  0.00000000000E+00 -0.12610787234E+04  0.12907219511E+04  0.27503383135E+03 0.  0.
         25    2    3    3    0    0  0.27200741735E+01  0.66668181693E+02 -0.74656489572E+03  0.75984150591E+03  0.12469132021E+03 0.  0.
         25    2    3    3    0    0 -0.27200741735E+01 -0.66668181693E+02 -0.51451382767E+03  0.53088044515E+03  0.11250565732E+03 0.  0.
          5    1    4    4  502    0  0.42721839733E+02  0.16550838973E+01 -0.10120138294E+03  0.10996228808E+03  0.47000000000E+01 0. -1.
         -5    1    4    4    0  502 -0.40001765560E+02  0.65013097796E+02 -0.64536351278E+03  0.64987921783E+03  0.47000000000E+01 0. -1.
          5    1    5    5  503    0 -0.37258870348E+01  0.23746132586E+02 -0.25207483303E+03  0.25326186546E+03  0.47000000000E+01 0.  1.
         -5    1    5    5    0  503  0.10058128613E+01 -0.90414314279E+02 -0.26243899463E+03  0.27761857969E+03  0.47000000000E+01 0.  1.
<mgrwt>
<rscale>  0 0.27503383E+03</rscale>
<asrwt>0</asrwt>
<pdfrwt beam="1">  1        2 0.19629226E+00 0.27503383E+03</pdfrwt>
<pdfrwt beam="2">  1       -2 0.22802495E-02 0.27503383E+03</pdfrwt>
<totfact> 0.11517283E+04</totfact>
</mgrwt>
</event>
<event>
 9    1  0.2073852E-002  0.2750933E+03  0.7818608E-02  0.1098399E+00
         -2   -1    0    0    0  501 -0.00000000000E+00  0.00000000000E+00  0.58911810634E+02  0.58911810634E+02  0.00000000000E+00 0. -1.
          2   -1    0    0  501    0  0.00000000000E+00 -0.00000000000E+00 -0.32114248450E+03  0.32114248450E+03  0.00000000000E+00 0. -1.
         36    2    1    2    0    0 -0.71054273576E-14 -0.71054273576E-14 -0.26223067387E+03  0.38005429514E+03  0.27509333132E+03 0.  0.
         25    2    3    3    0    0  0.60850954363E+02 -0.19767732131E+02 -0.14794598420E+03  0.20275563471E+03  0.12299687510E+03 0.  0.
         25    2    3    3    0    0 -0.60850954363E+02  0.19767732131E+02 -0.11428468967E+03  0.17729866043E+03  0.11949988626E+03 0.  0.
          5    1    4    4  502    0  0.26294055991E+02 -0.70721025319E+02 -0.95076134629E+02  0.12146770015E+03  0.47000000000E+01 0. -1.
         -5    1    4    4    0  502  0.34556898372E+02  0.50953293188E+02 -0.52869849573E+02  0.81287934564E+02  0.47000000000E+01 0. -1.
          5    1    5    5  503    0 -0.87301860323E+02  0.61632294445E+01 -0.38458688979E+02  0.95711864317E+02  0.47000000000E+01 0. -1.
         -5    1    5    5    0  503  0.26450905959E+02  0.13604502686E+02 -0.75826000689E+02  0.81586796113E+02  0.47000000000E+01 0. -1.
<mgrwt>
<rscale>  0 0.27509333E+03</rscale>
<asrwt>0</asrwt>
<pdfrwt beam="1">  1        2 0.49406536E-01 0.27509333E+03</pdfrwt>
<pdfrwt beam="2">  1       -2 0.90633554E-02 0.27509333E+03</pdfrwt>
<totfact> 0.78229005E+03</totfact>
</mgrwt>
</event>
<event>
 9    1  0.2073852E-002  0.2742359E+03  0.7818608E-02  0.1098879E+00
          2   -1    0    0  501    0  0.00000000000E+00  0.00000000000E+00  0.10941213649E+02  0.10941213649E+02  0.00000000000E+00 0. -1.
         -2   -1    0    0    0  501 -0.00000000000E+00 -0.00000000000E+00 -0.17183955253E+04  0.17183955253E+04  0.00000000000E+00 0. -1.
         36    2    1    2    0    0 -0.35527136788E-14 -0.71054273576E-14 -0.17074543117E+04  0.17293367390E+04  0.27423590266E+03 0.  0.
         25    2    3    3    0    0  0.31562510737E+02  0.34563544757E+02 -0.74396058762E+03  0.75575053090E+03  0.12446155355E+03 0.  0.
         25    2    3    3    0    0 -0.31562510737E+02 -0.34563544757E+02 -0.96349372406E+03  0.97358620808E+03  0.13175400393E+03 0.  0.
          5    1    4    4  502    0  0.55443239611E+02  0.18850138405E+02 -0.15015451877E+03  0.16123817800E+03  0.47000000000E+01 0. -1.
         -5    1    4    4    0  502 -0.23880728874E+02  0.15713406352E+02 -0.59380606885E+03  0.59451235290E+03  0.47000000000E+01 0. -1.
          5    1    5    5  503    0 -0.35515587782E+01 -0.12596675124E+02 -0.90393069761E+03  0.90403765734E+03  0.47000000000E+01 0.  1.
         -5    1    5    5    0  503 -0.28010951959E+02 -0.21966869633E+02 -0.59563026446E+02  0.69548550744E+02  0.47000000000E+01 0.  1.
<mgrwt>
<rscale>  0 0.27423590E+03</rscale>
<asrwt>0</asrwt>
<pdfrwt beam="1">  1        2 0.16832642E-02 0.27423590E+03</pdfrwt>
<pdfrwt beam="2">  1       -2 0.26436846E+00 0.27423590E+03</pdfrwt>
<totfact> 0.41114852E+02</totfact>
</mgrwt>
</event>
<event>
 9    1  0.2073852E-002  0.2750793E+03  0.7818608E-02  0.1098407E+00
          2   -1    0    0  501    0  0.00000000000E+00  0.00000000000E+00  0.29644632248E+03  0.29644632248E+03  0.00000000000E+00 0. -1.
         -2   -1    0    0    0  501 -0.00000000000E+00 -0.00000000000E+00 -0.63813072894E+02  0.63813072894E+02  0.00000000000E+00 0. -1.
         36    2    1    2    0    0  0.88817841970E-15  0.14210854715E-13  0.23263324959E+03  0.36025939537E+03  0.27507926702E+03 0.  0.
         25    2    3    3    0    0  0.25855887523E+01 -0.68908620008E+02  0.59648582634E+02  0.15448200378E+03  0.12470626649E+03 0.  0.
         25    2    3    3    0    0 -0.25855887523E+01  0.68908620008E+02  0.17298466695E+03  0.20577739159E+03  0.87553165048E+02 0.  0.
          5    1    4    4  502    0 -0.16888374995E+01  0.24038903109E+02 -0.20190416972E+02  0.31787795965E+02  0.47000000000E+01 0. -1.
         -5    1    4    4    0  502  0.42744262518E+01 -0.92947523117E+02  0.79838999606E+02  0.12269420782E+03  0.47000000000E+01 0. -1.
          5    1    5    5  503    0  0.26092475102E+02  0.76164213992E+02  0.11425030118E+03  0.13984643745E+03  0.47000000000E+01 0.  1.
         -5    1    5    5    0  503 -0.28678063854E+02 -0.72555939845E+01  0.58734365777E+02  0.65930954139E+02  0.47000000000E+01 0.  1.
<mgrwt>
<rscale>  0 0.27507927E+03</rscale>
<asrwt>0</asrwt>
<pdfrwt beam="1">  1        2 0.45607126E-01 0.27507927E+03</pdfrwt>
<pdfrwt beam="2">  1       -2 0.98173960E-02 0.27507927E+03</pdfrwt>
<totfact> 0.75134752E+03</totfact>
</mgrwt>
</event>
<event>
 8    1  0.2073852E-002  0.3004463E+03  0.7818608E-02  0.1085018E+00
          2   -1    0    0  501    0  0.00000000000E+00  0.00000000000E+00  0.52472916405E+03  0.52472916405E+03  0.00000000000E+00 0. -1.
         -2   -1    0    0    0  501 -0.00000000000E+00 -0.00000000000E+00 -0.43006928845E+02  0.43006928845E+02  0.00000000000E+00 0. -1.
         25    2    1    2    0    0  0.78126580879E+02 -0.33105364652E+02  0.23789362586E+03  0.28232657446E+03  0.12615541848E+03 0.  0.
         25    2    1    2    0    0 -0.78126580879E+02  0.33105364652E+02  0.24382860934E+03  0.28540951844E+03  0.12168185843E+03 0.  0.
          5    1    3    3  502    0  0.95426792987E+02 -0.36775871997E+02  0.24269835006E+03  0.26340713108E+03  0.47000000000E+01 0.  1.
         -5    1    3    3    0  502 -0.17300212107E+02  0.36705073452E+01 -0.48047241996E+01  0.18919443379E+02  0.47000000000E+01 0.  1.
          5    1    4    4  503    0 -0.40853087716E+02 -0.42055858648E+02  0.13989566696E+03  0.15175822105E+03  0.47000000000E+01 0. -1.
         -5    1    4    4    0  503 -0.37273493163E+02  0.75161223299E+02  0.10393294238E+03  0.13365129738E+03  0.47000000000E+01 0. -1.
<mgrwt>
<rscale>  0 0.30044627E+03</rscale>
<asrwt>0</asrwt>
<pdfrwt beam="1">  1        2 0.80727559E-01 0.30044627E+03</pdfrwt>
<pdfrwt beam="2">  1       -2 0.66164510E-02 0.30044627E+03</pdfrwt>
<totfact> 0.74866510E+03</totfact>
</mgrwt>
</event>
<event>
 9    1  0.2073852E-002  0.2735681E+03  0.7818608E-02  0.1099255E+00
         -2   -1    0    0    0  501 -0.00000000000E+00  0.00000000000E+00  0.16873270163E+03  0.16873270163E+03  0.00000000000E+00 0.  1.
          2   -1    0    0  501    0  0.00000000000E+00 -0.00000000000E+00 -0.11088470607E+03  0.11088470607E+03  0.00000000000E+00 0.  1.
         36    2    1    2    0    0 -0.14210854715E-13 -0.71054273576E-14  0.57847995562E+02  0.27961740770E+03  0.27356809773E+03 0.  0.
         25    2    3    3    0    0 -0.36208920836E+02 -0.10739516616E+02  0.78716667622E+02  0.14899744716E+03  0.12073732784E+03 0.  0.
         25    2    3    3    0    0  0.36208920836E+02  0.10739516616E+02 -0.20868672060E+02  0.13061996054E+03  0.12328685839E+03 0.  0.
          5    1    4    4  502    0  0.13018008856E+02 -0.55583579346E+02  0.51075674765E+02  0.76745145776E+02  0.47000000000E+01 0.  1.
         -5    1    4    4    0  502 -0.49226929692E+02  0.44844062730E+02  0.27640992857E+02  0.72252301383E+02  0.47000000000E+01 0.  1.
          5    1    5    5  503    0  0.46809418745E+02  0.54561214432E+02  0.14050259687E+02  0.73399915537E+02  0.47000000000E+01 0.  1.
         -5    1    5    5    0  503 -0.10600497909E+02 -0.43821697816E+02 -0.34918931747E+02  0.57220044999E+02  0.47000000000E+01 0.  1.
<mgrwt>
<rscale>  0 0.27356810E+03</rscale>
<asrwt>0</asrwt>
<pdfrwt beam="1">  1        2 0.17059186E-01 0.27356810E+03</pdfrwt>
<pdfrwt beam="2">  1       -2 0.25958877E-01 0.27356810E+03</pdfrwt>
<totfact> 0.44164221E+03</totfact>
</mgrwt>
</event>
<event>
 9    1  0.2073852E-002  0.2745987E+03  0.7818608E-02  0.1098676E+00
          1   -1    0    0  501    0  0.00000000000E+00  0.00000000000E+00  0.26466969903E+04  0.26466969903E+04  0.00000000000E+00 0.  1.
         -1   -1    0    0    0  501 -0.00000000000E+00 -0.00000000000E+00 -0.71225025643E+01  0.71225025643E+01  0.00000000000E+00 0.  1.
         36    2    1    2    0    0  0.00000000000E+00  0.00000000000E+00  0.26395744877E+04  0.26538194928E+04  0.27459866060E+03 0.  0.
         25    2    3    3    0    0  0.54335670658E+02  0.34979950262E+02  0.14062778148E+04  0.14131827612E+04  0.12366188614E+03 0.  0.
         25    2    3    3    0    0 -0.54335670658E+02 -0.34979950262E+02  0.12332966729E+04  0.12406367317E+04  0.11824912048E+03 0.  0.
          5    1    4    4  502    0  0.91589709287E+02  0.27825759362E+02  0.80375774765E+03  0.80945139115E+03  0.47000000000E+01 0. -1.
         -5    1    4    4    0  502 -0.37254038629E+02  0.71541908997E+01  0.60252006713E+03  0.60373137001E+03  0.47000000000E+01 0. -1.
          5    1    5    5  503    0  0.18994204819E+02  0.65537079221E+01  0.73147590363E+03  0.73176691542E+03  0.47000000000E+01 0. -1.
         -5    1    5    5    0  503 -0.73329875477E+02 -0.41533658184E+02  0.50182076930E+03  0.50886981626E+03  0.47000000000E+01 0. -1.
<mgrwt>
<rscale>  0 0.27459866E+03</rscale>
<asrwt>0</asrwt>
<pdfrwt beam="1">  1        1 0.40718337E+00 0.27459866E+03</pdfrwt>
<pdfrwt beam="2">  1       -1 0.10957717E-02 0.27459866E+03</pdfrwt>
<totfact> 0.20838891E+03</totfact>
</mgrwt>
</event>
<event>
 9    1  0.2073852E-002  0.2739483E+03  0.7818608E-02  0.1099041E+00
          3   -1    0    0  501    0  0.00000000000E+00  0.00000000000E+00  0.60728660912E+03  0.60728660912E+03  0.00000000000E+00 0. -1.
         -3   -1    0    0    0  501 -0.00000000000E+00 -0.00000000000E+00 -0.30894672169E+02  0.30894672169E+02  0.00000000000E+00 0. -1.
         36    2    1    2    0    0  0.71054273576E-14 -0.17763568394E-14  0.57639193695E+03  0.63818128129E+03  0.27394832141E+03 0.  0.
         25    2    3    3    0    0 -0.28829851349E+02  0.25188965151E+01  0.40015048563E+03  0.42004080749E+03  0.12440403387E+03 0.  0.
         25    2    3    3    0    0  0.28829851349E+02 -0.25188965151E+01  0.17624145132E+03  0.21814047379E+03  0.12524660464E+03 0.  0.
          5    1    4    4  502    0  0.13291255694E+01  0.47693804453E+02  0.31703473163E+03  0.32063932482E+03  0.47000000000E+01 0. -1.
         -5    1    4    4    0  502 -0.30158976919E+02 -0.45174907938E+02  0.83115753994E+02  0.99401482675E+02  0.47000000000E+01 0. -1.
          5    1    5    5  503    0  0.76849765935E+02  0.12292333989E+02  0.10261668228E+03  0.12887692377E+03  0.47000000000E+01 0. -1.
         -5    1    5    5    0  503 -0.48019914586E+02 -0.14811230504E+02  0.73624769045E+02  0.89263550023E+02  0.47000000000E+01 0. -1.
<mgrwt>
<rscale>  0 0.27394832E+03</rscale>
<asrwt>0</asrwt>
<pdfrwt beam="1">  1        3 0.93428700E-01 0.27394832E+03</pdfrwt>
<pdfrwt beam="2">  1       -3 0.47530269E-02 0.27394832E+03</pdfrwt>
<totfact> 0.66346902E+02</totfact>
</mgrwt>
</event>
<event>
 9    1  0.2073852E-002  0.2750283E+03  0.7818608E-02  0.1098436E+00
          1   -1    0    0  501    0  0.00000000000E+00  0.00000000000E+00  0.17351830462E+04  0.17351830462E+04  0.00000000000E+00 0. -1.
         -1   -1    0    0    0  501 -0.00000000000E+00 -0.00000000000E+00 -0.10898069680E+02  0.10898069680E+02  0.00000000000E+00 0. -1.
         36    2    1    2    0    0  0.00000000000E+00 -0.71054273576E-14  0.17242849766E+04  0.17460811159E+04  0.27502833124E+03 0.  0.
         25    2    3    3    0    0 -0.21234591020E+00 -0.10396147804E+02  0.57426294115E+03  0.58915086295E+03  0.13119713699E+03 0.  0.
         25    2    3    3    0    0  0.21234591020E+00  0.10396147804E+02  0.11500220354E+04  0.11569302530E+04  0.12581257225E+03 0.  0.
          5    1    4    4  502    0  0.43513372157E+02  0.39852998932E+02  0.18612558905E+03  0.19531128994E+03  0.47000000000E+01 0.  1.
         -5    1    4    4    0  502 -0.43725718067E+02 -0.50249146736E+02  0.38813735210E+03  0.39383957300E+03  0.47000000000E+01 0.  1.
          5    1    5    5  503    0  0.14105272621E+02  0.51055611372E+02  0.23729252721E+03  0.24317785187E+03  0.47000000000E+01 0. -1.
         -5    1    5    5    0  503 -0.13892926711E+02 -0.40659463569E+02  0.91272950820E+03  0.91375240110E+03  0.47000000000E+01 0. -1.
<mgrwt>
<rscale>  0 0.27502833E+03</rscale>
<asrwt>0</asrwt>
<pdfrwt beam="1">  1        1 0.26695102E+00 0.27502833E+03</pdfrwt>
<pdfrwt beam="2">  1       -1 0.16766275E-02 0.27502833E+03</pdfrwt>
<totfact> 0.44497002E+03</totfact>
</mgrwt>
</event>
<event>
 9    1  0.2073852E-002  0.2751803E+03  0.7818608E-02  0.1098351E+00
         -2   -1    0    0    0  501 -0.00000000000E+00  0.00000000000E+00  0.20330864116E+02  0.20330864116E+02  0.00000000000E+00 0.  1.
          2   -1    0    0  501    0  0.00000000000E+00 -0.00000000000E+00 -0.93114844625E+03  0.93114844625E+03  0.00000000000E+00 0.  1.
         36    2    1    2    0    0 -0.71054273576E-14  0.00000000000E+00 -0.91081758213E+03  0.95147931036E+03  0.27518032293E+03 0.  0.
         25    2    3    3    0    0  0.49641177833E+02 -0.11756823974E+02 -0.53687432161E+03  0.55375719165E+03  0.12573989287E+03 0.  0.
         25    2    3    3    0    0 -0.49641177833E+02  0.11756823974E+02 -0.37394326052E+03  0.39772211871E+03  0.12548646212E+03 0.  0.
          5    1    4    4  502    0 -0.26213135195E+02 -0.28156269154E+02 -0.33817023967E+03  0.34038376129E+03  0.47000000000E+01 0.  1.
         -5    1    4    4    0  502  0.75854313028E+02  0.16399445181E+02 -0.19870408193E+03  0.21337343036E+03  0.47000000000E+01 0.  1.
          5    1    5    5  503    0 -0.90944506655E+02 -0.20069599659E+01 -0.26923813180E+03  0.28422912025E+03  0.47000000000E+01 0.  1.
         -5    1    5    5    0  503  0.41303328822E+02  0.13763783940E+02 -0.10470512872E+03  0.11349299847E+03  0.47000000000E+01 0.  1.
<mgrwt>
<rscale>  0 0.27518032E+03</rscale>
<asrwt>0</asrwt>
<pdfrwt beam="1">  1        2 0.14325363E+00 0.27518032E+03</pdfrwt>
<pdfrwt beam="2">  1       -2 0.31278248E-02 0.27518032E+03</pdfrwt>
<totfact> 0.11510148E+04</totfact>
</mgrwt>
</event>
<event>
 9    1  0.2073852E-002  0.2731158E+03  0.7818608E-02  0.1099509E+00
         -2   -1    0    0    0  501 -0.00000000000E+00  0.00000000000E+00  0.14404825632E+02  0.14404825632E+02  0.00000000000E+00 0. -1.
          2   -1    0    0  501    0  0.00000000000E+00 -0.00000000000E+00 -0.12945705617E+04  0.12945705617E+04  0.00000000000E+00 0. -1.
         36    2    1    2    0    0  0.00000000000E+00 -0.17763568394E-14 -0.12801657361E+04  0.13089753874E+04  0.27311582312E+03 0.  0.
         25    2    3    3    0    0  0.12249400276E+02  0.29662435714E+01 -0.86476700329E+03  0.87411932091E+03  0.12690063353E+03 0.  0.
         25    2    3    3    0    0 -0.12249400276E+02 -0.29662435714E+01 -0.41539873282E+03  0.43485606647E+03  0.12800330038E+03 0.  0.
          5    1    4    4  502    0  0.52828728899E+02  0.16993332181E+02 -0.73990296531E+03  0.74199604851E+03  0.47000000000E+01 0. -1.
         -5    1    4    4    0  502 -0.40579328623E+02 -0.14027088609E+02 -0.12486403799E+03  0.13212327240E+03  0.47000000000E+01 0. -1.
          5    1    5    5  503    0 -0.61332279976E+02 -0.11153592392E+02 -0.12049659163E+03  0.13574818520E+03  0.47000000000E+01 0. -1.
         -5    1    5    5    0  503  0.49082879700E+02  0.81873488205E+01 -0.29490214119E+03  0.29910788127E+03  0.47000000000E+01 0. -1.
<mgrwt>
<rscale>  0 0.27311582E+03</rscale>
<asrwt>0</asrwt>
<pdfrwt beam="1">  1        2 0.19916473E+00 0.27311582E+03</pdfrwt>
<pdfrwt beam="2">  1       -2 0.22161267E-02 0.27311582E+03</pdfrwt>
<totfact> 0.11726692E+04</totfact>
</mgrwt>
</event>
<event>
 9    1  0.2073852E-002  0.2747536E+03  0.7818608E-02  0.1098589E+00
         -2   -1    0    0    0  501 -0.00000000000E+00  0.00000000000E+00  0.29660956926E+02  0.29660956926E+02  0.00000000000E+00 0.  1.
          2   -1    0    0  501    0  0.00000000000E+00 -0.00000000000E+00 -0.63627013694E+03  0.63627013694E+03  0.00000000000E+00 0.  1.
         36    2    1    2    0    0  0.00000000000E+00 -0.35527136788E-14 -0.60660918001E+03  0.66593109386E+03  0.27475357049E+03 0.  0.
         25    2    3    3    0    0 -0.20377415276E+02  0.22471411164E+02 -0.28113337259E+03  0.31042621978E+03  0.12809473592E+03 0.  0.
         25    2    3    3    0    0  0.20377415276E+02 -0.22471411164E+02 -0.32547580742E+03  0.35550487408E+03  0.13974623754E+03 0.  0.
          5    1    4    4  502    0 -0.59086675901E+02 -0.50660290382E+00 -0.24624828873E+03  0.25328205941E+03  0.47000000000E+01 0. -1.
         -5    1    4    4    0  502  0.38709260625E+02  0.22978014068E+02 -0.34885083862E+02  0.57144160373E+02  0.47000000000E+01 0. -1.
          5    1    5    5  503    0 -0.56373277158E+02 -0.62563486513E+01 -0.19552735363E+03  0.20364214764E+03  0.47000000000E+01 0. -1.
         -5    1    5    5    0  503  0.76750692434E+02 -0.16215062513E+02 -0.12994845379E+03  0.15186272644E+03  0.47000000000E+01 0. -1.
<mgrwt>
<rscale>  0 0.27475357E+03</rscale>
<asrwt>0</asrwt>
<pdfrwt beam="1">  1        2 0.97887700E-01 0.27475357E+03</pdfrwt>
<pdfrwt beam="2">  1       -2 0.45632247E-02 0.27475357E+03</pdfrwt>
<totfact> 0.10546731E+04</totfact>
</mgrwt>
</event>
<event>
 9    1  0.2073852E-002  0.2744227E+03  0.7818608E-02  0.1098775E+00
          2   -1    0    0  501    0  0.00000000000E+00  0.00000000000E+00  0.12014367314E+03  0.12014367314E+03  0.00000000000E+00 0.  1.
         -2   -1    0    0    0  501 -0.00000000000E+00 -0.00000000000E+00 -0.15670368403E+03  0.15670368403E+03  0.00000000000E+00 0.  1.
         36    2    1    2    0    0  0.35527136788E-14  0.00000000000E+00 -0.36560010898E+02  0.27684735717E+03  0.27442271184E+03 0.  0.
         25    2    3    3    0    0 -0.97573459340E+01 -0.63342765658E+01  0.36344190890E+02  0.13111542125E+03  0.12543932644E+03 0.  0.
         25    2    3    3    0    0  0.97573459340E+01  0.63342765658E+01 -0.72904201788E+02  0.14573193592E+03  0.12564810245E+03 0.  0.
          5    1    4    4  502    0  0.15715627105E+02 -0.44648601184E+02 -0.25437292238E+02  0.53940933987E+02  0.47000000000E+01 0. -1.
         -5    1    4    4    0  502 -0.25472973039E+02  0.38314324618E+02  0.61781483129E+02  0.77174487261E+02  0.47000000000E+01 0. -1.
          5    1    5    5  503    0 -0.13261532966E+02 -0.49095103584E+02  0.14512320189E+00  0.51071601828E+02  0.47000000000E+01 0. -1.
         -5    1    5    5    0  503  0.23018878900E+02  0.55429380150E+02 -0.73049324990E+02  0.94660334096E+02  0.47000000000E+01 0. -1.
<mgrwt>
<rscale>  0 0.27442271E+03</rscale>
<asrwt>0</asrwt>
<pdfrwt beam="1">  1        2 0.18483642E-01 0.27442271E+03</pdfrwt>
<pdfrwt beam="2">  1       -2 0.24108259E-01 0.27442271E+03</pdfrwt>
<totfact> 0.45848789E+03</totfact>
</mgrwt>
</event>
<event>
 9    1  0.2073852E-002  0.2650217E+03  0.7818608E-02  0.1104163E+00
          2   -1    0    0  501    0  0.00000000000E+00  0.00000000000E+00  0.67825408281E+02  0.67825408281E+02  0.00000000000E+00 0.  1.
         -2   -1    0    0    0  501 -0.00000000000E+00 -0.00000000000E+00 -0.25888718861E+03  0.25888718861E+03  0.00000000000E+00 0.  1.
         36    2    1    2    0    0 -0.35527136788E-14  0.00000000000E+00 -0.19106178033E+03  0.32671259690E+03  0.26502172942E+03 0.  0.
         25    2    3    3    0    0  0.11653813678E+02  0.13080511947E+02 -0.14432300269E+03  0.19144482790E+03  0.12455955145E+03 0.  0.
         25    2    3    3    0    0 -0.11653813678E+02 -0.13080511947E+02 -0.46738777642E+02  0.13526776899E+03  0.12572169593E+03 0.  0.
          5    1    4    4  502    0 -0.16189786032E+02  0.23291688333E+02 -0.15644355453E+03  0.15906378491E+03  0.47000000000E+01 0.  1.
         -5    1    4    4    0  502  0.27843599710E+02 -0.10211176386E+02  0.12120551839E+02  0.32381042987E+02  0.47000000000E+01 0.  1.
          5    1    5    5  503    0  0.53260674204E+02  0.15150144954E+02 -0.15088791760E+02  0.57584615529E+02  0.47000000000E+01 0.  1.
         -5    1    5    5    0  503 -0.64914487882E+02 -0.28230656901E+02 -0.31649985882E+02  0.77683153466E+02  0.47000000000E+01 0.  1.
<mgrwt>
<rscale>  0 0.26502173E+03</rscale>
<asrwt>0</asrwt>
<pdfrwt beam="1">  1        2 0.10434678E-01 0.26502173E+03</pdfrwt>
<pdfrwt beam="2">  1       -2 0.39828798E-01 0.26502173E+03</pdfrwt>
<totfact> 0.36259365E+03</totfact>
</mgrwt>
</event>
<event>
 9    1  0.2073852E-002  0.2741733E+03  0.7818608E-02  0.1098915E+00
          3   -1    0    0  501    0  0.00000000000E+00  0.00000000000E+00  0.15310277343E+03  0.15310277343E+03  0.00000000000E+00 0. -1.
         -3   -1    0    0    0  501 -0.00000000000E+00 -0.00000000000E+00 -0.12274598085E+03  0.12274598085E+03  0.00000000000E+00 0. -1.
         36    2    1    2    0    0 -0.71054273576E-14 -0.35527136788E-14  0.30356792581E+02  0.27584875428E+03  0.27417330355E+03 0.  0.
         25    2    3    3    0    0 -0.50765786270E+02  0.16094626776E+01 -0.83759255365E+00  0.13747519438E+03  0.12774573215E+03 0.  0.
         25    2    3    3    0    0  0.50765786270E+02 -0.16094626776E+01  0.31194385134E+02  0.13837355990E+03  0.12487752796E+03 0.  0.
          5    1    4    4  502    0  0.40490012700E+02  0.17978785614E+02 -0.26070586703E+01  0.44626949431E+02  0.47000000000E+01 0.  1.
         -5    1    4    4    0  502 -0.91255798971E+02 -0.16369322937E+02  0.17694661166E+01  0.92848244946E+02  0.47000000000E+01 0.  1.
          5    1    5    5  503    0  0.28909115007E+02 -0.62394730079E+02  0.24963889578E+02  0.73308424175E+02  0.47000000000E+01 0.  1.
         -5    1    5    5    0  503  0.21856671263E+02  0.60785267402E+02  0.62304955564E+01  0.65065135723E+02  0.47000000000E+01 0.  1.
<mgrwt>
<rscale>  0 0.27417330E+03</rscale>
<asrwt>0</asrwt>
<pdfrwt beam="1">  1        3 0.23554273E-01 0.27417330E+03</pdfrwt>
<pdfrwt beam="2">  1       -3 0.18883997E-01 0.27417330E+03</pdfrwt>
<totfact> 0.10573648E+03</totfact>
</mgrwt>
</event>
<event>
 9    1  0.2073852E-002  0.2750514E+03  0.7818608E-02  0.1098423E+00
          4   -1    0    0  501    0  0.00000000000E+00  0.00000000000E+00  0.81927513703E+02  0.81927513703E+02  0.00000000000E+00 0. -1.
         -4   -1    0    0    0  501 -0.00000000000E+00 -0.00000000000E+00 -0.23085425936E+03  0.23085425936E+03  0.00000000000E+00 0. -1.
         36    2    1    2    0    0  0.71054273576E-14  0.71054273576E-14 -0.14892674566E+03  0.31278177307E+03  0.27505138064E+03 0.  0.
         25    2    3    3    0    0  0.34564706005E+02 -0.39509527937E+02 -0.10891183543E+03  0.17490447521E+03  0.12638855112E+03 0.  0.
         25    2    3    3    0    0 -0.34564706005E+02  0.39509527937E+02 -0.40014910234E+02  0.13787729785E+03  0.12105054533E+03 0.  0.
          5    1    4    4  502    0  0.50390036368E+02  0.36286482848E+01 -0.11744253235E+03  0.12793420676E+03  0.47000000000E+01 0.  1.
         -5    1    4    4    0  502 -0.15825330363E+02 -0.43138176222E+02  0.85306969236E+01  0.46970268456E+02  0.47000000000E+01 0.  1.
          5    1    5    5  503    0 -0.83507511215E+01  0.96265732806E+01 -0.80091245251E+02  0.81234866427E+02  0.47000000000E+01 0.  1.
         -5    1    5    5    0  503 -0.26213954883E+02  0.29882954656E+02  0.40076335018E+02  0.56642431428E+02  0.47000000000E+01 0.  1.
<mgrwt>
<rscale>  0 0.27505138E+03</rscale>
<asrwt>0</asrwt>
<pdfrwt beam="1">  1        4 0.12604233E-01 0.27505138E+03</pdfrwt>
<pdfrwt beam="2">  1       -4 0.35516039E-01 0.27505138E+03</pdfrwt>
<totfact> 0.73549050E+02</totfact>
</mgrwt>
</event>
<event>
 9    1  0.2073852E-002  0.2738324E+03  0.7818608E-02  0.1099106E+00
         -2   -1    0    0    0  501 -0.00000000000E+00  0.00000000000E+00  0.12676825917E+03  0.12676825917E+03  0.00000000000E+00 0. -1.
          2   -1    0    0  501    0  0.00000000000E+00 -0.00000000000E+00 -0.14787653587E+03  0.14787653587E+03  0.00000000000E+00 0. -1.
         36    2    1    2    0    0  0.00000000000E+00 -0.35527136788E-14 -0.21108276696E+02  0.27464479504E+03  0.27383243800E+03 0.  0.
         25    2    3    3    0    0  0.19079148486E+02  0.29847940180E+02  0.31733991286E+02  0.13218566837E+03  0.12333325294E+03 0.  0.
         25    2    3    3    0    0 -0.19079148486E+02 -0.29847940180E+02 -0.52842267982E+02  0.14245912667E+03  0.12746522681E+03 0.  0.
          5    1    4    4  502    0 -0.28552543451E+02 -0.23653728905E+02  0.45717224928E+02  0.59049989702E+02  0.47000000000E+01 0.  1.
         -5    1    4    4    0  502  0.47631691936E+02  0.53501669085E+02 -0.13983233643E+02  0.73135678671E+02  0.47000000000E+01 0.  1.
          5    1    5    5  503    0 -0.14900362760E+02  0.39590309791E+02  0.15047990107E+02  0.45143609138E+02  0.47000000000E+01 0.  1.
         -5    1    5    5    0  503 -0.41787857252E+01 -0.69438249971E+02 -0.67890258089E+02  0.97315517533E+02  0.47000000000E+01 0.  1.
<mgrwt>
<rscale>  0 0.27383244E+03</rscale>
<asrwt>0</asrwt>
<pdfrwt beam="1">  1        2 0.22750236E-01 0.27383244E+03</pdfrwt>
<pdfrwt beam="2">  1       -2 0.19502809E-01 0.27383244E+03</pdfrwt>
<totfact> 0.52182106E+03</totfact>
</mgrwt>
</event>
<event>
 9    1  0.2073852E-002  0.2716985E+03  0.7818608E-02  0.1100311E+00
          1   -1    0    0  501    0  0.00000000000E+00  0.00000000000E+00  0.18231091149E+04  0.18231091149E+04  0.00000000000E+00 0.  1.
         -1   -1    0    0    0  501 -0.00000000000E+00 -0.00000000000E+00 -0.10122827332E+02  0.10122827332E+02  0.00000000000E+00 0.  1.
         36    2    1    2    0    0 -0.71054273576E-14 -0.71054273576E-14  0.18129862876E+04  0.18332319422E+04  0.27169850038E+03 0.  0.
         25    2    3    3    0    0  0.17041741492E+02 -0.33664378151E+02  0.12236021665E+04  0.12304789076E+04  0.12430755719E+03 0.  0.
         25    2    3    3    0    0 -0.17041741492E+02  0.33664378151E+02  0.58938412105E+03  0.60275303465E+03  0.12047351298E+03 0.  0.
          5    1    4    4  502    0 -0.33875209346E+02  0.22098226140E+02  0.72772668823E+03  0.72886492862E+03  0.47000000000E+01 0. -1.
         -5    1    4    4    0  502  0.50916950838E+02 -0.55762604291E+02  0.49587547827E+03  0.50161397894E+03  0.47000000000E+01 0. -1.
          5    1    5    5  503    0  0.44678042510E+02  0.17228312691E+02  0.12442469511E+03  0.13340366184E+03  0.47000000000E+01 0.  1.
         -5    1    5    5    0  503 -0.61719784002E+02  0.16436065460E+02  0.46495942594E+03  0.46934937281E+03  0.47000000000E+01 0.  1.
<mgrwt>
<rscale>  0 0.27169850E+03</rscale>
<asrwt>0</asrwt>
<pdfrwt beam="1">  1        1 0.28047806E+00 0.27169850E+03</pdfrwt>
<pdfrwt beam="2">  1       -1 0.15573595E-02 0.27169850E+03</pdfrwt>
<totfact> 0.43433433E+03</totfact>
</mgrwt>
</event>
<event>
 9    1  0.2073852E-002  0.2748822E+03  0.7818608E-02  0.1098517E+00
          1   -1    0    0  501    0  0.00000000000E+00  0.00000000000E+00  0.24518065724E+03  0.24518065724E+03  0.00000000000E+00 0.  1.
         -1   -1    0    0    0  501 -0.00000000000E+00 -0.00000000000E+00 -0.77045485079E+02  0.77045485079E+02  0.00000000000E+00 0.  1.
         36    2    1    2    0    0  0.71054273576E-14  0.35527136788E-14  0.16813517216E+03  0.32222614232E+03  0.27488224875E+03 0.  0.
         25    2    3    3    0    0 -0.51344220837E+02 -0.90849178719E+01  0.10585970462E+03  0.17211016758E+03  0.12528714210E+03 0.  0.
         25    2    3    3    0    0  0.51344220837E+02  0.90849178719E+01  0.62275467544E+02  0.15011597474E+03  0.12624502869E+03 0.  0.
          5    1    4    4  502    0 -0.44339045854E+02 -0.26253956223E+02 -0.11662884132E+02  0.53040871702E+02  0.47000000000E+01 0. -1.
         -5    1    4    4    0  502 -0.70051749834E+01  0.17169038351E+02  0.11752258875E+03  0.11906929588E+03  0.47000000000E+01 0. -1.
          5    1    5    5  503    0 -0.16725942845E+00 -0.25240326457E+02 -0.29631736065E+02  0.39207548222E+02  0.47000000000E+01 0.  1.
         -5    1    5    5    0  503  0.51511480266E+02  0.34325244328E+02  0.91907203609E+02  0.11090842652E+03  0.47000000000E+01 0.  1.
<mgrwt>
<rscale>  0 0.27488225E+03</rscale>
<asrwt>0</asrwt>
<pdfrwt beam="1">  1        1 0.37720101E-01 0.27488225E+03</pdfrwt>
<pdfrwt beam="2">  1       -1 0.11853152E-01 0.27488225E+03</pdfrwt>
<totfact> 0.52508989E+03</totfact>
</mgrwt>
</event>
<event>
 9    1  0.2073852E-002  0.2786674E+03  0.7818608E-02  0.1096419E+00
         -2   -1    0    0    0  501 -0.00000000000E+00  0.00000000000E+00  0.12474307930E+02  0.12474307930E+02  0.00000000000E+00 0.  1.
          2   -1    0    0  501    0  0.00000000000E+00 -0.00000000000E+00 -0.15563095114E+04  0.15563095114E+04  0.00000000000E+00 0.  1.
         36    2    1    2    0    0  0.14210854715E-13  0.35527136788E-14 -0.15438352035E+04  0.15687838193E+04  0.27866742959E+03 0.  0.
         25    2    3    3    0    0 -0.61659672403E+02  0.68981865815E+01 -0.71383633778E+03  0.72742210302E+03  0.12542367659E+03 0.  0.
         25    2    3    3    0    0  0.61659672403E+02 -0.68981865815E+01 -0.82999886571E+03  0.84136171633E+03  0.12305251093E+03 0.  0.
          5    1    4    4  502    0 -0.54154658808E+02 -0.14037065391E+02 -0.69669253836E+03  0.69895089190E+03  0.47000000000E+01 0. -1.
         -5    1    4    4    0  502 -0.75050135948E+01  0.20935251972E+02 -0.17143799414E+02  0.28471211119E+02  0.47000000000E+01 0. -1.
          5    1    5    5  503    0  0.74090258530E+02  0.38144811345E+02 -0.38805642877E+03  0.39693107078E+03  0.47000000000E+01 0.  1.
         -5    1    5    5    0  503 -0.12430586128E+02 -0.45042997926E+02 -0.44194243694E+03  0.44443064555E+03  0.47000000000E+01 0.  1.
<mgrwt>
<rscale>  0 0.27866743E+03</rscale>
<asrwt>0</asrwt>
<pdfrwt beam="1">  1        2 0.23943228E+00 0.27866743E+03</pdfrwt>
<pdfrwt beam="2">  1       -2 0.19191239E-02 0.27866743E+03</pdfrwt>
<totfact> 0.10461832E+04</totfact>
</mgrwt>
</event>
<event>
 9    1  0.2073852E-002  0.2746732E+03  0.7818608E-02  0.1098634E+00
          2   -1    0    0  501    0  0.00000000000E+00  0.00000000000E+00  0.12051286640E+04  0.12051286640E+04  0.00000000000E+00 0.  1.
         -2   -1    0    0    0  501 -0.00000000000E+00 -0.00000000000E+00 -0.15650899906E+02  0.15650899906E+02  0.00000000000E+00 0.  1.
         36    2    1    2    0    0 -0.14210854715E-13 -0.71054273576E-14  0.11894777641E+04  0.12207795639E+04  0.27467324657E+03 0.  0.
         25    2    3    3    0    0  0.35247779626E+02 -0.42462972642E+02  0.53849914458E+03  0.55549047370E+03  0.12467087727E+03 0.  0.
         25    2    3    3    0    0 -0.35247779626E+02  0.42462972642E+02  0.65097861955E+03  0.66528909025E+03  0.12566184973E+03 0.  0.
          5    1    4    4  502    0  0.48410218600E+02 -0.11576756149E+02  0.71409182622E+02  0.87171852742E+02  0.47000000000E+01 0.  1.
         -5    1    4    4    0  502 -0.13162438974E+02 -0.30886216493E+02  0.46708996196E+03  0.46831862095E+03  0.47000000000E+01 0.  1.
          5    1    5    5  503    0 -0.40696901025E+01  0.72907172687E+02  0.55467800299E+03  0.55948350753E+03  0.47000000000E+01 0.  1.
         -5    1    5    5    0  503 -0.31178089523E+02 -0.30444200045E+02  0.96300616568E+02  0.10580558272E+03  0.47000000000E+01 0.  1.
<mgrwt>
<rscale>  0 0.27467325E+03</rscale>
<asrwt>0</asrwt>
<pdfrwt beam="1">  1        2 0.18540434E+00 0.27467325E+03</pdfrwt>
<pdfrwt beam="2">  1       -2 0.24078317E-02 0.27467325E+03</pdfrwt>
<totfact> 0.11646082E+04</totfact>
</mgrwt>
</event>
<event>
 9    1  0.2073852E-002  0.2750343E+03  0.7818608E-02  0.1098432E+00
         -2   -1    0    0    0  501 -0.00000000000E+00  0.00000000000E+00  0.37507094353E+02  0.37507094353E+02  0.00000000000E+00 0.  1.
          2   -1    0    0  501    0  0.00000000000E+00 -0.00000000000E+00 -0.50419699241E+03  0.50419699241E+03  0.00000000000E+00 0.  1.
         36    2    1    2    0    0  0.00000000000E+00 -0.71054273576E-14 -0.46668989805E+03  0.54170408676E+03  0.27503428271E+03 0.  0.
         25    2    3    3    0    0  0.25496245626E+02 -0.47304848164E+02 -0.22219106495E+03  0.26171749763E+03  0.12743379466E+03 0.  0.
         25    2    3    3    0    0 -0.25496245626E+02  0.47304848164E+02 -0.24449883310E+03  0.27998658913E+03  0.12539937600E+03 0.  0.
          5    1    4    4  502    0 -0.10722039835E+02 -0.78316351728E+02 -0.18443875370E+03  0.20071909962E+03  0.47000000000E+01 0.  1.
         -5    1    4    4    0  502  0.36218285460E+02  0.31011503564E+02 -0.37752311248E+02  0.60998398008E+02  0.47000000000E+01 0.  1.
          5    1    5    5  503    0  0.29064550013E+02  0.18715868051E+02 -0.20203114688E+03  0.20502123328E+03  0.47000000000E+01 0.  1.
         -5    1    5    5    0  503 -0.54560795638E+02  0.28588980113E+02 -0.42467686219E+02  0.74965355848E+02  0.47000000000E+01 0.  1.
<mgrwt>
<rscale>  0 0.27503428E+03</rscale>
<asrwt>0</asrwt>
<pdfrwt beam="1">  1        2 0.77568772E-01 0.27503428E+03</pdfrwt>
<pdfrwt beam="2">  1       -2 0.57703219E-02 0.27503428E+03</pdfrwt>
<totfact> 0.96372662E+03</totfact>
</mgrwt>
</event>
<event>
 9    1  0.2073852E-002  0.2753069E+03  0.7818608E-02  0.1098280E+00
          2   -1    0    0  501    0  0.00000000000E+00  0.00000000000E+00  0.14629201598E+04  0.14629201598E+04  0.00000000000E+00 0. -1.
         -2   -1    0    0    0  501 -0.00000000000E+00 -0.00000000000E+00 -0.12952498184E+02  0.12952498184E+02  0.00000000000E+00 0. -1.
         36    2    1    2    0    0 -0.71054273576E-14  0.00000000000E+00  0.14499676616E+04  0.14758726579E+04  0.27530688849E+03 0.  0.
         25    2    3    3    0    0 -0.28607282519E+02  0.36919812275E+02  0.48012577361E+03  0.49699160719E+03  0.11957612632E+03 0.  0.
         25    2    3    3    0    0  0.28607282519E+02 -0.36919812275E+02  0.96984188797E+03  0.97888105076E+03  0.12423113422E+03 0.  0.
          5    1    4    4  502    0 -0.11760185589E+01  0.59446662153E+02  0.10992655559E+03  0.12506488829E+03  0.47000000000E+01 0. -1.
         -5    1    4    4    0  502 -0.27431263960E+02 -0.22526849878E+02  0.37019921802E+03  0.37192671890E+03  0.47000000000E+01 0. -1.
          5    1    5    5  503    0  0.11098264517E+02  0.40593270317E+02  0.17445498256E+03  0.17952051696E+03  0.47000000000E+01 0.  1.
         -5    1    5    5    0  503  0.17509018001E+02 -0.77513082592E+02  0.79538690541E+03  0.79936053379E+03  0.47000000000E+01 0.  1.
<mgrwt>
<rscale>  0 0.27530689E+03</rscale>
<asrwt>0</asrwt>
<pdfrwt beam="1">  1        2 0.22506451E+00 0.27530689E+03</pdfrwt>
<pdfrwt beam="2">  1       -2 0.19926932E-02 0.27530689E+03</pdfrwt>
<totfact> 0.11102742E+04</totfact>
</mgrwt>
</event>
<event>
 9    1  0.2073852E-002  0.2756730E+03  0.7818608E-02  0.1098076E+00
         -1   -1    0    0    0  501 -0.00000000000E+00  0.00000000000E+00  0.10379504061E+03  0.10379504061E+03  0.00000000000E+00 0.  1.
          1   -1    0    0  501    0  0.00000000000E+00 -0.00000000000E+00 -0.18304242063E+03  0.18304242063E+03  0.00000000000E+00 0.  1.
         36    2    1    2    0    0  0.00000000000E+00 -0.21316282073E-13 -0.79247380019E+02  0.28683746125E+03  0.27567296192E+03 0.  0.
         25    2    3    3    0    0  0.44706518055E+02 -0.32508223942E+02 -0.62524840343E+02  0.14865365910E+03  0.12301665466E+03 0.  0.
         25    2    3    3    0    0 -0.44706518055E+02  0.32508223942E+02 -0.16722539675E+02  0.13818380214E+03  0.12553749424E+03 0.  0.
          5    1    4    4  502    0 -0.15523338532E+02 -0.64480208779E+02 -0.29411250631E+02  0.72703390753E+02  0.47000000000E+01 0. -1.
         -5    1    4    4    0  502  0.60229856587E+02  0.31971984837E+02 -0.33113589712E+02  0.75950268350E+02  0.47000000000E+01 0. -1.
          5    1    5    5  503    0 -0.48727920837E+02  0.76684137139E+02 -0.21007209635E+02  0.93371623176E+02  0.47000000000E+01 0.  1.
         -5    1    5    5    0  503  0.40214027823E+01 -0.44175913197E+02  0.42846699598E+01  0.44812178967E+02  0.47000000000E+01 0.  1.
<mgrwt>
<rscale>  0 0.27567296E+03</rscale>
<asrwt>0</asrwt>
<pdfrwt beam="1">  1        1 0.28160372E-01 0.27567296E+03</pdfrwt>
<pdfrwt beam="2">  1       -1 0.15968468E-01 0.27567296E+03</pdfrwt>
<totfact> 0.47423150E+03</totfact>
</mgrwt>
</event>
<event>
 9    1  0.2073852E-002  0.2752989E+03  0.7818608E-02  0.1098285E+00
         -1   -1    0    0    0  501 -0.00000000000E+00  0.00000000000E+00  0.55809287758E+02  0.55809287758E+02  0.00000000000E+00 0.  1.
          1   -1    0    0  501    0  0.00000000000E+00 -0.00000000000E+00 -0.33950217703E+03  0.33950217703E+03  0.00000000000E+00 0.  1.
         36    2    1    2    0    0  0.00000000000E+00  0.71054273576E-14 -0.28369288927E+03  0.39531146479E+03  0.27529892620E+03 0.  0.
         25    2    3    3    0    0  0.39045344154E+02  0.49540724572E+02 -0.13778824142E+03  0.19520567597E+03  0.12304809697E+03 0.  0.
         25    2    3    3    0    0 -0.39045344154E+02 -0.49540724572E+02 -0.14590464785E+03  0.20010578882E+03  0.12155384881E+03 0.  0.
          5    1    4    4  502    0  0.40496902412E+02 -0.53390905639E+01 -0.13378480486E+03  0.13996059805E+03  0.47000000000E+01 0. -1.
         -5    1    4    4    0  502 -0.14515582580E+01  0.54879815135E+02 -0.40034365521E+01  0.55245077925E+02  0.47000000000E+01 0. -1.
          5    1    5    5  503    0 -0.81451400776E+01 -0.40855327557E+02  0.81193840645E+01  0.42702640366E+02  0.47000000000E+01 0.  1.
         -5    1    5    5    0  503 -0.30900204076E+02 -0.86853970146E+01 -0.15402403192E+03  0.15740314845E+03  0.47000000000E+01 0.  1.
<mgrwt>
<rscale>  0 0.27529893E+03</rscale>
<asrwt>0</asrwt>
<pdfrwt beam="1">  1        1 0.52231104E-01 0.27529893E+03</pdfrwt>
<pdfrwt beam="2">  1       -1 0.85860443E-02 0.27529893E+03</pdfrwt>
<totfact> 0.57417763E+03</totfact>
</mgrwt>
</event>
<event>
 9    1  0.2073852E-002  0.2755473E+03  0.7818608E-02  0.1098146E+00
          2   -1    0    0  501    0  0.00000000000E+00  0.00000000000E+00  0.48982786695E+03  0.48982786695E+03  0.00000000000E+00 0.  1.
         -2   -1    0    0    0  501 -0.00000000000E+00 -0.00000000000E+00 -0.38751515092E+02  0.38751515092E+02  0.00000000000E+00 0.  1.
         36    2    1    2    0    0  0.00000000000E+00  0.00000000000E+00  0.45107635186E+03  0.52857938204E+03  0.27554725169E+03 0.  0.
         25    2    3    3    0    0  0.10425976058E+02 -0.54299274284E+02  0.17543440373E+03  0.22188870746E+03  0.12409776920E+03 0.  0.
         25    2    3    3    0    0 -0.10425976058E+02  0.54299274284E+02  0.27564194813E+03  0.30669067458E+03  0.12257069039E+03 0.  0.
          5    1    4    4  502    0 -0.51621678579E+02 -0.29840942419E+02  0.12352506381E+03  0.13724361892E+03  0.47000000000E+01 0. -1.
         -5    1    4    4    0  502  0.62047654637E+02 -0.24458331865E+02  0.51909339921E+02  0.84645088544E+02  0.47000000000E+01 0. -1.
          5    1    5    5  503    0  0.11938299433E+02  0.43495220185E+02  0.27765383086E+03  0.28133271577E+03  0.47000000000E+01 0. -1.
         -5    1    5    5    0  503 -0.22364275491E+02  0.10804054099E+02 -0.20118827273E+01  0.25357958816E+02  0.47000000000E+01 0. -1.
<mgrwt>
<rscale>  0 0.27554725E+03</rscale>
<asrwt>0</asrwt>
<pdfrwt beam="1">  1        2 0.75358129E-01 0.27554725E+03</pdfrwt>
<pdfrwt beam="2">  1       -2 0.59617719E-02 0.27554725E+03</pdfrwt>
<totfact> 0.94689106E+03</totfact>
</mgrwt>
</event>
<event>
 9    1  0.2073852E-002  0.2759952E+03  0.7818608E-02  0.1097897E+00
         -1   -1    0    0    0  501 -0.00000000000E+00  0.00000000000E+00  0.15307999308E+02  0.15307999308E+02  0.00000000000E+00 0.  1.
          1   -1    0    0  501    0  0.00000000000E+00 -0.00000000000E+00 -0.12440118299E+04  0.12440118299E+04  0.00000000000E+00 0.  1.
         36    2    1    2    0    0 -0.35527136788E-14  0.00000000000E+00 -0.12287038306E+04  0.12593198292E+04  0.27599516105E+03 0.  0.
         25    2    3    3    0    0 -0.16089264568E+02 -0.22649733211E+02 -0.38937307198E+03  0.41026191237E+03  0.12622033396E+03 0.  0.
         25    2    3    3    0    0  0.16089264568E+02  0.22649733211E+02 -0.83933075859E+03  0.84905791682E+03  0.12510535142E+03 0.  0.
          5    1    4    4  502    0  0.12098012067E+02  0.49081823574E+02 -0.18319382062E+03  0.19009853554E+03  0.47000000000E+01 0.  1.
         -5    1    4    4    0  502 -0.28187276634E+02 -0.71731556786E+02 -0.20617925136E+03  0.22016337683E+03  0.47000000000E+01 0.  1.
          5    1    5    5  503    0  0.50801713442E+02  0.14231260603E+02 -0.76098238586E+03  0.76282345562E+03  0.47000000000E+01 0. -1.
         -5    1    5    5    0  503 -0.34712448874E+02  0.84184726084E+01 -0.78348372731E+02  0.86234461194E+02  0.47000000000E+01 0. -1.
<mgrwt>
<rscale>  0 0.27599516E+03</rscale>
<asrwt>0</asrwt>
<pdfrwt beam="1">  1        1 0.19138644E+00 0.27599516E+03</pdfrwt>
<pdfrwt beam="2">  1       -1 0.23550767E-02 0.27599516E+03</pdfrwt>
<totfact> 0.57528316E+03</totfact>
</mgrwt>
</event>
<event>
 9    1  0.2073852E-002  0.2753332E+03  0.7818608E-02  0.1098266E+00
          1   -1    0    0  501    0  0.00000000000E+00  0.00000000000E+00  0.69809038935E+03  0.69809038935E+03  0.00000000000E+00 0.  1.
         -1   -1    0    0    0  501 -0.00000000000E+00 -0.00000000000E+00 -0.27148472103E+02  0.27148472103E+02  0.00000000000E+00 0.  1.
         36    2    1    2    0    0  0.00000000000E+00  0.00000000000E+00  0.67094191725E+03  0.72523886146E+03  0.27533316154E+03 0.  0.
         25    2    3    3    0    0  0.50313459427E+02  0.70329978241E+01  0.36742213137E+03  0.39087560969E+03  0.12330374029E+03 0.  0.
         25    2    3    3    0    0 -0.50313459427E+02 -0.70329978241E+01  0.30351978588E+03  0.33436325177E+03  0.13074255794E+03 0.  0.
          5    1    4    4  502    0  0.86976763349E+02  0.26851239593E+02  0.26291093639E+03  0.27826281984E+03  0.47000000000E+01 0. -1.
         -5    1    4    4    0  502 -0.36663303922E+02 -0.19818241769E+02  0.10451119498E+03  0.11261278985E+03  0.47000000000E+01 0. -1.
          5    1    5    5  503    0 -0.20748746200E+02  0.39666388829E+02  0.25997481990E+03  0.26384262327E+03  0.47000000000E+01 0.  1.
         -5    1    5    5    0  503 -0.29564713227E+02 -0.46699386653E+02  0.43544965979E+02  0.70520628500E+02  0.47000000000E+01 0.  1.
<mgrwt>
<rscale>  0 0.27533316E+03</rscale>
<asrwt>0</asrwt>
<pdfrwt beam="1">  1        1 0.10739851E+00 0.27533316E+03</pdfrwt>
<pdfrwt beam="2">  1       -1 0.41766885E-02 0.27533316E+03</pdfrwt>
<totfact> 0.65073952E+03</totfact>
</mgrwt>
</event>
<event>
 9    1  0.2073852E-002  0.2746122E+03  0.7818608E-02  0.1098669E+00
          1   -1    0    0  501    0  0.00000000000E+00  0.00000000000E+00  0.13516663327E+03  0.13516663327E+03  0.00000000000E+00 0.  1.
         -1   -1    0    0    0  501 -0.00000000000E+00 -0.00000000000E+00 -0.13947939202E+03  0.13947939202E+03  0.00000000000E+00 0.  1.
         36    2    1    2    0    0  0.35527136788E-14  0.00000000000E+00 -0.43127587491E+01  0.27464602528E+03  0.27461216163E+03 0.  0.
         25    2    3    3    0    0  0.19315635047E+02 -0.50461276508E+02 -0.69099623564E+01  0.13831391405E+03  0.12713597860E+03 0.  0.
         25    2    3    3    0    0 -0.19315635047E+02  0.50461276508E+02  0.25972036074E+01  0.13633211124E+03  0.12514098011E+03 0.  0.
          5    1    4    4  502    0  0.99593369104E+01  0.20741675868E+02  0.44194440124E+02  0.50046418927E+02  0.47000000000E+01 0. -1.
         -5    1    4    4    0  502  0.93562981362E+01 -0.71202952377E+02 -0.51104402480E+02  0.88267495120E+02  0.47000000000E+01 0. -1.
          5    1    5    5  503    0 -0.48342858969E+02  0.76052002127E+02 -0.18340194402E+02  0.92083612937E+02  0.47000000000E+01 0. -1.
         -5    1    5    5    0  503  0.29027223922E+02 -0.25590725619E+02  0.20937398009E+02  0.44248498299E+02  0.47000000000E+01 0. -1.
<mgrwt>
<rscale>  0 0.27461216E+03</rscale>
<asrwt>0</asrwt>
<pdfrwt beam="1">  1        1 0.20794867E-01 0.27461216E+03</pdfrwt>
<pdfrwt beam="2">  1       -1 0.21458368E-01 0.27461216E+03</pdfrwt>
<totfact> 0.43314393E+03</totfact>
</mgrwt>
</event>
<event>
 9    1  0.2073852E-002  0.2745470E+03  0.7818608E-02  0.1098705E+00
          2   -1    0    0  501    0  0.00000000000E+00  0.00000000000E+00  0.70154343601E+03  0.70154343601E+03  0.00000000000E+00 0.  1.
         -2   -1    0    0    0  501 -0.00000000000E+00 -0.00000000000E+00 -0.26860790068E+02  0.26860790068E+02  0.00000000000E+00 0.  1.
         36    2    1    2    0    0  0.00000000000E+00  0.71054273576E-14  0.67468264594E+03  0.72840422608E+03  0.27454697928E+03 0.  0.
         25    2    3    3    0    0 -0.57595541684E+01  0.51711698503E+02  0.35546147259E+03  0.38182987138E+03  0.12935965351E+03 0.  0.
         25    2    3    3    0    0  0.57595541684E+01 -0.51711698503E+02  0.31922117336E+03  0.34657435470E+03  0.12451647920E+03 0.  0.
          5    1    4    4  502    0 -0.30845142438E+02 -0.54839617826E+01  0.13936481777E+02  0.34609423185E+02  0.47000000000E+01 0.  1.
         -5    1    4    4    0  502  0.25085588270E+02  0.57195660285E+02  0.34152499081E+03  0.34722044819E+03  0.47000000000E+01 0.  1.
          5    1    5    5  503    0  0.42629354085E+02 -0.23550245303E+02  0.39193418655E+02  0.62690429488E+02  0.47000000000E+01 0.  1.
         -5    1    5    5    0  503 -0.36869799916E+02 -0.28161453200E+02  0.28002775470E+03  0.28388392521E+03  0.47000000000E+01 0.  1.
<mgrwt>
<rscale>  0 0.27454698E+03</rscale>
<asrwt>0</asrwt>
<pdfrwt beam="1">  1        2 0.10792975E+00 0.27454698E+03</pdfrwt>
<pdfrwt beam="2">  1       -2 0.41324298E-02 0.27454698E+03</pdfrwt>
<totfact> 0.10898797E+04</totfact>
</mgrwt>
</event>
<event>
 9    1  0.2073852E-002  0.2705394E+03  0.7818608E-02  0.1100971E+00
          2   -1    0    0  501    0  0.00000000000E+00  0.00000000000E+00  0.16127323370E+04  0.16127323370E+04  0.00000000000E+00 0.  1.
         -2   -1    0    0    0  501 -0.00000000000E+00 -0.00000000000E+00 -0.11345892557E+02  0.11345892557E+02  0.00000000000E+00 0.  1.
         36    2    1    2    0    0  0.00000000000E+00 -0.71054273576E-14  0.16013864444E+04  0.16240782295E+04  0.27053937103E+03 0.  0.
         25    2    3    3    0    0 -0.11977595304E+02 -0.16483456087E+02  0.50977350184E+03  0.52495752201E+03  0.12367784616E+03 0.  0.
         25    2    3    3    0    0  0.11977595304E+02  0.16483456087E+02  0.10916129426E+04  0.10991207075E+04  0.12661890131E+03 0.  0.
          5    1    4    4  502    0  0.27674967116E+02 -0.52636330277E+02  0.37672581487E+03  0.38141960707E+03  0.47000000000E+01 0. -1.
         -5    1    4    4    0  502 -0.39652562421E+02  0.36152874190E+02  0.13304768696E+03  0.14353791494E+03  0.47000000000E+01 0. -1.
          5    1    5    5  503    0  0.19993088251E+02 -0.30261630340E+02  0.92767158493E+03  0.92839223895E+03  0.47000000000E+01 0.  1.
         -5    1    5    5    0  503 -0.80154929471E+01  0.46745086427E+02  0.16394135766E+03  0.17072846858E+03  0.47000000000E+01 0.  1.
<mgrwt>
<rscale>  0 0.27053937E+03</rscale>
<asrwt>0</asrwt>
<pdfrwt beam="1">  1        2 0.24811249E+00 0.27053937E+03</pdfrwt>
<pdfrwt beam="2">  1       -2 0.17455232E-02 0.27053937E+03</pdfrwt>
<totfact> 0.11217109E+04</totfact>
</mgrwt>
</event>
<event>
 9    1  0.2073852E-002  0.2753756E+03  0.7818608E-02  0.1098242E+00
         -2   -1    0    0    0  501 -0.00000000000E+00  0.00000000000E+00  0.17296678036E+02  0.17296678036E+02  0.00000000000E+00 0. -1.
          2   -1    0    0  501    0  0.00000000000E+00 -0.00000000000E+00 -0.10960447727E+04  0.10960447727E+04  0.00000000000E+00 0. -1.
         36    2    1    2    0    0 -0.71054273576E-14  0.00000000000E+00 -0.10787480947E+04  0.11133414508E+04  0.27537562381E+03 0.  0.
         25    2    3    3    0    0  0.36686491401E+02 -0.38282959564E+01 -0.35472452203E+03  0.37806422830E+03  0.12546919816E+03 0.  0.
         25    2    3    3    0    0 -0.36686491401E+02  0.38282959564E+01 -0.72402357267E+03  0.73527722248E+03  0.12272695550E+03 0.  0.
          5    1    4    4  502    0  0.62385058632E+02  0.43030477155E+02 -0.23245708622E+03  0.24454427909E+03  0.47000000000E+01 0.  1.
         -5    1    4    4    0  502 -0.25698567231E+02 -0.46858773111E+02 -0.12226743582E+03  0.13351994921E+03  0.47000000000E+01 0.  1.
          5    1    5    5  503    0 -0.46421372501E+02  0.46728175769E+02 -0.59954420385E+03  0.60316980080E+03  0.47000000000E+01 0.  1.
         -5    1    5    5    0  503  0.97348810999E+01 -0.42899879813E+02 -0.12447936883E+03  0.13210742168E+03  0.47000000000E+01 0.  1.
<mgrwt>
<rscale>  0 0.27537562E+03</rscale>
<asrwt>0</asrwt>
<pdfrwt beam="1">  1        2 0.16862222E+00 0.27537562E+03</pdfrwt>
<pdfrwt beam="2">  1       -2 0.26610282E-02 0.27537562E+03</pdfrwt>
<totfact> 0.11611844E+04</totfact>
</mgrwt>
</event>
<event>
 9    1  0.2073852E-002  0.2750858E+03  0.7818608E-02  0.1098404E+00
          2   -1    0    0  501    0  0.00000000000E+00  0.00000000000E+00  0.10948011608E+03  0.10948011608E+03  0.00000000000E+00 0. -1.
         -2   -1    0    0    0  501 -0.00000000000E+00 -0.00000000000E+00 -0.17279892245E+03  0.17279892245E+03  0.00000000000E+00 0. -1.
         36    2    1    2    0    0 -0.71054273576E-14  0.00000000000E+00 -0.63318806366E+02  0.28227903853E+03  0.27508577635E+03 0.  0.
         25    2    3    3    0    0  0.39908563439E+02 -0.40526441287E+02 -0.36936860084E+02  0.14403762708E+03  0.12707250097E+03 0.  0.
         25    2    3    3    0    0 -0.39908563439E+02  0.40526441287E+02 -0.26381946281E+02  0.13824141145E+03  0.12320549854E+03 0.  0.
          5    1    4    4  502    0  0.24630792039E+02 -0.45081512722E+02 -0.81512308006E+02  0.96464320151E+02  0.47000000000E+01 0. -1.
         -5    1    4    4    0  502  0.15277771400E+02  0.45550714346E+01  0.44575447922E+02  0.47573306929E+02  0.47000000000E+01 0. -1.
          5    1    5    5  503    0 -0.93510656358E+00 -0.18583663122E+02 -0.57605020202E+02  0.60717833556E+02  0.47000000000E+01 0. -1.
         -5    1    5    5    0  503 -0.38973456875E+02  0.59110104409E+02  0.31223073921E+02  0.77523577892E+02  0.47000000000E+01 0. -1.
<mgrwt>
<rscale>  0 0.27508578E+03</rscale>
<asrwt>0</asrwt>
<pdfrwt beam="1">  1        2 0.16843095E-01 0.27508578E+03</pdfrwt>
<pdfrwt beam="2">  1       -2 0.26584450E-01 0.27508578E+03</pdfrwt>
<totfact> 0.42977044E+03</totfact>
</mgrwt>
</event>
<event>
 9    1  0.2073852E-002  0.2753181E+03  0.7818608E-02  0.1098274E+00
         -1   -1    0    0    0  501 -0.00000000000E+00  0.00000000000E+00  0.27665599978E+03  0.27665599978E+03  0.00000000000E+00 0.  1.
          1   -1    0    0  501    0  0.00000000000E+00 -0.00000000000E+00 -0.68496644904E+02  0.68496644904E+02  0.00000000000E+00 0.  1.
         36    2    1    2    0    0 -0.71054273576E-14  0.14210854715E-13  0.20815935487E+03  0.34515264468E+03  0.27531805446E+03 0.  0.
         25    2    3    3    0    0  0.49037449702E+02 -0.21048205120E+02  0.82269798293E+02  0.15904996534E+03  0.12522329397E+03 0.  0.
         25    2    3    3    0    0 -0.49037449702E+02  0.21048205120E+02  0.12588955658E+03  0.18610267934E+03  0.12624709260E+03 0.  0.
          5    1    4    4  502    0 -0.10308111378E+01  0.38219170283E+02 -0.86029815532E+01  0.39469847229E+02  0.47000000000E+01 0. -1.
         -5    1    4    4    0  502  0.50068260840E+02 -0.59267375402E+02  0.90872779846E+02  0.11958011811E+03  0.47000000000E+01 0. -1.
          5    1    5    5  503    0 -0.11515105637E+02 -0.52416438237E+02  0.41547042934E+02  0.68031811911E+02  0.47000000000E+01 0. -1.
         -5    1    5    5    0  503 -0.37522344065E+02  0.73464643357E+02  0.84342513647E+02  0.11807086743E+03  0.47000000000E+01 0. -1.
<mgrwt>
<rscale>  0 0.27531805E+03</rscale>
<asrwt>0</asrwt>
<pdfrwt beam="1">  1        1 0.10537946E-01 0.27531805E+03</pdfrwt>
<pdfrwt beam="2">  1       -1 0.42562461E-01 0.27531805E+03</pdfrwt>
<totfact> 0.32857905E+03</totfact>
</mgrwt>
</event>
<event>
 9    1  0.2073852E-002  0.2754717E+03  0.7818608E-02  0.1098188E+00
          2   -1    0    0  501    0  0.00000000000E+00  0.00000000000E+00  0.14804774729E+04  0.14804774729E+04  0.00000000000E+00 0. -1.
         -2   -1    0    0    0  501 -0.00000000000E+00 -0.00000000000E+00 -0.12814222877E+02  0.12814222877E+02  0.00000000000E+00 0. -1.
         36    2    1    2    0    0  0.00000000000E+00  0.71054273576E-14  0.14676632500E+04  0.14932916958E+04  0.27547172850E+03 0.  0.
         25    2    3    3    0    0 -0.26189815821E+02  0.26991329087E+02  0.98001582834E+03  0.98835239201E+03  0.12245402689E+03 0.  0.
         25    2    3    3    0    0  0.26189815821E+02 -0.26991329087E+02  0.48764742167E+03  0.50493930375E+03  0.12549603305E+03 0.  0.
          5    1    4    4  502    0 -0.30884530842E+02 -0.44937805580E+02  0.35863770040E+03  0.36278967841E+03  0.47000000000E+01 0. -1.
         -5    1    4    4    0  502  0.46947150202E+01  0.71929134666E+02  0.62137812794E+03  0.62556271360E+03  0.47000000000E+01 0. -1.
          5    1    5    5  503    0  0.49659180837E+02 -0.66533677144E+02  0.27358461932E+03  0.28594299846E+03  0.47000000000E+01 0. -1.
         -5    1    5    5    0  503 -0.23469365015E+02  0.39542348057E+02  0.21406280235E+03  0.21899630530E+03  0.47000000000E+01 0. -1.
<mgrwt>
<rscale>  0 0.27547173E+03</rscale>
<asrwt>0</asrwt>
<pdfrwt beam="1">  1        2 0.22776563E+00 0.27547173E+03</pdfrwt>
<pdfrwt beam="2">  1       -2 0.19714201E-02 0.27547173E+03</pdfrwt>
<totfact> 0.11037204E+04</totfact>
</mgrwt>
</event>
<event>
 9    1  0.2073852E-002  0.2744541E+03  0.7818608E-02  0.1098757E+00
         -2   -1    0    0    0  501 -0.00000000000E+00  0.00000000000E+00  0.88387836362E+03  0.88387836362E+03  0.00000000000E+00 0.  1.
          2   -1    0    0  501    0  0.00000000000E+00 -0.00000000000E+00 -0.21305268779E+02  0.21305268779E+02  0.00000000000E+00 0.  1.
         36    2    1    2    0    0  0.35527136788E-14  0.00000000000E+00  0.86257309484E+03  0.90518363240E+03  0.27445412079E+03 0.  0.
         25    2    3    3    0    0  0.51925445425E+01 -0.34654263344E+02  0.57578064272E+03  0.59042295507E+03  0.12588898626E+03 0.  0.
         25    2    3    3    0    0 -0.51925445425E+01  0.34654263344E+02  0.28679245212E+03  0.31476067732E+03  0.12488591958E+03 0.  0.
          5    1    4    4  502    0 -0.26248726823E+02 -0.11020246964E+02  0.24877772420E+02  0.38097704177E+02  0.47000000000E+01 0. -1.
         -5    1    4    4    0  502  0.31441271365E+02 -0.23634016380E+02  0.55090287030E+03  0.55232525090E+03  0.47000000000E+01 0. -1.
          5    1    5    5  503    0  0.36848167357E+02 -0.84434491993E+00  0.23856906767E+03  0.24144521201E+03  0.47000000000E+01 0. -1.
         -5    1    5    5    0  503 -0.42040711899E+02  0.35498608264E+02  0.48223384453E+02  0.73315465311E+02  0.47000000000E+01 0. -1.
<mgrwt>
<rscale>  0 0.27445412E+03</rscale>
<asrwt>0</asrwt>
<pdfrwt beam="1">  1        2 0.32777343E-02 0.27445412E+03</pdfrwt>
<pdfrwt beam="2">  1       -2 0.13598126E+00 0.27445412E+03</pdfrwt>
<totfact> 0.11313764E+03</totfact>
</mgrwt>
</event>
<event>
 9    1  0.2073852E-002  0.2754827E+03  0.7818608E-02  0.1098182E+00
          1   -1    0    0  501    0  0.00000000000E+00  0.00000000000E+00  0.64213537237E+03  0.64213537237E+03  0.00000000000E+00 0.  1.
         -1   -1    0    0    0  501 -0.00000000000E+00 -0.00000000000E+00 -0.29546239289E+02  0.29546239289E+02  0.00000000000E+00 0.  1.
         36    2    1    2    0    0  0.00000000000E+00  0.00000000000E+00  0.61258913308E+03  0.67168161165E+03  0.27548274260E+03 0.  0.
         25    2    3    3    0    0  0.28033926949E+02  0.51679774268E+02  0.23638299252E+03  0.27336651176E+03  0.12407912986E+03 0.  0.
         25    2    3    3    0    0 -0.28033926949E+02 -0.51679774268E+02  0.37620614055E+03  0.39831509990E+03  0.11690662295E+03 0.  0.
          5    1    4    4  502    0 -0.12907351927E+02  0.39163396981E+02  0.22503157037E+03  0.22882672279E+03  0.47000000000E+01 0. -1.
         -5    1    4    4    0  502  0.40941278877E+02  0.12516377287E+02  0.11351422152E+02  0.44539788968E+02  0.47000000000E+01 0. -1.
          5    1    5    5  503    0 -0.25863889641E+02  0.17127636976E+01  0.31827022700E+03  0.31935857863E+03  0.47000000000E+01 0. -1.
         -5    1    5    5    0  503 -0.21700373085E+01 -0.53392537966E+02  0.57935913548E+02  0.78956521270E+02  0.47000000000E+01 0. -1.
<mgrwt>
<rscale>  0 0.27548274E+03</rscale>
<asrwt>0</asrwt>
<pdfrwt beam="1">  1        1 0.98790047E-01 0.27548274E+03</pdfrwt>
<pdfrwt beam="2">  1       -1 0.45455758E-02 0.27548274E+03</pdfrwt>
<totfact> 0.64678360E+03</totfact>
</mgrwt>
</event>
<event>
 9    1  0.2073852E-002  0.2752970E+03  0.7818608E-02  0.1098286E+00
          2   -1    0    0  501    0  0.00000000000E+00  0.00000000000E+00  0.24126857137E+03  0.24126857137E+03  0.00000000000E+00 0. -1.
         -2   -1    0    0    0  501 -0.00000000000E+00 -0.00000000000E+00 -0.78531196113E+02  0.78531196113E+02  0.00000000000E+00 0. -1.
         36    2    1    2    0    0  0.71054273576E-14 -0.71054273576E-14  0.16273737526E+03  0.31979976748E+03  0.27529699958E+03 0.  0.
         25    2    3    3    0    0  0.10430257855E+02  0.32297502148E+02  0.12525481018E+03  0.18586263090E+03  0.13305724770E+03 0.  0.
         25    2    3    3    0    0 -0.10430257855E+02 -0.32297502148E+02  0.37482565079E+02  0.13393713659E+03  0.12402538026E+03 0.  0.
          5    1    4    4  502    0  0.23219800557E+02 -0.45767887322E+02  0.78338329222E+02  0.93770157690E+02  0.47000000000E+01 0.  1.
         -5    1    4    4    0  502 -0.12789542702E+02  0.78065389471E+02  0.46916480957E+02  0.92092473206E+02  0.47000000000E+01 0.  1.
          5    1    5    5  503    0  0.36374475846E+02 -0.26714896143E+02 -0.27848793778E+02  0.53239397855E+02  0.47000000000E+01 0.  1.
         -5    1    5    5    0  503 -0.46804733701E+02 -0.55826060052E+01  0.65331358857E+02  0.80697738734E+02  0.47000000000E+01 0.  1.
<mgrwt>
<rscale>  0 0.27529700E+03</rscale>
<asrwt>0</asrwt>
<pdfrwt beam="1">  1        2 0.37118241E-01 0.27529700E+03</pdfrwt>
<pdfrwt beam="2">  1       -2 0.12081723E-01 0.27529700E+03</pdfrwt>
<totfact> 0.67289248E+03</totfact>
</mgrwt>
</event>
<event>
 9    1  0.2073852E-002  0.2741728E+03  0.7818608E-02  0.1098915E+00
         -1   -1    0    0    0  501 -0.00000000000E+00  0.00000000000E+00  0.19793643832E+02  0.19793643832E+02  0.00000000000E+00 0.  1.
          1   -1    0    0  501    0  0.00000000000E+00 -0.00000000000E+00 -0.94942982573E+03  0.94942982573E+03  0.00000000000E+00 0.  1.
         36    2    1    2    0    0  0.14210854715E-13 -0.71054273576E-14 -0.92963618189E+03  0.96922346956E+03  0.27417276170E+03 0.  0.
         25    2    3    3    0    0  0.70251345981E+02 -0.21678297886E+02 -0.44512241942E+03  0.46466081203E+03  0.11122275734E+03 0.  0.
         25    2    3    3    0    0 -0.70251345981E+02  0.21678297886E+02 -0.48451376247E+03  0.50456265753E+03  0.12010282736E+03 0.  0.
          5    1    4    4  502    0 -0.29017647411E+02 -0.66697468590E+01 -0.68123739213E+02  0.74494585231E+02  0.47000000000E+01 0. -1.
         -5    1    4    4    0  502  0.99268993392E+02 -0.15008551027E+02 -0.37699868021E+03  0.39016622680E+03  0.47000000000E+01 0. -1.
          5    1    5    5  503    0  0.10577286801E+01  0.16207192808E+01 -0.35687300231E+03  0.35690919755E+03  0.47000000000E+01 0. -1.
         -5    1    5    5    0  503 -0.71309074661E+02  0.20057578606E+02 -0.12764076016E+03  0.14765345998E+03  0.47000000000E+01 0. -1.
<mgrwt>
<rscale>  0 0.27417276E+03</rscale>
<asrwt>0</asrwt>
<pdfrwt beam="1">  1        1 0.14606613E+00 0.27417276E+03</pdfrwt>
<pdfrwt beam="2">  1       -1 0.30451760E-02 0.27417276E+03</pdfrwt>
<totfact> 0.64401978E+03</totfact>
</mgrwt>
</event>
<event>
 9    1  0.2073852E-002  0.2740898E+03  0.7818608E-02  0.1098961E+00
         -2   -1    0    0    0  501 -0.00000000000E+00  0.00000000000E+00  0.16644532897E+03  0.16644532897E+03  0.00000000000E+00 0.  1.
          2   -1    0    0  501    0  0.00000000000E+00 -0.00000000000E+00 -0.11283763883E+03  0.11283763883E+03  0.00000000000E+00 0.  1.
         36    2    1    2    0    0  0.28421709430E-13 -0.71054273576E-14  0.53607690143E+02  0.27928296781E+03  0.27408975111E+03 0.  0.
         25    2    3    3    0    0 -0.58815008976E+02  0.17025445458E+02  0.48025068648E+02  0.14074770973E+03  0.11727932256E+03 0.  0.
         25    2    3    3    0    0  0.58815008976E+02 -0.17025445458E+02  0.55826214944E+01  0.13853525808E+03  0.12414419437E+03 0.  0.
          5    1    4    4  502    0 -0.21814527876E+00  0.57401344803E+01 -0.36459330729E+02  0.37207116637E+02  0.47000000000E+01 0.  1.
         -5    1    4    4    0  502 -0.58596863697E+02  0.11285310978E+02  0.84484399378E+02  0.10354059309E+03  0.47000000000E+01 0.  1.
          5    1    5    5  503    0 -0.11720822124E+02 -0.51466956003E+02  0.23361768746E+02  0.57914484116E+02  0.47000000000E+01 0. -1.
         -5    1    5    5    0  503  0.70535831099E+02  0.34441510545E+02 -0.17779147252E+02  0.80620773964E+02  0.47000000000E+01 0. -1.
<mgrwt>
<rscale>  0 0.27408975E+03</rscale>
<asrwt>0</asrwt>
<pdfrwt beam="1">  1        2 0.17359637E-01 0.27408975E+03</pdfrwt>
<pdfrwt beam="2">  1       -2 0.25606974E-01 0.27408975E+03</pdfrwt>
<totfact> 0.44336633E+03</totfact>
</mgrwt>
</event>
<event>
 9    1  0.2073852E-002  0.2750900E+03  0.7818608E-02  0.1098401E+00
          2   -1    0    0  501    0  0.00000000000E+00  0.00000000000E+00  0.12833710259E+04  0.12833710259E+04  0.00000000000E+00 0. -1.
         -2   -1    0    0    0  501 -0.00000000000E+00 -0.00000000000E+00 -0.14741349915E+02  0.14741349915E+02  0.00000000000E+00 0. -1.
         36    2    1    2    0    0  0.62172489379E-14  0.00000000000E+00  0.12686296760E+04  0.12981123758E+04  0.27508995884E+03 0.  0.
         25    2    3    3    0    0  0.51679595098E+01 -0.40113561355E+02  0.78454406125E+03  0.79557533943E+03  0.12567788611E+03 0.  0.
         25    2    3    3    0    0 -0.51679595098E+01  0.40113561355E+02  0.48408561477E+03  0.50253703642E+03  0.12871979233E+03 0.  0.
          5    1    4    4  502    0 -0.59024858695E+02 -0.15571800048E+02  0.30243868339E+03  0.30857359270E+03  0.47000000000E+01 0.  1.
         -5    1    4    4    0  502  0.64192818205E+02 -0.24541761307E+02  0.48210537785E+03  0.48700174672E+03  0.47000000000E+01 0.  1.
          5    1    5    5  503    0 -0.95277646303E+01 -0.44495915175E+02  0.23454578602E+03  0.23896543789E+03  0.47000000000E+01 0.  1.
         -5    1    5    5    0  503  0.43598051205E+01  0.84609476529E+02  0.24953982875E+03  0.26357159853E+03  0.47000000000E+01 0.  1.
<mgrwt>
<rscale>  0 0.27508996E+03</rscale>
<asrwt>0</asrwt>
<pdfrwt beam="1">  1        2 0.19744161E+00 0.27508996E+03</pdfrwt>
<pdfrwt beam="2">  1       -2 0.22679010E-02 0.27508996E+03</pdfrwt>
<totfact> 0.11499433E+04</totfact>
</mgrwt>
</event>
<event>
 9    1  0.2073852E-002  0.2757603E+03  0.7818608E-02  0.1098027E+00
         -2   -1    0    0    0  501 -0.00000000000E+00  0.00000000000E+00  0.32941381323E+02  0.32941381323E+02  0.00000000000E+00 0.  1.
          2   -1    0    0  501    0  0.00000000000E+00 -0.00000000000E+00 -0.57711406938E+03  0.57711406938E+03  0.00000000000E+00 0.  1.
         36    2    1    2    0    0  0.00000000000E+00  0.00000000000E+00 -0.54417268806E+03  0.61005545071E+03  0.27576029175E+03 0.  0.
         25    2    3    3    0    0 -0.18791900169E+02  0.14811955316E+02 -0.15980901816E+03  0.20504262931E+03  0.12621817625E+03 0.  0.
         25    2    3    3    0    0  0.18791900169E+02 -0.14811955316E+02 -0.38436366990E+03  0.40501282140E+03  0.12540903168E+03 0.  0.
          5    1    4    4  502    0  0.40728539104E+02 -0.17444126450E+02 -0.11601503997E+03  0.12427667096E+03  0.47000000000E+01 0.  1.
         -5    1    4    4    0  502 -0.59520439273E+02  0.32256081766E+02 -0.43793978188E+02  0.80765958347E+02  0.47000000000E+01 0.  1.
          5    1    5    5  503    0  0.58301613782E+02 -0.36836948774E+02 -0.31184310907E+03  0.31941235675E+03  0.47000000000E+01 0.  1.
         -5    1    5    5    0  503 -0.39509713612E+02  0.22024993458E+02 -0.72520560823E+02  0.85600464652E+02  0.47000000000E+01 0.  1.
<mgrwt>
<rscale>  0 0.27576029E+03</rscale>
<asrwt>0</asrwt>
<pdfrwt beam="1">  1        2 0.88786775E-01 0.27576029E+03</pdfrwt>
<pdfrwt beam="2">  1       -2 0.50679051E-02 0.27576029E+03</pdfrwt>
<totfact> 0.10079392E+04</totfact>
</mgrwt>
</event>
<event>
 9    1  0.2073852E-002  0.2761661E+03  0.7818608E-02  0.1097802E+00
         -1   -1    0    0    0  501 -0.00000000000E+00  0.00000000000E+00  0.77397467822E+02  0.77397467822E+02  0.00000000000E+00 0. -1.
          1   -1    0    0  501    0  0.00000000000E+00 -0.00000000000E+00 -0.24635074972E+03  0.24635074972E+03  0.00000000000E+00 0. -1.
         36    2    1    2    0    0 -0.71054273576E-14  0.00000000000E+00 -0.16895328190E+03  0.32374821754E+03  0.27616606761E+03 0.  0.
         25    2    3    3    0    0  0.38547995889E+02 -0.37958662161E+02 -0.66352992102E+02  0.15029553960E+03  0.12352822205E+03 0.  0.
         25    2    3    3    0    0 -0.38547995889E+02  0.37958662161E+02 -0.10260028980E+03  0.17345267795E+03  0.12896590247E+03 0.  0.
          5    1    4    4  502    0  0.57847085319E+02 -0.14436515233E+02 -0.92334156046E+02  0.11001083867E+03  0.47000000000E+01 0.  1.
         -5    1    4    4    0  502 -0.19299089431E+02 -0.23522146928E+02  0.25981163944E+02  0.40284700928E+02  0.47000000000E+01 0.  1.
          5    1    5    5  503    0 -0.36111883175E+01  0.12960657841E+02  0.30417646193E+02  0.33590810241E+02  0.47000000000E+01 0.  1.
         -5    1    5    5    0  503 -0.34936807571E+02  0.24998004320E+02 -0.13301793599E+03  0.13986186771E+03  0.47000000000E+01 0.  1.
<mgrwt>
<rscale>  0 0.27616607E+03</rscale>
<asrwt>0</asrwt>
<pdfrwt beam="1">  1        1 0.37900115E-01 0.27616607E+03</pdfrwt>
<pdfrwt beam="2">  1       -1 0.11907303E-01 0.27616607E+03</pdfrwt>
<totfact> 0.51833697E+03</totfact>
</mgrwt>
</event>
<event>
 9    1  0.2073852E-002  0.2795294E+03  0.7818608E-02  0.1095946E+00
         -2   -1    0    0    0  501 -0.00000000000E+00  0.00000000000E+00  0.12241262846E+03  0.12241262846E+03  0.00000000000E+00 0.  1.
          2   -1    0    0  501    0  0.00000000000E+00 -0.00000000000E+00 -0.15957649292E+03  0.15957649292E+03  0.00000000000E+00 0.  1.
         36    2    1    2    0    0 -0.71054273576E-14  0.35527136788E-14 -0.37163864456E+02  0.28198912138E+03  0.27952944703E+03 0.  0.
         25    2    3    3    0    0  0.46767350748E+02 -0.95685555933E+01 -0.58757964255E+02  0.14766261841E+03  0.12677936804E+03 0.  0.
         25    2    3    3    0    0 -0.46767350748E+02  0.95685555933E+01  0.21594099799E+02  0.13432650297E+03  0.12368735547E+03 0.  0.
          5    1    4    4  502    0  0.38799733975E+02 -0.62949488949E+02 -0.56955198282E+02  0.93456097323E+02  0.47000000000E+01 0.  1.
         -5    1    4    4    0  502  0.79676167728E+01  0.53380933356E+02 -0.18027659725E+01  0.54206521085E+02  0.47000000000E+01 0.  1.
          5    1    5    5  503    0  0.19641697449E+02  0.32018111935E+02 -0.29050392890E+02  0.47717618315E+02  0.47000000000E+01 0.  1.
         -5    1    5    5    0  503 -0.66409048197E+02 -0.22449556342E+02  0.50644492689E+02  0.86608884660E+02  0.47000000000E+01 0.  1.
<mgrwt>
<rscale>  0 0.27952945E+03</rscale>
<asrwt>0</asrwt>
<pdfrwt beam="1">  1        2 0.24550230E-01 0.27952945E+03</pdfrwt>
<pdfrwt beam="2">  1       -2 0.18832712E-01 0.27952945E+03</pdfrwt>
<totfact> 0.50873312E+03</totfact>
</mgrwt>
</event>
<event>
 9    1  0.2073852E-002  0.2746228E+03  0.7818608E-02  0.1098663E+00
          2   -1    0    0  501    0  0.00000000000E+00  0.00000000000E+00  0.13368435639E+04  0.13368435639E+04  0.00000000000E+00 0. -1.
         -2   -1    0    0    0  501 -0.00000000000E+00 -0.00000000000E+00 -0.14103686649E+02  0.14103686649E+02  0.00000000000E+00 0. -1.
         36    2    1    2    0    0  0.17763568394E-14  0.35527136788E-14  0.13227398772E+04  0.13509472505E+04  0.27462281568E+03 0.  0.
         25    2    3    3    0    0  0.57952433694E+01  0.17406028137E+02  0.89597143705E+03  0.90604466479E+03  0.13347495612E+03 0.  0.
         25    2    3    3    0    0 -0.57952433694E+01 -0.17406028137E+02  0.42676844017E+03  0.44490258573E+03  0.12438028223E+03 0.  0.
          5    1    4    4  502    0  0.96272483005E+01  0.35496332271E+02  0.64827643133E+02  0.74681904292E+02  0.47000000000E+01 0. -1.
         -5    1    4    4    0  502 -0.38320049312E+01 -0.18090304134E+02  0.83114379392E+03  0.83136276049E+03  0.47000000000E+01 0. -1.
          5    1    5    5  503    0 -0.23302117676E+02 -0.67828555488E+02  0.25879576116E+03  0.26859083682E+03  0.47000000000E+01 0. -1.
         -5    1    5    5    0  503  0.17506874307E+02  0.50422527351E+02  0.16797267901E+03  0.17631174892E+03  0.47000000000E+01 0. -1.
<mgrwt>
<rscale>  0 0.27462282E+03</rscale>
<asrwt>0</asrwt>
<pdfrwt beam="1">  1        2 0.20566814E+00 0.27462282E+03</pdfrwt>
<pdfrwt beam="2">  1       -2 0.21697990E-02 0.27462282E+03</pdfrwt>
<totfact> 0.11466679E+04</totfact>
</mgrwt>
</event>
<event>
 9    1  0.2073852E-002  0.2745310E+03  0.7818608E-02  0.1098714E+00
         -1   -1    0    0    0  501 -0.00000000000E+00  0.00000000000E+00  0.44568279235E+02  0.44568279235E+02  0.00000000000E+00 0. -1.
          1   -1    0    0  501    0  0.00000000000E+00 -0.00000000000E+00 -0.42276293073E+03  0.42276293073E+03  0.00000000000E+00 0. -1.
         36    2    1    2    0    0 -0.17763568394E-14  0.71054273576E-14 -0.37819465149E+03  0.46733120996E+03  0.27453099167E+03 0.  0.
         25    2    3    3    0    0 -0.13449844365E+02  0.55958951498E+02 -0.10486738661E+03  0.17410378345E+03  0.12650160502E+03 0.  0.
         25    2    3    3    0    0  0.13449844365E+02 -0.55958951498E+02 -0.27332726488E+03  0.29322742651E+03  0.89231313805E+02 0.  0.
          5    1    4    4  502    0  0.93360627756E+01  0.44884076403E+02  0.17317595408E+02  0.49231407591E+02  0.47000000000E+01 0.  1.
         -5    1    4    4    0  502 -0.22785907141E+02  0.11074875095E+02 -0.12218498202E+03  0.12487237586E+03  0.47000000000E+01 0.  1.
          5    1    5    5  503    0  0.89494234341E+01  0.23442125239E+02 -0.84774777725E+02  0.88535181447E+02  0.47000000000E+01 0.  1.
         -5    1    5    5    0  503  0.45004209313E+01 -0.79401076737E+02 -0.18855248716E+03  0.20469224506E+03  0.47000000000E+01 0.  1.
<mgrwt>
<rscale>  0 0.27453099E+03</rscale>
<asrwt>0</asrwt>
<pdfrwt beam="1">  1        1 0.65040450E-01 0.27453099E+03</pdfrwt>
<pdfrwt beam="2">  1       -1 0.68566584E-02 0.27453099E+03</pdfrwt>
<totfact> 0.61136719E+03</totfact>
</mgrwt>
</event>
<event>
 9    1  0.2073852E-002  0.2750625E+03  0.7818608E-02  0.1098417E+00
         -2   -1    0    0    0  501 -0.00000000000E+00  0.00000000000E+00  0.13912875142E+03  0.13912875142E+03  0.00000000000E+00 0.  1.
          2   -1    0    0  501    0  0.00000000000E+00 -0.00000000000E+00 -0.13595206439E+03  0.13595206439E+03  0.00000000000E+00 0.  1.
         36    2    1    2    0    0 -0.71054273576E-14  0.26645352591E-14  0.31766870275E+01  0.27508081582E+03  0.27506247270E+03 0.  0.
         25    2    3    3    0    0 -0.40235524397E+02  0.64336405241E+01  0.51671558812E+02  0.13557428153E+03  0.11853331460E+03 0.  0.
         25    2    3    3    0    0  0.40235524397E+02 -0.64336405241E+01 -0.48494871784E+02  0.13950653428E+03  0.12429815511E+03 0.  0.
          5    1    4    4  502    0 -0.62817946572E+02  0.13313947050E+02  0.77174760168E+02  0.10050566752E+03  0.47000000000E+01 0. -1.
         -5    1    4    4    0  502  0.22582422175E+02 -0.68803065257E+01 -0.25503201356E+02  0.35068614010E+02  0.47000000000E+01 0. -1.
          5    1    5    5  503    0 -0.10505081333E+02 -0.29196877682E+02 -0.72310152125E+02  0.78826787963E+02  0.47000000000E+01 0.  1.
         -5    1    5    5    0  503  0.50740605730E+02  0.22763237157E+02  0.23815280341E+02  0.60679746320E+02  0.47000000000E+01 0.  1.
<mgrwt>
<rscale>  0 0.27506247E+03</rscale>
<asrwt>0</asrwt>
<pdfrwt beam="1">  1        2 0.20915702E-01 0.27506247E+03</pdfrwt>
<pdfrwt beam="2">  1       -2 0.21404423E-01 0.27506247E+03</pdfrwt>
<totfact> 0.48941348E+03</totfact>
</mgrwt>
</event>
<event>
 9    1  0.2073852E-002  0.2723615E+03  0.7818608E-02  0.1099936E+00
          4   -1    0    0  501    0  0.00000000000E+00  0.00000000000E+00  0.17247909961E+03  0.17247909961E+03  0.00000000000E+00 0. -1.
         -4   -1    0    0    0  501 -0.00000000000E+00 -0.00000000000E+00 -0.10752141189E+03  0.10752141189E+03  0.00000000000E+00 0. -1.
         36    2    1    2    0    0 -0.14210854715E-13  0.00000000000E+00  0.64957687718E+02  0.28000051149E+03  0.27236149736E+03 0.  0.
         25    2    3    3    0    0 -0.47433932215E+02 -0.17108729529E+02 -0.29743027600E+02  0.13767237604E+03  0.12460477071E+03 0.  0.
         25    2    3    3    0    0  0.47433932215E+02  0.17108729529E+02  0.94700715318E+02  0.14232813545E+03  0.93522115606E+02 0.  0.
          5    1    4    4  502    0 -0.45276778287E+02  0.20359134751E+02 -0.67703468166E+02  0.84085258051E+02  0.47000000000E+01 0.  1.
         -5    1    4    4    0  502 -0.21571539276E+01 -0.37467864280E+02  0.37960440565E+02  0.53587117992E+02  0.47000000000E+01 0.  1.
          5    1    5    5  503    0 -0.94926085727E+01 -0.88091102243E+01  0.75475800396E+02  0.76722855043E+02  0.47000000000E+01 0. -1.
         -5    1    5    5    0  503  0.56926540788E+02  0.25917839754E+02  0.19224914922E+02  0.65605280407E+02  0.47000000000E+01 0. -1.
<mgrwt>
<rscale>  0 0.27236150E+03</rscale>
<asrwt>0</asrwt>
<pdfrwt beam="1">  1        4 0.26535246E-01 0.27236150E+03</pdfrwt>
<pdfrwt beam="2">  1       -4 0.16541756E-01 0.27236150E+03</pdfrwt>
<totfact> 0.79615670E+02</totfact>
</mgrwt>
</event>
<event>
 9    1  0.2073852E-002  0.2731646E+03  0.7818608E-02  0.1099482E+00
         -1   -1    0    0    0  501 -0.00000000000E+00  0.00000000000E+00  0.21357431717E+03  0.21357431717E+03  0.00000000000E+00 0.  1.
          1   -1    0    0  501    0  0.00000000000E+00 -0.00000000000E+00 -0.87345340011E+02  0.87345340011E+02  0.00000000000E+00 0.  1.
         36    2    1    2    0    0  0.00000000000E+00  0.71054273576E-14  0.12622897716E+03  0.30091965718E+03  0.27316457567E+03 0.  0.
         25    2    3    3    0    0 -0.19257366337E+02 -0.42299775978E+02  0.77269251255E+02  0.15799910649E+03  0.12974229555E+03 0.  0.
         25    2    3    3    0    0  0.19257366337E+02  0.42299775978E+02  0.48959725907E+02  0.14292055069E+03  0.12597266308E+03 0.  0.
          5    1    4    4  502    0 -0.58668724370E+02 -0.62780267931E+02  0.73510611013E+02  0.11317809502E+03  0.47000000000E+01 0.  1.
         -5    1    4    4    0  502  0.39411358033E+02  0.20480491953E+02  0.37586402419E+01  0.44821011469E+02  0.47000000000E+01 0.  1.
          5    1    5    5  503    0  0.27548250734E+02 -0.13271067224E+01  0.82472137242E+02  0.87088522505E+02  0.47000000000E+01 0. -1.
         -5    1    5    5    0  503 -0.82908843970E+01  0.43626882700E+02 -0.33512411335E+02  0.55832028189E+02  0.47000000000E+01 0. -1.
<mgrwt>
<rscale>  0 0.27316458E+03</rscale>
<asrwt>0</asrwt>
<pdfrwt beam="1">  1        1 0.13437745E-01 0.27316458E+03</pdfrwt>
<pdfrwt beam="2">  1       -1 0.32857587E-01 0.27316458E+03</pdfrwt>
<totfact> 0.37451245E+03</totfact>
</mgrwt>
</event>
<event>
 9    1  0.2073852E-002  0.2756166E+03  0.7818608E-02  0.1098107E+00
         -2   -1    0    0    0  501 -0.00000000000E+00  0.00000000000E+00  0.73360169835E+02  0.73360169835E+02  0.00000000000E+00 0. -1.
          2   -1    0    0  501    0  0.00000000000E+00 -0.00000000000E+00 -0.25887511636E+03  0.25887511636E+03  0.00000000000E+00 0. -1.
         36    2    1    2    0    0  0.00000000000E+00  0.00000000000E+00 -0.18551494652E+03  0.33223528619E+03  0.27561656338E+03 0.  0.
         25    2    3    3    0    0  0.64413769460E+02  0.60946434254E+00 -0.97036869194E+02  0.16796976247E+03  0.12102967395E+03 0.  0.
         25    2    3    3    0    0 -0.64413769460E+02 -0.60946434254E+00 -0.88478077330E+02  0.16426552373E+03  0.12249606922E+03 0.  0.
          5    1    4    4  502    0  0.29168232249E+02  0.57368241490E+02 -0.23936140748E+02  0.68825356796E+02  0.47000000000E+01 0. -1.
         -5    1    4    4    0  502  0.35245537211E+02 -0.56758777147E+02 -0.73100728446E+02  0.99144405671E+02  0.47000000000E+01 0. -1.
          5    1    5    5  503    0 -0.24417235575E+02 -0.22443000207E+01  0.30052230707E+02  0.39069999311E+02  0.47000000000E+01 0.  1.
         -5    1    5    5    0  503 -0.39996533885E+02  0.16348356782E+01 -0.11853030804E+03  0.12519552442E+03  0.47000000000E+01 0.  1.
<mgrwt>
<rscale>  0 0.27561656E+03</rscale>
<asrwt>0</asrwt>
<pdfrwt beam="1">  1        2 0.39826941E-01 0.27561656E+03</pdfrwt>
<pdfrwt beam="2">  1       -2 0.11286180E-01 0.27561656E+03</pdfrwt>
<totfact> 0.69591264E+03</totfact>
</mgrwt>
</event>
<event>
 9    1  0.2073852E-002  0.2827644E+03  0.7818608E-02  0.1094189E+00
         -1   -1    0    0    0  501 -0.00000000000E+00  0.00000000000E+00  0.70140845640E+03  0.70140845640E+03  0.00000000000E+00 0. -1.
          1   -1    0    0  501    0  0.00000000000E+00 -0.00000000000E+00 -0.28498259855E+02  0.28498259855E+02  0.00000000000E+00 0. -1.
         36    2    1    2    0    0  0.00000000000E+00  0.00000000000E+00  0.67291019654E+03  0.72990671625E+03  0.28276435741E+03 0.  0.
         25    2    3    3    0    0 -0.57583269545E+02 -0.19845727692E+02  0.35815819374E+03  0.38477941802E+03  0.12676049444E+03 0.  0.
         25    2    3    3    0    0  0.57583269545E+02  0.19845727692E+02  0.31475200280E+03  0.34512729823E+03  0.12780587967E+03 0.  0.
          5    1    4    4  502    0 -0.78450637893E+02  0.63115008277E+01  0.11589762599E+03  0.14017377550E+03  0.47000000000E+01 0. -1.
         -5    1    4    4    0  502  0.20867368348E+02 -0.26157228520E+02  0.24226056775E+03  0.24460564252E+03  0.47000000000E+01 0. -1.
          5    1    5    5  503    0  0.41742793515E+02  0.47915412553E+02  0.30432891101E+03  0.31092848639E+03  0.47000000000E+01 0.  1.
         -5    1    5    5    0  503  0.15840476030E+02 -0.28069684861E+02  0.10423091793E+02  0.34198811844E+02  0.47000000000E+01 0.  1.
<mgrwt>
<rscale>  0 0.28276436E+03</rscale>
<asrwt>0</asrwt>
<pdfrwt beam="1">  1        1 0.43843482E-02 0.28276436E+03</pdfrwt>
<pdfrwt beam="2">  1       -1 0.10790898E+00 0.28276436E+03</pdfrwt>
<totfact> 0.16957460E+03</totfact>
</mgrwt>
</event>
<event>
 9    1  0.2073852E-002  0.2746762E+03  0.7818608E-02  0.1098633E+00
         -3   -1    0    0    0  501 -0.00000000000E+00  0.00000000000E+00  0.38481303038E+02  0.38481303038E+02  0.00000000000E+00 0.  1.
          3   -1    0    0  501    0  0.00000000000E+00 -0.00000000000E+00 -0.49015386866E+03  0.49015386866E+03  0.00000000000E+00 0.  1.
         36    2    1    2    0    0  0.71054273576E-14  0.00000000000E+00 -0.45167256562E+03  0.52863517170E+03  0.27467624255E+03 0.  0.
         25    2    3    3    0    0  0.33872173882E+02 -0.45042926504E+02 -0.20781037373E+03  0.24839902403E+03  0.12385771804E+03 0.  0.
         25    2    3    3    0    0 -0.33872173882E+02  0.45042926504E+02 -0.24386219189E+03  0.28023614767E+03  0.12604499369E+03 0.  0.
          5    1    4    4  502    0  0.74609703358E+02 -0.10926827164E+02 -0.80687568044E+02  0.11053767242E+03  0.47000000000E+01 0.  1.
         -5    1    4    4    0  502 -0.40737529477E+02 -0.34116099340E+02 -0.12712280569E+03  0.13786135161E+03  0.47000000000E+01 0.  1.
          5    1    5    5  503    0 -0.73346204214E+02  0.17344365456E+02 -0.20388842775E+03  0.21742371916E+03  0.47000000000E+01 0.  1.
         -5    1    5    5    0  503  0.39474030333E+02  0.27698561049E+02 -0.39973764145E+02  0.62812428506E+02  0.47000000000E+01 0.  1.
<mgrwt>
<rscale>  0 0.27467624E+03</rscale>
<asrwt>0</asrwt>
<pdfrwt beam="1">  1        3 0.75408281E-01 0.27467624E+03</pdfrwt>
<pdfrwt beam="2">  1       -3 0.59202010E-02 0.27467624E+03</pdfrwt>
<totfact> 0.75000253E+02</totfact>
</mgrwt>
</event>
<event>
 9    1  0.2073852E-002  0.2757438E+03  0.7818608E-02  0.1098037E+00
         -2   -1    0    0    0  501 -0.00000000000E+00  0.00000000000E+00  0.77726290946E+02  0.77726290946E+02  0.00000000000E+00 0. -1.
          2   -1    0    0  501    0  0.00000000000E+00 -0.00000000000E+00 -0.24455892198E+03  0.24455892198E+03  0.00000000000E+00 0. -1.
         36    2    1    2    0    0 -0.71054273576E-14  0.71054273576E-14 -0.16683263103E+03  0.32228521292E+03  0.27574377906E+03 0.  0.
         25    2    3    3    0    0 -0.31074190737E+02  0.21574968545E+02 -0.28512374727E+02  0.13424948036E+03  0.12561402337E+03 0.  0.
         25    2    3    3    0    0  0.31074190737E+02 -0.21574968545E+02 -0.13832025631E+03  0.18803573256E+03  0.12163000788E+03 0.  0.
          5    1    4    4  502    0  0.23314246610E+02  0.23976997025E+02 -0.61684875756E+02  0.70324706742E+02  0.47000000000E+01 0. -1.
         -5    1    4    4    0  502 -0.54388437347E+02 -0.24020284795E+01  0.33172501029E+02  0.63924773620E+02  0.47000000000E+01 0. -1.
          5    1    5    5  503    0 -0.41784570315E+02 -0.86164569483E+00 -0.86372984889E+02  0.96068076219E+02  0.47000000000E+01 0.  1.
         -5    1    5    5    0  503  0.72858761052E+02 -0.20713322850E+02 -0.51947271417E+02  0.91967656343E+02  0.47000000000E+01 0.  1.
<mgrwt>
<rscale>  0 0.27574378E+03</rscale>
<asrwt>0</asrwt>
<pdfrwt beam="1">  1        2 0.37624450E-01 0.27574378E+03</pdfrwt>
<pdfrwt beam="2">  1       -2 0.11957891E-01 0.27574378E+03</pdfrwt>
<totfact> 0.67426600E+03</totfact>
</mgrwt>
</event>
<event>
 9    1  0.2073852E-002  0.2749366E+03  0.7818608E-02  0.1098487E+00
         -1   -1    0    0    0  501 -0.00000000000E+00  0.00000000000E+00  0.62188695579E+02  0.62188695579E+02  0.00000000000E+00 0. -1.
          1   -1    0    0  501    0  0.00000000000E+00 -0.00000000000E+00 -0.30387399517E+03  0.30387399517E+03  0.00000000000E+00 0. -1.
         36    2    1    2    0    0 -0.35527136788E-14  0.00000000000E+00 -0.24168529959E+03  0.36606269075E+03  0.27493655545E+03 0.  0.
         25    2    3    3    0    0  0.21283545026E+02  0.51985626187E+02 -0.10231985629E+03  0.17164699336E+03  0.12584849113E+03 0.  0.
         25    2    3    3    0    0 -0.21283545026E+02 -0.51985626187E+02 -0.13936544330E+03  0.19441569739E+03  0.12336629194E+03 0.  0.
          5    1    4    4  502    0  0.21823016259E+02 -0.15928108314E+01 -0.11435972580E+03  0.11652904346E+03  0.47000000000E+01 0. -1.
         -5    1    4    4    0  502 -0.53947123230E+00  0.53578437018E+02  0.12039869513E+02  0.55117949893E+02  0.47000000000E+01 0. -1.
          5    1    5    5  503    0 -0.19132117936E+02 -0.44663903671E+02 -0.16246392288E+03  0.16963937770E+03  0.47000000000E+01 0.  1.
         -5    1    5    5    0  503 -0.21514270906E+01 -0.73217225159E+01  0.23098479575E+02  0.24776319698E+02  0.47000000000E+01 0.  1.
<mgrwt>
<rscale>  0 0.27493656E+03</rscale>
<asrwt>0</asrwt>
<pdfrwt beam="1">  1        1 0.46749845E-01 0.27493656E+03</pdfrwt>
<pdfrwt beam="2">  1       -1 0.95674917E-02 0.27493656E+03</pdfrwt>
<totfact> 0.55913009E+03</totfact>
</mgrwt>
</event>
<event>
 9    1  0.2073852E-002  0.2788474E+03  0.7818608E-02  0.1096320E+00
         -2   -1    0    0    0  501 -0.00000000000E+00  0.00000000000E+00  0.44638002858E+02  0.44638002858E+02  0.00000000000E+00 0. -1.
          2   -1    0    0  501    0  0.00000000000E+00 -0.00000000000E+00 -0.43548025662E+03  0.43548025662E+03  0.00000000000E+00 0. -1.
         36    2    1    2    0    0  0.00000000000E+00 -0.71054273576E-14 -0.39084225377E+03  0.48011825948E+03  0.27884740587E+03 0.  0.
         25    2    3    3    0    0  0.18990328869E+02  0.12808851935E+02 -0.29522973574E+03  0.32160207164E+03  0.12546950360E+03 0.  0.
         25    2    3    3    0    0 -0.18990328869E+02 -0.12808851935E+02 -0.95612518022E+02  0.15851618785E+03  0.12434198377E+03 0.  0.
          5    1    4    4  502    0 -0.40881062832E+02  0.43591691492E+02 -0.13218563138E+03  0.14514347387E+03  0.47000000000E+01 0. -1.
         -5    1    4    4    0  502  0.59871391701E+02 -0.30782839557E+02 -0.16304410437E+03  0.17645859776E+03  0.47000000000E+01 0. -1.
          5    1    5    5  503    0  0.43473349664E+02  0.18570587180E+02 -0.68567343968E+02  0.83416841813E+02  0.47000000000E+01 0.  1.
         -5    1    5    5    0  503 -0.62463678533E+02 -0.31379439115E+02 -0.27045174054E+02  0.75099346033E+02  0.47000000000E+01 0.  1.
<mgrwt>
<rscale>  0 0.27884741E+03</rscale>
<asrwt>0</asrwt>
<pdfrwt beam="1">  1        2 0.66996962E-01 0.27884741E+03</pdfrwt>
<pdfrwt beam="2">  1       -2 0.68673851E-02 0.27884741E+03</pdfrwt>
<totfact> 0.86767474E+03</totfact>
</mgrwt>
</event>
<event>
 9    1  0.2073852E-002  0.2739403E+03  0.7818608E-02  0.1099045E+00
         -2   -1    0    0    0  501 -0.00000000000E+00  0.00000000000E+00  0.60597436016E+03  0.60597436016E+03  0.00000000000E+00 0. -1.
          2   -1    0    0  501    0  0.00000000000E+00 -0.00000000000E+00 -0.30959769945E+02  0.30959769945E+02  0.00000000000E+00 0. -1.
         36    2    1    2    0    0  0.00000000000E+00  0.00000000000E+00  0.57501459021E+03  0.63693413010E+03  0.27394033499E+03 0.  0.
         25    2    3    3    0    0 -0.44698434745E+02 -0.27456097401E+02  0.23295928658E+03  0.26901230618E+03  0.12387818338E+03 0.  0.
         25    2    3    3    0    0  0.44698434745E+02  0.27456097401E+02  0.34205530363E+03  0.36792182393E+03  0.12495139225E+03 0.  0.
          5    1    4    4  502    0 -0.58905530693E+02  0.12101556387E+02  0.42186834972E+02  0.73607936109E+02  0.47000000000E+01 0. -1.
         -5    1    4    4    0  502  0.14207095948E+02 -0.39557653788E+02  0.19077245161E+03  0.19540437007E+03  0.47000000000E+01 0. -1.
          5    1    5    5  503    0  0.40229141411E+02 -0.18778908766E+01  0.21371449839E+02  0.45833821148E+02  0.47000000000E+01 0.  1.
         -5    1    5    5    0  503  0.44692933338E+01  0.29333988277E+02  0.32068385379E+03  0.32208800278E+03  0.47000000000E+01 0.  1.
<mgrwt>
<rscale>  0 0.27394033E+03</rscale>
<asrwt>0</asrwt>
<pdfrwt beam="1">  1        2 0.47630420E-02 0.27394033E+03</pdfrwt>
<pdfrwt beam="2">  1       -2 0.93226816E-01 0.27394033E+03</pdfrwt>
<totfact> 0.16894463E+03</totfact>
</mgrwt>
</event>
<event>
 9    1  0.2073852E-002  0.2747030E+03  0.7818608E-02  0.1098618E+00
          1   -1    0    0  501    0  0.00000000000E+00  0.00000000000E+00  0.15248927049E+03  0.15248927049E+03  0.00000000000E+00 0. -1.
         -1   -1    0    0    0  501 -0.00000000000E+00 -0.00000000000E+00 -0.12371646076E+03  0.12371646076E+03  0.00000000000E+00 0. -1.
         36    2    1    2    0    0  0.14210854715E-13  0.71054273576E-14  0.28772809730E+02  0.27620573126E+03  0.27470298761E+03 0.  0.
         25    2    3    3    0    0 -0.43343235212E+02 -0.39059858047E+02 -0.49496963434E+00  0.13377118790E+03  0.12037515179E+03 0.  0.
         25    2    3    3    0    0  0.43343235212E+02  0.39059858047E+02  0.29267779364E+02  0.14243454336E+03  0.12659655478E+03 0.  0.
          5    1    4    4  502    0 -0.74710485904E+02 -0.18259570511E+02  0.32377528211E+02  0.83579082027E+02  0.47000000000E+01 0. -1.
         -5    1    4    4    0  502  0.31367250692E+02 -0.20800287536E+02 -0.32872497846E+02  0.50192105875E+02  0.47000000000E+01 0. -1.
          5    1    5    5  503    0 -0.17683065332E+02  0.68906766928E+02  0.14433259496E+02  0.72740925947E+02  0.47000000000E+01 0.  1.
         -5    1    5    5    0  503  0.61026300543E+02 -0.29846908881E+02  0.14834519868E+02  0.69693617408E+02  0.47000000000E+01 0.  1.
<mgrwt>
<rscale>  0 0.27470299E+03</rscale>
<asrwt>0</asrwt>
<pdfrwt beam="1">  1        1 0.23459888E-01 0.27470299E+03</pdfrwt>
<pdfrwt beam="2">  1       -1 0.19033302E-01 0.27470299E+03</pdfrwt>
<totfact> 0.45112963E+03</totfact>
</mgrwt>
</event>
<event>
 9    1  0.2073852E-002  0.2750699E+03  0.7818608E-02  0.1098413E+00
         -1   -1    0    0    0  501 -0.00000000000E+00  0.00000000000E+00  0.12333915871E+02  0.12333915871E+02  0.00000000000E+00 0. -1.
          1   -1    0    0  501    0  0.00000000000E+00 -0.00000000000E+00 -0.15336462775E+04  0.15336462775E+04  0.00000000000E+00 0. -1.
         36    2    1    2    0    0  0.00000000000E+00  0.00000000000E+00 -0.15213123616E+04  0.15459801933E+04  0.27506991229E+03 0.  0.
         25    2    3    3    0    0 -0.34438965680E+02 -0.49366872890E+02 -0.84298481897E+03  0.85425946965E+03  0.12455001394E+03 0.  0.
         25    2    3    3    0    0  0.34438965680E+02  0.49366872890E+02 -0.67832754262E+03  0.69172072368E+03  0.12135144828E+03 0.  0.
          5    1    4    4  502    0 -0.97481696011E+01 -0.71203277266E+02 -0.24546156829E+03  0.25580931377E+03  0.47000000000E+01 0.  1.
         -5    1    4    4    0  502 -0.24690796079E+02  0.21836404376E+02 -0.59752325067E+03  0.59845015587E+03  0.47000000000E+01 0.  1.
          5    1    5    5  503    0  0.27956174487E+02  0.39916617024E+02 -0.83723050268E+02  0.96987231905E+02  0.47000000000E+01 0.  1.
         -5    1    5    5    0  503  0.64827911935E+01  0.94502558665E+01 -0.59460449235E+03  0.59473349177E+03  0.47000000000E+01 0.  1.
<mgrwt>
<rscale>  0 0.27506991E+03</rscale>
<asrwt>0</asrwt>
<pdfrwt beam="1">  1        1 0.23594543E+00 0.27506991E+03</pdfrwt>
<pdfrwt beam="2">  1       -1 0.18975267E-02 0.27506991E+03</pdfrwt>
<totfact> 0.50346982E+03</totfact>
</mgrwt>
</event>
<event>
 8    1  0.2073852E-002  0.2908223E+03  0.7818608E-02  0.1089921E+00
         -2   -1    0    0    0  501 -0.00000000000E+00  0.00000000000E+00  0.17328557682E+02  0.17328557682E+02  0.00000000000E+00 0. -1.
          2   -1    0    0  501    0  0.00000000000E+00 -0.00000000000E+00 -0.12202055488E+04  0.12202055488E+04  0.00000000000E+00 0. -1.
         25    2    1    2    0    0  0.20774822062E+02 -0.55355770086E+02 -0.36732633286E+03  0.39202195082E+03  0.12351809827E+03 0.  0.
         25    2    1    2    0    0 -0.20774822062E+02  0.55355770086E+02 -0.83555065822E+03  0.84551215562E+03  0.11510885431E+03 0.  0.
          5    1    3    3  502    0 -0.25845436173E+02 -0.75444960254E+02 -0.16429796779E+03  0.18269056029E+03  0.47000000000E+01 0. -1.
         -5    1    3    3    0  502  0.46620258236E+02  0.20089190168E+02 -0.20302836507E+03  0.20933139054E+03  0.47000000000E+01 0. -1.
          5    1    4    4  503    0  0.37891184799E+01  0.64649659298E+02 -0.21995722985E+03  0.22934081370E+03  0.47000000000E+01 0. -1.
         -5    1    4    4    0  503 -0.24563940542E+02 -0.92938892120E+01 -0.61559342837E+03  0.61617134192E+03  0.47000000000E+01 0. -1.
<mgrwt>
<rscale>  0 0.29082230E+03</rscale>
<asrwt>0</asrwt>
<pdfrwt beam="1">  1        2 0.18772393E+00 0.29082230E+03</pdfrwt>
<pdfrwt beam="2">  1       -2 0.26659320E-02 0.29082230E+03</pdfrwt>
<totfact> 0.98339294E+03</totfact>
</mgrwt>
</event>
<event>
 9    1  0.2073852E-002  0.2744138E+03  0.7818608E-02  0.1098780E+00
         -3   -1    0    0    0  501 -0.00000000000E+00  0.00000000000E+00  0.40503475852E+03  0.40503475852E+03  0.00000000000E+00 0. -1.
          3   -1    0    0  501    0  0.00000000000E+00 -0.00000000000E+00 -0.46479306178E+02  0.46479306178E+02  0.00000000000E+00 0. -1.
         36    2    1    2    0    0  0.00000000000E+00  0.17763568394E-14  0.35855545234E+03  0.45151406470E+03  0.27441380835E+03 0.  0.
         25    2    3    3    0    0  0.58088418525E+01  0.59919270420E+01  0.91657808197E+02  0.15564506301E+03  0.12551727373E+03 0.  0.
         25    2    3    3    0    0 -0.58088418525E+01 -0.59919270420E+01  0.26689764414E+03  0.29586900168E+03  0.12741455127E+03 0.  0.
          5    1    4    4  502    0  0.37390492621E+02 -0.44502491350E+02  0.72210670667E+02  0.92816979228E+02  0.47000000000E+01 0.  1.
         -5    1    4    4    0  502 -0.31581650769E+02  0.50494418392E+02  0.19447137530E+02  0.62828083785E+02  0.47000000000E+01 0.  1.
          5    1    5    5  503    0 -0.54637133268E+02 -0.74124936643E+01  0.22385317855E+03  0.23059162375E+03  0.47000000000E+01 0. -1.
         -5    1    5    5    0  503  0.48828291416E+02  0.14205666223E+01  0.43044465589E+02  0.65277377934E+02  0.47000000000E+01 0. -1.
<mgrwt>
<rscale>  0 0.27441381E+03</rscale>
<asrwt>0</asrwt>
<pdfrwt beam="1">  1        3 0.71506628E-02 0.27441381E+03</pdfrwt>
<pdfrwt beam="2">  1       -3 0.62313037E-01 0.27441381E+03</pdfrwt>
<totfact> 0.82822716E+02</totfact>
</mgrwt>
</event>
<event>
 9    1  0.2073852E-002  0.2775185E+03  0.7818608E-02  0.1097052E+00
          1   -1    0    0  501    0  0.00000000000E+00  0.00000000000E+00  0.41974411565E+03  0.41974411565E+03  0.00000000000E+00 0. -1.
         -1   -1    0    0    0  501 -0.00000000000E+00 -0.00000000000E+00 -0.45871126513E+02  0.45871126513E+02  0.00000000000E+00 0. -1.
         36    2    1    2    0    0 -0.71054273576E-14 -0.29976021665E-14  0.37387298914E+03  0.46561524216E+03  0.27751854304E+03 0.  0.
         25    2    3    3    0    0  0.29161567977E+02  0.91863329472E+00  0.81297358814E+02  0.14625530941E+03  0.11802590414E+03 0.  0.
         25    2    3    3    0    0 -0.29161567977E+02 -0.91863329472E+00  0.29257563032E+03  0.31935993275E+03  0.12465563066E+03 0.  0.
          5    1    4    4  502    0  0.26013378165E+02  0.14293313552E+01  0.11197215155E+03  0.11505907854E+03  0.47000000000E+01 0.  1.
         -5    1    4    4    0  502  0.31481898123E+01 -0.51069806047E+00 -0.30674792733E+02  0.31196230875E+02  0.47000000000E+01 0.  1.
          5    1    5    5  503    0 -0.16808097506E+02 -0.61457882900E+02  0.17772746684E+03  0.18886165832E+03  0.47000000000E+01 0.  1.
         -5    1    5    5    0  503 -0.12353470471E+02  0.60539249605E+02  0.11484816348E+03  0.13049827443E+03  0.47000000000E+01 0.  1.
<mgrwt>
<rscale>  0 0.27751854E+03</rscale>
<asrwt>0</asrwt>
<pdfrwt beam="1">  1        1 0.64576015E-01 0.27751854E+03</pdfrwt>
<pdfrwt beam="2">  1       -1 0.70570967E-02 0.27751854E+03</pdfrwt>
<totfact> 0.59084575E+03</totfact>
</mgrwt>
</event>
<event>
 9    1  0.2073852E-002  0.2774516E+03  0.7818608E-02  0.1097089E+00
          3   -1    0    0  501    0  0.00000000000E+00  0.00000000000E+00  0.95714070852E+03  0.95714070852E+03  0.00000000000E+00 0.  1.
         -3   -1    0    0    0  501 -0.00000000000E+00 -0.00000000000E+00 -0.20106602688E+02  0.20106602688E+02  0.00000000000E+00 0.  1.
         36    2    1    2    0    0 -0.35527136788E-14  0.71054273576E-14  0.93703410583E+03  0.97724731121E+03  0.27745160257E+03 0.  0.
         25    2    3    3    0    0 -0.10932646228E+01 -0.27586081180E+02  0.28349210186E+03  0.31125824429E+03  0.12550591907E+03 0.  0.
         25    2    3    3    0    0  0.10932646228E+01  0.27586081180E+02  0.65354200398E+03  0.66598906692E+03  0.12514830877E+03 0.  0.
          5    1    4    4  502    0 -0.21426901293E+02  0.26428019154E+02  0.16582357949E+02  0.38139440092E+02  0.47000000000E+01 0.  1.
         -5    1    4    4    0  502  0.20333636670E+02 -0.54014100333E+02  0.26690974391E+03  0.27311880420E+03  0.47000000000E+01 0.  1.
          5    1    5    5  503    0 -0.31317402648E+02 -0.38507881492E+02  0.35425594925E+03  0.35774712329E+03  0.47000000000E+01 0.  1.
         -5    1    5    5    0  503  0.32410667271E+02  0.66093962671E+02  0.29928605473E+03  0.30824194362E+03  0.47000000000E+01 0.  1.
<mgrwt>
<rscale>  0 0.27745160E+03</rscale>
<asrwt>0</asrwt>
<pdfrwt beam="1">  1        3 0.14725238E+00 0.27745160E+03</pdfrwt>
<pdfrwt beam="2">  1       -3 0.30933242E-02 0.27745160E+03</pdfrwt>
<totfact> 0.44323757E+02</totfact>
</mgrwt>
</event>
<event>
 9    1  0.2073852E-002  0.2761194E+03  0.7818608E-02  0.1097827E+00
         -1   -1    0    0    0  501 -0.00000000000E+00  0.00000000000E+00  0.22947563625E+02  0.22947563625E+02  0.00000000000E+00 0.  1.
          1   -1    0    0  501    0  0.00000000000E+00 -0.00000000000E+00 -0.83061045634E+03  0.83061045634E+03  0.00000000000E+00 0.  1.
         36    2    1    2    0    0  0.71054273576E-14  0.00000000000E+00 -0.80766289272E+03  0.85355801997E+03  0.27611944006E+03 0.  0.
         25    2    3    3    0    0  0.24128866512E+02  0.26479459178E+01 -0.56486729028E+03  0.57934154665E+03  0.12638179548E+03 0.  0.
         25    2    3    3    0    0 -0.24128866512E+02 -0.26479459178E+01 -0.24279560243E+03  0.27421647331E+03  0.12512296296E+03 0.  0.
          5    1    4    4  502    0  0.70055248772E+02  0.19379899412E+02 -0.42277428367E+03  0.42900291761E+03  0.47000000000E+01 0. -1.
         -5    1    4    4    0  502 -0.45926382259E+02 -0.16731953494E+02 -0.14209300661E+03  0.15033862905E+03  0.47000000000E+01 0. -1.
          5    1    5    5  503    0 -0.40156017732E+02  0.51664294834E+02 -0.91383855086E+02  0.11249357356E+03  0.47000000000E+01 0.  1.
         -5    1    5    5    0  503  0.16027151219E+02 -0.54312240752E+02 -0.15141174735E+03  0.16172289976E+03  0.47000000000E+01 0.  1.
<mgrwt>
<rscale>  0 0.27611944E+03</rscale>
<asrwt>0</asrwt>
<pdfrwt beam="1">  1        1 0.12778623E+00 0.27611944E+03</pdfrwt>
<pdfrwt beam="2">  1       -1 0.35303944E-02 0.27611944E+03</pdfrwt>
<totfact> 0.64264134E+03</totfact>
</mgrwt>
</event>
<event>
 9    1  0.2073852E-002  0.2749050E+03  0.7818608E-02  0.1098505E+00
          1   -1    0    0  501    0  0.00000000000E+00  0.00000000000E+00  0.15050040861E+04  0.15050040861E+04  0.00000000000E+00 0.  1.
         -1   -1    0    0    0  501 -0.00000000000E+00 -0.00000000000E+00 -0.12553577384E+02  0.12553577384E+02  0.00000000000E+00 0.  1.
         36    2    1    2    0    0  0.00000000000E+00  0.71054273576E-14  0.14924505087E+04  0.15175576634E+04  0.27490496727E+03 0.  0.
         25    2    3    3    0    0 -0.39838347508E+02  0.41178902688E+02  0.83532545726E+03  0.84668938207E+03  0.12582326573E+03 0.  0.
         25    2    3    3    0    0  0.39838347508E+02 -0.41178902688E+02  0.65712505140E+03  0.67086828137E+03  0.12234427572E+03 0.  0.
          5    1    4    4  502    0 -0.14404767589E+02  0.83190088769E+02  0.41870668024E+03  0.42715976200E+03  0.47000000000E+01 0. -1.
         -5    1    4    4    0  502 -0.25433579920E+02 -0.42011186081E+02  0.41661877703E+03  0.41952962007E+03  0.47000000000E+01 0. -1.
          5    1    5    5  503    0  0.33823756322E+02 -0.56666866346E+02  0.64794267591E+03  0.65131173911E+03  0.47000000000E+01 0.  1.
         -5    1    5    5    0  503  0.60145911865E+01  0.15487963658E+02  0.91823754957E+01  0.19556542260E+02  0.47000000000E+01 0.  1.
<mgrwt>
<rscale>  0 0.27490497E+03</rscale>
<asrwt>0</asrwt>
<pdfrwt beam="1">  1        1 0.23153895E+00 0.27490497E+03</pdfrwt>
<pdfrwt beam="2">  1       -1 0.19313208E-02 0.27490497E+03</pdfrwt>
<totfact> 0.51252925E+03</totfact>
</mgrwt>
</event>
<event>
 9    1  0.2073852E-002  0.2751719E+03  0.7818608E-02  0.1098356E+00
         -4   -1    0    0    0  501 -0.00000000000E+00  0.00000000000E+00  0.50779046397E+01  0.50779046397E+01  0.00000000000E+00 0. -1.
          4   -1    0    0  501    0  0.00000000000E+00 -0.00000000000E+00 -0.37278955965E+04  0.37278955965E+04  0.00000000000E+00 0. -1.
         36    2    1    2    0    0 -0.17763568394E-14  0.00000000000E+00 -0.37228176919E+04  0.37329735012E+04  0.27517193422E+03 0.  0.
         25    2    3    3    0    0 -0.76053472431E+01  0.50924180735E+01 -0.26222893647E+04  0.26253336233E+04  0.12606088867E+03 0.  0.
         25    2    3    3    0    0  0.76053472431E+01 -0.50924180735E+01 -0.11005283272E+04  0.11076398778E+04  0.12497890205E+03 0.  0.
          5    1    4    4  502    0  0.12558716347E+02 -0.22419404104E+02 -0.24195585666E+04  0.24196995884E+04  0.47000000000E+01 0.  1.
         -5    1    4    4    0  502 -0.20164063590E+02  0.27511822177E+02 -0.20273079807E+03  0.20563403490E+03  0.47000000000E+01 0.  1.
          5    1    5    5  503    0 -0.13328837148E+02 -0.19981053496E+02 -0.10539963962E+04  0.10542805099E+04  0.47000000000E+01 0.  1.
         -5    1    5    5    0  503  0.20934184391E+02  0.14888635423E+02 -0.46531931008E+02  0.53359367914E+02  0.47000000000E+01 0.  1.
<mgrwt>
<rscale>  0 0.27517193E+03</rscale>
<asrwt>0</asrwt>
<pdfrwt beam="1">  1        4 0.57352388E+00 0.27517193E+03</pdfrwt>
<pdfrwt beam="2">  1       -4 0.78121408E-03 0.27517193E+03</pdfrwt>
<totfact> 0.31910059E+00</totfact>
</mgrwt>
</event>
<event>
 9    1  0.2073852E-002  0.2748332E+03  0.7818608E-02  0.1098545E+00
          2   -1    0    0  501    0  0.00000000000E+00  0.00000000000E+00  0.16832182593E+04  0.16832182593E+04  0.00000000000E+00 0.  1.
         -2   -1    0    0    0  501 -0.00000000000E+00 -0.00000000000E+00 -0.11218584207E+02  0.11218584207E+02  0.00000000000E+00 0.  1.
         36    2    1    2    0    0  0.00000000000E+00  0.00000000000E+00  0.16719996751E+04  0.16944368435E+04  0.27483322784E+03 0.  0.
         25    2    3    3    0    0  0.24178066762E+02  0.18961118105E+02  0.10364512072E+04  0.10447269146E+04  0.12758964807E+03 0.  0.
         25    2    3    3    0    0 -0.24178066762E+02 -0.18961118105E+02  0.63554846789E+03  0.64970992889E+03  0.13136602967E+03 0.  0.
          5    1    4    4  502    0 -0.26561988918E+02 -0.38891594665E+02  0.56857380171E+03  0.57054040468E+03  0.47000000000E+01 0. -1.
         -5    1    4    4    0  502  0.50740055680E+02  0.57852712770E+02  0.46787740550E+03  0.47418650993E+03  0.47000000000E+01 0. -1.
          5    1    5    5  503    0 -0.71833913752E+02  0.90129345537E+01  0.25421472605E+03  0.26436444749E+03  0.47000000000E+01 0. -1.
         -5    1    5    5    0  503  0.47655846990E+02 -0.27974052658E+02  0.38133374184E+03  0.38534548141E+03  0.47000000000E+01 0. -1.
<mgrwt>
<rscale>  0 0.27483323E+03</rscale>
<asrwt>0</asrwt>
<pdfrwt beam="1">  1        2 0.25895646E+00 0.27483323E+03</pdfrwt>
<pdfrwt beam="2">  1       -2 0.17259374E-02 0.27483323E+03</pdfrwt>
<totfact> 0.10470734E+04</totfact>
</mgrwt>
</event>
<event>
 9    1  0.2073852E-002  0.2731273E+03  0.7818608E-02  0.1099503E+00
         -2   -1    0    0    0  501 -0.00000000000E+00  0.00000000000E+00  0.15527024824E+03  0.15527024824E+03  0.00000000000E+00 0.  1.
          2   -1    0    0  501    0  0.00000000000E+00 -0.00000000000E+00 -0.12011078695E+03  0.12011078695E+03  0.00000000000E+00 0.  1.
         36    2    1    2    0    0  0.00000000000E+00 -0.35527136788E-14  0.35159461296E+02  0.27538103519E+03  0.27312730882E+03 0.  0.
         25    2    3    3    0    0  0.37226802820E+02  0.14882644972E+02 -0.15294191454E+02  0.13124957080E+03  0.12403712982E+03 0.  0.
         25    2    3    3    0    0 -0.37226802820E+02 -0.14882644972E+02  0.50453652750E+02  0.14413146439E+03  0.12892237968E+03 0.  0.
          5    1    4    4  502    0 -0.39287214217E+02  0.31019759296E+02  0.44127652966E+01  0.50470517782E+02  0.47000000000E+01 0.  1.
         -5    1    4    4    0  502  0.76514017037E+02 -0.16137114324E+02 -0.19706956751E+02  0.80779053016E+02  0.47000000000E+01 0.  1.
          5    1    5    5  503    0 -0.23161780334E+02 -0.38531189040E+02 -0.33108613667E+02  0.56030267678E+02  0.47000000000E+01 0.  1.
         -5    1    5    5    0  503 -0.14065022486E+02  0.23648544068E+02  0.83562266417E+02  0.88101196717E+02  0.47000000000E+01 0.  1.
<mgrwt>
<rscale>  0 0.27312731E+03</rscale>
<asrwt>0</asrwt>
<pdfrwt beam="1">  1        2 0.18478583E-01 0.27312731E+03</pdfrwt>
<pdfrwt beam="2">  1       -2 0.23887731E-01 0.27312731E+03</pdfrwt>
<totfact> 0.46600901E+03</totfact>
</mgrwt>
</event>
<event>
 9    1  0.2073852E-002  0.2758494E+03  0.7818608E-02  0.1097978E+00
         -1   -1    0    0    0  501 -0.00000000000E+00  0.00000000000E+00  0.97932664742E+02  0.97932664742E+02  0.00000000000E+00 0.  1.
          1   -1    0    0  501    0  0.00000000000E+00 -0.00000000000E+00 -0.19424791740E+03  0.19424791740E+03  0.00000000000E+00 0.  1.
         36    2    1    2    0    0  0.00000000000E+00  0.71054273576E-14 -0.96315252656E+02  0.29218058214E+03  0.27584935143E+03 0.  0.
         25    2    3    3    0    0  0.46241333409E+02 -0.27904961974E+02 -0.70836734722E+02  0.15380668033E+03  0.12538621978E+03 0.  0.
         25    2    3    3    0    0 -0.46241333409E+02  0.27904961974E+02 -0.25478517933E+02  0.13837390181E+03  0.12482481326E+03 0.  0.
          5    1    4    4  502    0 -0.54860628281E+01 -0.62034645978E+02 -0.40641977501E+01  0.62585956015E+02  0.47000000000E+01 0.  1.
         -5    1    4    4    0  502  0.51727396237E+02  0.34129684004E+02 -0.66772536972E+02  0.91220724320E+02  0.47000000000E+01 0.  1.
          5    1    5    5  503    0 -0.59765295477E+02 -0.32620525039E+02 -0.32847160592E+02  0.75743086524E+02  0.47000000000E+01 0.  1.
         -5    1    5    5    0  503  0.13523962068E+02  0.60525487012E+02  0.73686426588E+01  0.62630815281E+02  0.47000000000E+01 0.  1.
<mgrwt>
<rscale>  0 0.27584935E+03</rscale>
<asrwt>0</asrwt>
<pdfrwt beam="1">  1        1 0.29884295E-01 0.27584935E+03</pdfrwt>
<pdfrwt beam="2">  1       -1 0.15066564E-01 0.27584935E+03</pdfrwt>
<totfact> 0.48257269E+03</totfact>
</mgrwt>
</event>
<event>
 9    1  0.2073852E-002  0.2750061E+03  0.7818608E-02  0.1098448E+00
          1   -1    0    0  501    0  0.00000000000E+00  0.00000000000E+00  0.16103442392E+03  0.16103442392E+03  0.00000000000E+00 0.  1.
         -1   -1    0    0    0  501 -0.00000000000E+00 -0.00000000000E+00 -0.11741025116E+03  0.11741025116E+03  0.00000000000E+00 0.  1.
         36    2    1    2    0    0 -0.14210854715E-13  0.00000000000E+00  0.43624172757E+02  0.27844467508E+03  0.27500612471E+03 0.  0.
         25    2    3    3    0    0 -0.42053096205E+02  0.38273595840E+02  0.64210407913E+02  0.14095975856E+03  0.11186306812E+03 0.  0.
         25    2    3    3    0    0  0.42053096205E+02 -0.38273595840E+02 -0.20586235156E+02  0.13748491651E+03  0.12347055581E+03 0.  0.
          5    1    4    4  502    0 -0.66955108670E+02  0.30657859393E+02  0.81038913726E+02  0.10960057690E+03  0.47000000000E+01 0.  1.
         -5    1    4    4    0  502  0.24902012465E+02  0.76157364477E+01 -0.16828505813E+02  0.31359181659E+02  0.47000000000E+01 0.  1.
          5    1    5    5  503    0 -0.32712532883E+02 -0.45172284091E+02 -0.26687501461E+02  0.62007723647E+02  0.47000000000E+01 0. -1.
         -5    1    5    5    0  503  0.74765629088E+02  0.68986882511E+01  0.61012663050E+01  0.75477192867E+02  0.47000000000E+01 0. -1.
<mgrwt>
<rscale>  0 0.27500612E+03</rscale>
<asrwt>0</asrwt>
<pdfrwt beam="1">  1        1 0.24774527E-01 0.27500612E+03</pdfrwt>
<pdfrwt beam="2">  1       -1 0.18063116E-01 0.27500612E+03</pdfrwt>
<totfact> 0.45793183E+03</totfact>
</mgrwt>
</event>
<event>
 9    1  0.2073852E-002  0.2744702E+03  0.7818608E-02  0.1098748E+00
         -2   -1    0    0    0  501 -0.00000000000E+00  0.00000000000E+00  0.72096389758E+01  0.72096389758E+01  0.00000000000E+00 0. -1.
          2   -1    0    0  501    0  0.00000000000E+00 -0.00000000000E+00 -0.26122636025E+04  0.26122636025E+04  0.00000000000E+00 0. -1.
         36    2    1    2    0    0  0.35527136788E-14  0.00000000000E+00 -0.26050539635E+04  0.26194732415E+04  0.27447023506E+03 0.  0.
         25    2    3    3    0    0 -0.30706244976E+02 -0.11160834031E+02 -0.90893729323E+03  0.91824902209E+03  0.12628074221E+03 0.  0.
         25    2    3    3    0    0  0.30706244976E+02  0.11160834031E+02 -0.16961166703E+04  0.17012242194E+04  0.12761131481E+03 0.  0.
          5    1    4    4  502    0 -0.54085054976E+02  0.44198415933E+02 -0.51072652204E+03  0.51550204990E+03  0.47000000000E+01 0.  1.
         -5    1    4    4    0  502  0.23378810000E+02 -0.55359249964E+02 -0.39821077119E+03  0.40274697219E+03  0.47000000000E+01 0.  1.
          5    1    5    5  503    0  0.39630274860E+02  0.53318589380E+02 -0.14341389450E+04  0.14356845176E+04  0.47000000000E+01 0.  1.
         -5    1    5    5    0  503 -0.89240298842E+01 -0.42157755350E+02 -0.26197772534E+03  0.26553970178E+03  0.47000000000E+01 0.  1.
<mgrwt>
<rscale>  0 0.27447024E+03</rscale>
<asrwt>0</asrwt>
<pdfrwt beam="1">  1        2 0.40188579E+00 0.27447024E+03</pdfrwt>
<pdfrwt beam="2">  1       -2 0.11091778E-02 0.27447024E+03</pdfrwt>
<totfact> 0.63757772E+03</totfact>
</mgrwt>
</event>
<event>
 9    1  0.2073852E-002  0.2752206E+03  0.7818608E-02  0.1098328E+00
         -2   -1    0    0    0  501 -0.00000000000E+00  0.00000000000E+00  0.14482976192E+02  0.14482976192E+02  0.00000000000E+00 0.  1.
          2   -1    0    0  501    0  0.00000000000E+00 -0.00000000000E+00 -0.13075069323E+04  0.13075069323E+04  0.00000000000E+00 0.  1.
         36    2    1    2    0    0  0.00000000000E+00  0.00000000000E+00 -0.12930239561E+04  0.13219899085E+04  0.27522057896E+03 0.  0.
         25    2    3    3    0    0  0.55821241482E+01  0.31254815283E+02 -0.79549684345E+03  0.80556649545E+03  0.12293952606E+03 0.  0.
         25    2    3    3    0    0 -0.55821241482E+01 -0.31254815283E+02 -0.49752711270E+03  0.51642341308E+03  0.13472895056E+03 0.  0.
          5    1    4    4  502    0  0.60232111455E+02  0.38292322928E+02 -0.46750222386E+03  0.47294252141E+03  0.47000000000E+01 0. -1.
         -5    1    4    4    0  502 -0.54649987307E+02 -0.70375076444E+01 -0.32799461959E+03  0.33262397404E+03  0.47000000000E+01 0. -1.
          5    1    5    5  503    0  0.42855189620E+01 -0.44218009743E+02 -0.49746550694E+03  0.49946733492E+03  0.47000000000E+01 0. -1.
         -5    1    5    5    0  503 -0.98676431102E+01  0.12963194460E+02 -0.61605756319E-01  0.16956078156E+02  0.47000000000E+01 0. -1.
<mgrwt>
<rscale>  0 0.27522058E+03</rscale>
<asrwt>0</asrwt>
<pdfrwt beam="1">  1        2 0.20115492E+00 0.27522058E+03</pdfrwt>
<pdfrwt beam="2">  1       -2 0.22281501E-02 0.27522058E+03</pdfrwt>
<totfact> 0.11445451E+04</totfact>
</mgrwt>
</event>
<event>
 9    1  0.2073852E-002  0.2745645E+03  0.7818608E-02  0.1098695E+00
         -2   -1    0    0    0  501 -0.00000000000E+00  0.00000000000E+00  0.34166525778E+02  0.34166525778E+02  0.00000000000E+00 0. -1.
          2   -1    0    0  501    0  0.00000000000E+00 -0.00000000000E+00 -0.55160489608E+03  0.55160489608E+03  0.00000000000E+00 0. -1.
         36    2    1    2    0    0  0.00000000000E+00  0.00000000000E+00 -0.51743837030E+03  0.58577142186E+03  0.27456454907E+03 0.  0.
         25    2    3    3    0    0 -0.35567203342E+02  0.43587416897E+02 -0.24382655756E+03  0.27977738673E+03  0.12513635397E+03 0.  0.
         25    2    3    3    0    0  0.35567203342E+02 -0.43587416897E+02 -0.27361181274E+03  0.30599403513E+03  0.12491611825E+03 0.  0.
          5    1    4    4  502    0 -0.20907387840E+02 -0.40912337471E+02 -0.12420594697E+03  0.13251469913E+03  0.47000000000E+01 0.  1.
         -5    1    4    4    0  502 -0.14659815502E+02  0.84499754368E+02 -0.11962061059E+03  0.14726268759E+03  0.47000000000E+01 0.  1.
          5    1    5    5  503    0  0.73096896729E+02 -0.97319786110E+01 -0.22038437184E+03  0.23244188321E+03  0.47000000000E+01 0.  1.
         -5    1    5    5    0  503 -0.37529693387E+02 -0.33855438286E+02 -0.53227440894E+02  0.73552151915E+02  0.47000000000E+01 0.  1.
<mgrwt>
<rscale>  0 0.27456455E+03</rscale>
<asrwt>0</asrwt>
<pdfrwt beam="1">  1        2 0.84862286E-01 0.27456455E+03</pdfrwt>
<pdfrwt beam="2">  1       -2 0.52563889E-02 0.27456455E+03</pdfrwt>
<totfact> 0.10039294E+04</totfact>
</mgrwt>
</event>
<event>
 9    1  0.2073852E-002  0.2753348E+03  0.7818608E-02  0.1098265E+00
         -2   -1    0    0    0  501 -0.00000000000E+00  0.00000000000E+00  0.18862159501E+02  0.18862159501E+02  0.00000000000E+00 0. -1.
          2   -1    0    0  501    0  0.00000000000E+00 -0.00000000000E+00 -0.10047792344E+04  0.10047792344E+04  0.00000000000E+00 0. -1.
         36    2    1    2    0    0  0.00000000000E+00  0.00000000000E+00 -0.98591707493E+03  0.10236413939E+04  0.27533475031E+03 0.  0.
         25    2    3    3    0    0 -0.99062281659E+00  0.13117254842E+02 -0.70482587294E+03  0.71553191888E+03  0.12261065234E+03 0.  0.
         25    2    3    3    0    0  0.99062281659E+00 -0.13117254842E+02 -0.28109120199E+03  0.30810947505E+03  0.12548362869E+03 0.  0.
          5    1    4    4  502    0  0.44664651121E+02 -0.34606777141E+02 -0.35416280168E+03  0.35867246922E+03  0.47000000000E+01 0.  1.
         -5    1    4    4    0  502 -0.45655273938E+02  0.47724031983E+02 -0.35066307126E+03  0.35685944966E+03  0.47000000000E+01 0.  1.
          5    1    5    5  503    0 -0.20204323422E+02 -0.65878446213E+02 -0.15828087605E+03  0.17269368861E+03  0.47000000000E+01 0. -1.
         -5    1    5    5    0  503  0.21194946238E+02  0.52761191371E+02 -0.12281032594E+03  0.13541578645E+03  0.47000000000E+01 0. -1.
<mgrwt>
<rscale>  0 0.27533475E+03</rscale>
<asrwt>0</asrwt>
<pdfrwt beam="1">  1        2 0.15458150E+00 0.27533475E+03</pdfrwt>
<pdfrwt beam="2">  1       -2 0.29018693E-02 0.27533475E+03</pdfrwt>
<totfact> 0.11580571E+04</totfact>
</mgrwt>
</event>
<event>
 9    1  0.2073852E-002  0.2868978E+03  0.7818608E-02  0.1091980E+00
          2   -1    0    0  501    0  0.00000000000E+00  0.00000000000E+00  0.80760061233E+02  0.80760061233E+02  0.00000000000E+00 0.  1.
         -2   -1    0    0    0  501 -0.00000000000E+00 -0.00000000000E+00 -0.25479909664E+03  0.25479909664E+03  0.00000000000E+00 0.  1.
         36    2    1    2    0    0 -0.17763568394E-14  0.00000000000E+00 -0.17403903541E+03  0.33555915788E+03  0.28689782604E+03 0.  0.
         25    2    3    3    0    0  0.65976274926E+01 -0.71465508623E+02 -0.64448274865E+02  0.15854372859E+03  0.12582402843E+03 0.  0.
         25    2    3    3    0    0 -0.65976274926E+01  0.71465508623E+02 -0.10959076055E+03  0.17701542929E+03  0.11905242458E+03 0.  0.
          5    1    4    4  502    0 -0.14133946494E+02 -0.31499544831E+02 -0.96815558280E+02  0.10289476222E+03  0.47000000000E+01 0. -1.
         -5    1    4    4    0  502  0.20731573987E+02 -0.39965963791E+02  0.32367283415E+02  0.55648966364E+02  0.47000000000E+01 0. -1.
          5    1    5    5  503    0 -0.16488054702E+02  0.57883226477E+01 -0.10893567339E+03  0.11042840017E+03  0.47000000000E+01 0. -1.
         -5    1    5    5    0  503  0.98904272094E+01  0.65677185975E+02 -0.65508715663E+00  0.66587029121E+02  0.47000000000E+01 0. -1.
<mgrwt>
<rscale>  0 0.28689783E+03</rscale>
<asrwt>0</asrwt>
<pdfrwt beam="1">  1        2 0.12424625E-01 0.28689783E+03</pdfrwt>
<pdfrwt beam="2">  1       -2 0.39199860E-01 0.28689783E+03</pdfrwt>
<totfact> 0.30254452E+03</totfact>
</mgrwt>
</event>
<event>
 9    1  0.2073852E-002  0.2744887E+03  0.7818608E-02  0.1098738E+00
          2   -1    0    0  501    0  0.00000000000E+00  0.00000000000E+00  0.15659994633E+04  0.15659994633E+04  0.00000000000E+00 0. -1.
         -2   -1    0    0    0  501 -0.00000000000E+00 -0.00000000000E+00 -0.12028111613E+02  0.12028111613E+02  0.00000000000E+00 0. -1.
         36    2    1    2    0    0  0.00000000000E+00  0.35527136788E-14  0.15539713517E+04  0.15780275749E+04  0.27448873441E+03 0.  0.
         25    2    3    3    0    0 -0.31509990515E+02  0.30216644332E+02  0.10073937024E+04  0.10159986239E+04  0.12451990674E+03 0.  0.
         25    2    3    3    0    0  0.31509990515E+02 -0.30216644332E+02  0.54657764930E+03  0.56202895095E+03  0.12338350741E+03 0.  0.
          5    1    4    4  502    0 -0.11621878666E+02  0.26609075115E+02  0.47428658187E+02  0.55809305314E+02  0.47000000000E+01 0. -1.
         -5    1    4    4    0  502 -0.19888111850E+02  0.36075692168E+01  0.95996504417E+03  0.96018931861E+03  0.47000000000E+01 0. -1.
          5    1    5    5  503    0  0.40167321727E+02 -0.24919856397E+02  0.54860870212E+03  0.55066143048E+03  0.47000000000E+01 0.  1.
         -5    1    5    5    0  503 -0.86573312120E+01 -0.52967879343E+01 -0.20310528223E+01  0.11367520473E+02  0.47000000000E+01 0.  1.
<mgrwt>
<rscale>  0 0.27448873E+03</rscale>
<asrwt>0</asrwt>
<pdfrwt beam="1">  1        2 0.24092283E+00 0.27448873E+03</pdfrwt>
<pdfrwt beam="2">  1       -2 0.18504800E-02 0.27448873E+03</pdfrwt>
<totfact> 0.10903704E+04</totfact>
</mgrwt>
</event>
<event>
 9    1  0.2073852E-002  0.2755047E+03  0.7818608E-02  0.1098170E+00
          2   -1    0    0  501    0  0.00000000000E+00  0.00000000000E+00  0.54651060299E+03  0.54651060299E+03  0.00000000000E+00 0.  1.
         -2   -1    0    0    0  501 -0.00000000000E+00 -0.00000000000E+00 -0.34721568155E+02  0.34721568155E+02  0.00000000000E+00 0.  1.
         36    2    1    2    0    0  0.17763568394E-14  0.71054273576E-14  0.51178903484E+03  0.58123217115E+03  0.27550466529E+03 0.  0.
         25    2    3    3    0    0  0.47167447565E+01  0.32905980820E+02  0.32210936138E+03  0.34825804511E+03  0.12815683377E+03 0.  0.
         25    2    3    3    0    0 -0.47167447565E+01 -0.32905980820E+02  0.18967967346E+03  0.23297412603E+03  0.13112403908E+03 0.  0.
          5    1    4    4  502    0  0.36021524271E+01  0.77186549059E+02  0.26354189838E+03  0.27467646615E+03  0.47000000000E+01 0.  1.
         -5    1    4    4    0  502  0.11145923294E+01 -0.44280568239E+02  0.58567463001E+02  0.73581578958E+02  0.47000000000E+01 0.  1.
          5    1    5    5  503    0 -0.17231249132E+02 -0.46123349996E+02  0.20363868891E+03  0.20955926365E+03  0.47000000000E+01 0. -1.
         -5    1    5    5    0  503  0.12514504376E+02  0.13217369176E+02 -0.13959015456E+02  0.23414862379E+02  0.47000000000E+01 0. -1.
<mgrwt>
<rscale>  0 0.27550467E+03</rscale>
<asrwt>0</asrwt>
<pdfrwt beam="1">  1        2 0.84078548E-01 0.27550467E+03</pdfrwt>
<pdfrwt beam="2">  1       -2 0.53417801E-02 0.27550467E+03</pdfrwt>
<totfact> 0.99010244E+03</totfact>
</mgrwt>
</event>
<event>
 9    1  0.2073852E-002  0.2747385E+03  0.7818608E-02  0.1098598E+00
          2   -1    0    0  501    0  0.00000000000E+00  0.00000000000E+00  0.22865061897E+04  0.22865061897E+04  0.00000000000E+00 0.  1.
         -2   -1    0    0    0  501 -0.00000000000E+00 -0.00000000000E+00 -0.82529015373E+01  0.82529015373E+01  0.00000000000E+00 0.  1.
         36    2    1    2    0    0  0.00000000000E+00  0.00000000000E+00  0.22782532882E+04  0.22947590913E+04  0.27473849711E+03 0.  0.
         25    2    3    3    0    0  0.58227412191E+02 -0.90782567788E+01  0.10803948589E+04  0.10887873808E+04  0.12137571099E+03 0.  0.
         25    2    3    3    0    0 -0.58227412191E+02  0.90782567788E+01  0.11978584293E+04  0.12059717105E+04  0.12661004500E+03 0.  0.
          5    1    4    4  502    0  0.68934897783E+02 -0.13005853333E+02  0.10709393160E+04  0.10732447441E+04  0.47000000000E+01 0. -1.
         -5    1    4    4    0  502 -0.10707485592E+02  0.39275965543E+01  0.94555429146E+01  0.15542636656E+02  0.47000000000E+01 0. -1.
          5    1    5    5  503    0 -0.95514891765E+02  0.24983528244E+02  0.85155670642E+03  0.85727369345E+03  0.47000000000E+01 0. -1.
         -5    1    5    5    0  503  0.37287479574E+02 -0.15905271465E+02  0.34630172289E+03  0.34869801701E+03  0.47000000000E+01 0. -1.
<mgrwt>
<rscale>  0 0.27473850E+03</rscale>
<asrwt>0</asrwt>
<pdfrwt beam="1">  1        2 0.35176968E+00 0.27473850E+03</pdfrwt>
<pdfrwt beam="2">  1       -2 0.12696790E-02 0.27473850E+03</pdfrwt>
<totfact> 0.78816335E+03</totfact>
</mgrwt>
</event>
<event>
 9    1  0.2073852E-002  0.2742700E+03  0.7818608E-02  0.1098860E+00
          1   -1    0    0  501    0  0.00000000000E+00  0.00000000000E+00  0.50868402846E+03  0.50868402846E+03  0.00000000000E+00 0. -1.
         -1   -1    0    0    0  501 -0.00000000000E+00 -0.00000000000E+00 -0.36969910595E+02  0.36969910595E+02  0.00000000000E+00 0. -1.
         36    2    1    2    0    0 -0.35527136788E-14  0.00000000000E+00  0.47171411787E+03  0.54565393906E+03  0.27426996229E+03 0.  0.
         25    2    3    3    0    0 -0.28911534515E+02 -0.14546338277E+02  0.32056897699E+03  0.34478254184E+03  0.12273165591E+03 0.  0.
         25    2    3    3    0    0  0.28911534515E+02  0.14546338277E+02  0.15114514087E+03  0.20087139722E+03  0.12828480746E+03 0.  0.
          5    1    4    4  502    0  0.14049289830E+02  0.22185326575E+02  0.90921716088E+01  0.28183840131E+02  0.47000000000E+01 0. -1.
         -5    1    4    4    0  502 -0.42960824346E+02 -0.36731664853E+02  0.31147680539E+03  0.31659870171E+03  0.47000000000E+01 0. -1.
          5    1    5    5  503    0  0.57356544886E+01 -0.37593729858E+02 -0.97886960150E+00  0.38330594083E+02  0.47000000000E+01 0.  1.
         -5    1    5    5    0  503  0.23175880027E+02  0.52140068135E+02  0.15212401048E+03  0.16254080313E+03  0.47000000000E+01 0.  1.
<mgrwt>
<rscale>  0 0.27426996E+03</rscale>
<asrwt>0</asrwt>
<pdfrwt beam="1">  1        1 0.78259076E-01 0.27426996E+03</pdfrwt>
<pdfrwt beam="2">  1       -1 0.56876789E-02 0.27426996E+03</pdfrwt>
<totfact> 0.63621387E+03</totfact>
</mgrwt>
</event>
<event>
 9    1  0.2073852E-002  0.2749511E+03  0.7818608E-02  0.1098479E+00
         -4   -1    0    0    0  501 -0.00000000000E+00  0.00000000000E+00  0.32828259544E+03  0.32828259544E+03  0.00000000000E+00 0.  1.
          4   -1    0    0  501    0  0.00000000000E+00 -0.00000000000E+00 -0.57570927768E+02  0.57570927768E+02  0.00000000000E+00 0.  1.
         36    2    1    2    0    0  0.00000000000E+00  0.00000000000E+00  0.27071166767E+03  0.38585352320E+03  0.27495114904E+03 0.  0.
         25    2    3    3    0    0 -0.45404528463E+01  0.47357405843E+02  0.98930194000E+02  0.16668070812E+03  0.12542701294E+03 0.  0.
         25    2    3    3    0    0  0.45404528463E+01 -0.47357405843E+02  0.17178147367E+03  0.21917281508E+03  0.12753238245E+03 0.  0.
          5    1    4    4  502    0  0.21266853049E+01 -0.16047126310E+02  0.10131648952E+03  0.10270907507E+03  0.47000000000E+01 0.  1.
         -5    1    4    4    0  502 -0.66671381512E+01  0.63404532153E+02 -0.23862955238E+01  0.63971633050E+02  0.47000000000E+01 0.  1.
          5    1    5    5  503    0  0.35095409149E+01  0.13243694636E+02  0.15558854617E+03  0.15626131327E+03  0.47000000000E+01 0. -1.
         -5    1    5    5    0  503  0.10309119314E+01 -0.60601100480E+02  0.16192927493E+02  0.62911501806E+02  0.47000000000E+01 0. -1.
<mgrwt>
<rscale>  0 0.27495115E+03</rscale>
<asrwt>0</asrwt>
<pdfrwt beam="1">  1        4 0.88570660E-02 0.27495115E+03</pdfrwt>
<pdfrwt beam="2">  1       -4 0.50505013E-01 0.27495115E+03</pdfrwt>
<totfact> 0.66326053E+02</totfact>
</mgrwt>
</event>
<event>
 9    1  0.2073852E-002  0.2737287E+03  0.7818608E-02  0.1099164E+00
          2   -1    0    0  501    0  0.00000000000E+00  0.00000000000E+00  0.63053369398E+02  0.63053369398E+02  0.00000000000E+00 0.  1.
         -2   -1    0    0    0  501 -0.00000000000E+00 -0.00000000000E+00 -0.29707930045E+03  0.29707930045E+03  0.00000000000E+00 0.  1.
         36    2    1    2    0    0  0.71054273576E-14  0.00000000000E+00 -0.23402593105E+03  0.36013266985E+03  0.27372870417E+03 0.  0.
         25    2    3    3    0    0  0.19741626112E+02 -0.34717866095E+02 -0.17446747220E+03  0.21815539040E+03  0.12473096438E+03 0.  0.
         25    2    3    3    0    0 -0.19741626112E+02  0.34717866095E+02 -0.59558458849E+02  0.14197727945E+03  0.12253683459E+03 0.  0.
          5    1    4    4  502    0  0.12013973309E+02 -0.32229242412E+01 -0.18364558135E+03  0.18412634886E+03  0.47000000000E+01 0. -1.
         -5    1    4    4    0  502  0.77276528026E+01 -0.31494941853E+02  0.91781091519E+01  0.34029041535E+02  0.47000000000E+01 0. -1.
          5    1    5    5  503    0 -0.66540148253E+02 -0.44479969875E+00 -0.47855568462E+02  0.82097713787E+02  0.47000000000E+01 0. -1.
         -5    1    5    5    0  503  0.46798522141E+02  0.35162665793E+02 -0.11702890387E+02  0.59879565661E+02  0.47000000000E+01 0. -1.
<mgrwt>
<rscale>  0 0.27372870E+03</rscale>
<asrwt>0</asrwt>
<pdfrwt beam="1">  1        2 0.97005184E-02 0.27372870E+03</pdfrwt>
<pdfrwt beam="2">  1       -2 0.45704507E-01 0.27372870E+03</pdfrwt>
<totfact> 0.30455376E+03</totfact>
</mgrwt>
</event>
<event>
 9    1  0.2073852E-002  0.2776970E+03  0.7818608E-02  0.1096953E+00
         -2   -1    0    0    0  501 -0.00000000000E+00  0.00000000000E+00  0.22719008246E+02  0.22719008246E+02  0.00000000000E+00 0.  1.
          2   -1    0    0  501    0  0.00000000000E+00 -0.00000000000E+00 -0.84858031482E+03  0.84858031482E+03  0.00000000000E+00 0.  1.
         36    2    1    2    0    0  0.71054273576E-14 -0.17763568394E-14 -0.82586130657E+03  0.87129932307E+03  0.27769697996E+03 0.  0.
         25    2    3    3    0    0  0.57299294797E+02 -0.26577906421E+01 -0.36776626400E+03  0.39329736563E+03  0.12704534561E+03 0.  0.
         25    2    3    3    0    0 -0.57299294797E+02  0.26577906421E+01 -0.45809504258E+03  0.47800195743E+03  0.12387304083E+03 0.  0.
          5    1    4    4  502    0  0.92286464983E+02 -0.16789239398E+02 -0.19556734934E+03  0.21695010557E+03  0.47000000000E+01 0.  1.
         -5    1    4    4    0  502 -0.34987170187E+02  0.14131448755E+02 -0.17219891466E+03  0.17634726006E+03  0.47000000000E+01 0.  1.
          5    1    5    5  503    0 -0.69218036684E+02  0.25813451960E+02 -0.13615941951E+03  0.15498047756E+03  0.47000000000E+01 0.  1.
         -5    1    5    5    0  503  0.11918741888E+02 -0.23155661318E+02 -0.32193562307E+03  0.32302147987E+03  0.47000000000E+01 0.  1.
<mgrwt>
<rscale>  0 0.27769698E+03</rscale>
<asrwt>0</asrwt>
<pdfrwt beam="1">  1        2 0.13055082E+00 0.27769698E+03</pdfrwt>
<pdfrwt beam="2">  1       -2 0.34952321E-02 0.27769698E+03</pdfrwt>
<totfact> 0.11037749E+04</totfact>
</mgrwt>
</event>
<event>
 9    1  0.2073852E-002  0.2754735E+03  0.7818608E-02  0.1098187E+00
          1   -1    0    0  501    0  0.00000000000E+00  0.00000000000E+00  0.64823068429E+02  0.64823068429E+02  0.00000000000E+00 0.  1.
         -1   -1    0    0    0  501 -0.00000000000E+00 -0.00000000000E+00 -0.29266452131E+03  0.29266452131E+03  0.00000000000E+00 0.  1.
         36    2    1    2    0    0  0.14210854715E-13 -0.71054273576E-14 -0.22784145288E+03  0.35748758974E+03  0.27547349994E+03 0.  0.
         25    2    3    3    0    0 -0.45659211070E+02 -0.10530400348E+02 -0.88271044891E+02  0.16422218276E+03  0.13031306557E+03 0.  0.
         25    2    3    3    0    0  0.45659211070E+02  0.10530400348E+02 -0.13957040799E+03  0.19326540698E+03  0.12520369748E+03 0.  0.
          5    1    4    4  502    0 -0.34850943871E+02 -0.52698059916E+02 -0.10046433773E+03  0.11877224829E+03  0.47000000000E+01 0. -1.
         -5    1    4    4    0  502 -0.10808267200E+02  0.42167659568E+02  0.12193292840E+02  0.45449934473E+02  0.47000000000E+01 0. -1.
          5    1    5    5  503    0  0.38243890780E+02 -0.38110578015E+02 -0.10699632823E+02  0.55241139390E+02  0.47000000000E+01 0. -1.
         -5    1    5    5    0  503  0.74153202907E+01  0.48640978363E+02 -0.12887077517E+03  0.13802426759E+03  0.47000000000E+01 0. -1.
<mgrwt>
<rscale>  0 0.27547350E+03</rscale>
<asrwt>0</asrwt>
<pdfrwt beam="1">  1        1 0.99727797E-02 0.27547350E+03</pdfrwt>
<pdfrwt beam="2">  1       -1 0.45025311E-01 0.27547350E+03</pdfrwt>
<totfact> 0.31968389E+03</totfact>
</mgrwt>
</event>
<event>
 9    1  0.2073852E-002  0.2736284E+03  0.7818608E-02  0.1099221E+00
         -2   -1    0    0    0  501 -0.00000000000E+00  0.00000000000E+00  0.13314350074E+02  0.13314350074E+02  0.00000000000E+00 0.  1.
          2   -1    0    0  501    0  0.00000000000E+00 -0.00000000000E+00 -0.14058609868E+04  0.14058609868E+04  0.00000000000E+00 0.  1.
         36    2    1    2    0    0  0.35527136788E-14 -0.35527136788E-14 -0.13925466368E+04  0.14191753369E+04  0.27362840010E+03 0.  0.
         25    2    3    3    0    0  0.17920311027E+02  0.30907143061E+02 -0.91475731822E+03  0.92401468553E+03  0.12548226490E+03 0.  0.
         25    2    3    3    0    0 -0.17920311027E+02 -0.30907143061E+02 -0.47778931855E+03  0.49516065138E+03  0.12500019488E+03 0.  0.
          5    1    4    4  502    0 -0.22734041253E+02 -0.18556432781E+02 -0.61078848520E+02  0.67925647334E+02  0.47000000000E+01 0.  1.
         -5    1    4    4    0  502  0.40654352280E+02  0.49463575841E+02 -0.85367846970E+03  0.85608903819E+03  0.47000000000E+01 0.  1.
          5    1    5    5  503    0 -0.23237215825E+02  0.46455838078E+02 -0.17991362199E+03  0.18732088636E+03  0.47000000000E+01 0.  1.
         -5    1    5    5    0  503  0.53169047982E+01 -0.77362981139E+02 -0.29787569656E+03  0.30783976502E+03  0.47000000000E+01 0.  1.
<mgrwt>
<rscale>  0 0.27362840E+03</rscale>
<asrwt>0</asrwt>
<pdfrwt beam="1">  1        2 0.21628617E+00 0.27362840E+03</pdfrwt>
<pdfrwt beam="2">  1       -2 0.20483629E-02 0.27362840E+03</pdfrwt>
<totfact> 0.11443981E+04</totfact>
</mgrwt>
</event>
<event>
 9    1  0.2073852E-002  0.2765557E+03  0.7818608E-02  0.1097585E+00
          3   -1    0    0  501    0  0.00000000000E+00  0.00000000000E+00  0.10025898829E+04  0.10025898829E+04  0.00000000000E+00 0.  1.
         -3   -1    0    0    0  501 -0.00000000000E+00 -0.00000000000E+00 -0.19071373691E+02  0.19071373691E+02  0.00000000000E+00 0.  1.
         36    2    1    2    0    0  0.00000000000E+00  0.14210854715E-13  0.98351850923E+03  0.10216612566E+04  0.27655571819E+03 0.  0.
         25    2    3    3    0    0 -0.40695459165E+02  0.45052017793E+02  0.41652722144E+03  0.43878606711E+03  0.12390513219E+03 0.  0.
         25    2    3    3    0    0  0.40695459165E+02 -0.45052017793E+02  0.56699128779E+03  0.58287518951E+03  0.12074171362E+03 0.  0.
          5    1    4    4  502    0  0.39150550460E+02 -0.22264318188E+01  0.73985239670E+02  0.83866729333E+02  0.47000000000E+01 0.  1.
         -5    1    4    4    0  502 -0.79846009625E+02  0.47278449611E+02  0.34254198177E+03  0.35491933777E+03  0.47000000000E+01 0.  1.
          5    1    5    5  503    0  0.18425924500E+02  0.22811554312E+02  0.40113019294E+03  0.40222804898E+03  0.47000000000E+01 0.  1.
         -5    1    5    5    0  503  0.22269534665E+02 -0.67863572105E+02  0.16586109485E+03  0.18064714052E+03  0.47000000000E+01 0.  1.
<mgrwt>
<rscale>  0 0.27655572E+03</rscale>
<asrwt>0</asrwt>
<pdfrwt beam="1">  1        3 0.15424456E+00 0.27655572E+03</pdfrwt>
<pdfrwt beam="2">  1       -3 0.29340583E-02 0.27655572E+03</pdfrwt>
<totfact> 0.42799777E+02</totfact>
</mgrwt>
</event>
<event>
 9    1  0.2073852E-002  0.2743537E+03  0.7818608E-02  0.1098813E+00
          2   -1    0    0  501    0  0.00000000000E+00  0.00000000000E+00  0.30882568171E+03  0.30882568171E+03  0.00000000000E+00 0.  1.
         -2   -1    0    0    0  501 -0.00000000000E+00 -0.00000000000E+00 -0.60932414552E+02  0.60932414552E+02  0.00000000000E+00 0.  1.
         36    2    1    2    0    0  0.14210854715E-13  0.00000000000E+00  0.24789326715E+03  0.36975809626E+03  0.27435374583E+03 0.  0.
         25    2    3    3    0    0  0.50161041757E+02  0.19016031174E+02  0.99980984494E+02  0.16910556189E+03  0.12539040733E+03 0.  0.
         25    2    3    3    0    0 -0.50161041757E+02 -0.19016031174E+02  0.14791228266E+03  0.20065253437E+03  0.12452171150E+03 0.  0.
          5    1    4    4  502    0 -0.27662697567E+02 -0.31836662651E+02  0.40360358347E+02  0.58564890944E+02  0.47000000000E+01 0.  1.
         -5    1    4    4    0  502  0.77823739324E+02  0.50852693825E+02  0.59620626147E+02  0.11054067095E+03  0.47000000000E+01 0.  1.
          5    1    5    5  503    0  0.39475125074E+02 -0.11374050340E+02  0.25195377675E+02  0.48420569771E+02  0.47000000000E+01 0. -1.
         -5    1    5    5    0  503 -0.89636166831E+02 -0.76419808335E+01  0.12271690499E+03  0.15223196460E+03  0.47000000000E+01 0. -1.
<mgrwt>
<rscale>  0 0.27435375E+03</rscale>
<asrwt>0</asrwt>
<pdfrwt beam="1">  1        2 0.47511642E-01 0.27435375E+03</pdfrwt>
<pdfrwt beam="2">  1       -2 0.93742178E-02 0.27435375E+03</pdfrwt>
<totfact> 0.77351426E+03</totfact>
</mgrwt>
</event>
<event>
 9    1  0.2073852E-002  0.2744662E+03  0.7818608E-02  0.1098750E+00
          1   -1    0    0  501    0  0.00000000000E+00  0.00000000000E+00  0.12395799474E+03  0.12395799474E+03  0.00000000000E+00 0. -1.
         -1   -1    0    0    0  501 -0.00000000000E+00 -0.00000000000E+00 -0.15192986234E+03  0.15192986234E+03  0.00000000000E+00 0. -1.
         36    2    1    2    0    0  0.00000000000E+00  0.35527136788E-14 -0.27971867595E+02  0.27588785708E+03  0.27446618063E+03 0.  0.
         25    2    3    3    0    0 -0.48914649905E+02 -0.28859047928E+02 -0.10689861181E+02  0.13791569582E+03  0.12522371341E+03 0.  0.
         25    2    3    3    0    0  0.48914649905E+02  0.28859047928E+02 -0.17282006414E+02  0.13797216126E+03  0.12454782982E+03 0.  0.
          5    1    4    4  502    0 -0.51117891585E+02  0.41868618670E+02 -0.31947906597E+00  0.66243581850E+02  0.47000000000E+01 0. -1.
         -5    1    4    4    0  502  0.22032416799E+01 -0.70727666598E+02 -0.10370382115E+02  0.71672113974E+02  0.47000000000E+01 0. -1.
          5    1    5    5  503    0  0.43900037931E+01  0.58191395349E+02 -0.48485339818E+02  0.76015977289E+02  0.47000000000E+01 0.  1.
         -5    1    5    5    0  503  0.44524646112E+02 -0.29332347421E+02  0.31203333403E+02  0.61956183970E+02  0.47000000000E+01 0.  1.
<mgrwt>
<rscale>  0 0.27446618E+03</rscale>
<asrwt>0</asrwt>
<pdfrwt beam="1">  1        1 0.19070461E-01 0.27446618E+03</pdfrwt>
<pdfrwt beam="2">  1       -1 0.23373825E-01 0.27446618E+03</pdfrwt>
<totfact> 0.42076393E+03</totfact>
</mgrwt>
</event>
<event>
 9    1  0.2073852E-002  0.2787213E+03  0.7818608E-02  0.1096389E+00
          2   -1    0    0  501    0  0.00000000000E+00  0.00000000000E+00  0.37952283556E+03  0.37952283556E+03  0.00000000000E+00 0. -1.
         -2   -1    0    0    0  501 -0.00000000000E+00 -0.00000000000E+00 -0.51173174137E+02  0.51173174137E+02  0.00000000000E+00 0. -1.
         36    2    1    2    0    0 -0.71054273576E-14  0.00000000000E+00  0.32834966142E+03  0.43069600969E+03  0.27872128123E+03 0.  0.
         25    2    3    3    0    0  0.63409242979E+02 -0.95175793574E+01  0.17191349819E+03  0.22145331685E+03  0.12400001722E+03 0.  0.
         25    2    3    3    0    0 -0.63409242979E+02  0.95175793574E+01  0.15643616322E+03  0.20924269284E+03  0.12328387945E+03 0.  0.
          5    1    4    4  502    0  0.85476504143E+02 -0.12742480841E+01  0.54234123358E+02  0.10134735618E+03  0.47000000000E+01 0. -1.
         -5    1    4    4    0  502 -0.22067261164E+02 -0.82433312733E+01  0.11767937484E+03  0.12010596067E+03  0.47000000000E+01 0. -1.
          5    1    5    5  503    0 -0.63786940034E+02  0.17455511457E+01  0.17621670007E+03  0.18747329424E+03  0.47000000000E+01 0.  1.
         -5    1    5    5    0  503  0.37769705442E+00  0.77720282117E+01 -0.19780536850E+02  0.21769398606E+02  0.47000000000E+01 0.  1.
<mgrwt>
<rscale>  0 0.27872128E+03</rscale>
<asrwt>0</asrwt>
<pdfrwt beam="1">  1        2 0.58388127E-01 0.27872128E+03</pdfrwt>
<pdfrwt beam="2">  1       -2 0.78727963E-02 0.27872128E+03</pdfrwt>
<totfact> 0.81509574E+03</totfact>
</mgrwt>
</event>
<event>
 9    1  0.2073852E-002  0.2747212E+03  0.7818608E-02  0.1098608E+00
         -2   -1    0    0    0  501 -0.00000000000E+00  0.00000000000E+00  0.91885503666E+01  0.91885503666E+01  0.00000000000E+00 0. -1.
          2   -1    0    0  501    0  0.00000000000E+00 -0.00000000000E+00 -0.20534177139E+04  0.20534177139E+04  0.00000000000E+00 0. -1.
         36    2    1    2    0    0 -0.35527136788E-14  0.00000000000E+00 -0.20442291635E+04  0.20626062643E+04  0.27472118293E+03 0.  0.
         25    2    3    3    0    0 -0.29754693412E+02  0.19758724573E+02 -0.13109740481E+04  0.13174448675E+04  0.12542836736E+03 0.  0.
         25    2    3    3    0    0  0.29754693412E+02 -0.19758724573E+02 -0.73325511548E+03  0.74516139674E+03  0.12777595169E+03 0.  0.
          5    1    4    4  502    0 -0.31257841499E+02 -0.48210160033E+02 -0.43140032628E+03  0.43523511313E+03  0.47000000000E+01 0.  1.
         -5    1    4    4    0  502  0.15031480875E+01  0.67968884606E+02 -0.87957372179E+03  0.88220975442E+03  0.47000000000E+01 0.  1.
          5    1    5    5  503    0  0.39967663349E+02 -0.57998532090E+02 -0.23652682176E+03  0.24683652738E+03  0.47000000000E+01 0.  1.
         -5    1    5    5    0  503 -0.10212969937E+02  0.38239807517E+02 -0.49672829373E+03  0.49832486936E+03  0.47000000000E+01 0.  1.
<mgrwt>
<rscale>  0 0.27472118E+03</rscale>
<asrwt>0</asrwt>
<pdfrwt beam="1">  1        2 0.31591063E+00 0.27472118E+03</pdfrwt>
<pdfrwt beam="2">  1       -2 0.14136222E-02 0.27472118E+03</pdfrwt>
<totfact> 0.89599932E+03</totfact>
</mgrwt>
</event>
<event>
 9    1  0.2073852E-002  0.2750322E+03  0.7818608E-02  0.1098434E+00
          1   -1    0    0  501    0  0.00000000000E+00  0.00000000000E+00  0.98099224619E+03  0.98099224619E+03  0.00000000000E+00 0. -1.
         -1   -1    0    0    0  501 -0.00000000000E+00 -0.00000000000E+00 -0.19277089427E+02  0.19277089427E+02  0.00000000000E+00 0. -1.
         36    2    1    2    0    0  0.71054273576E-14 -0.71054273576E-14  0.96171515677E+03  0.10002693356E+04  0.27503218181E+03 0.  0.
         25    2    3    3    0    0  0.31663554719E+02 -0.29630752184E+02  0.55200337754E+03  0.56738340896E+03  0.12383715832E+03 0.  0.
         25    2    3    3    0    0 -0.31663554719E+02  0.29630752184E+02  0.40971177923E+03  0.43288592666E+03  0.13283795123E+03 0.  0.
          5    1    4    4  502    0 -0.55110078773E+01  0.41995181937E+02  0.29230903876E+03  0.29539910402E+03  0.47000000000E+01 0. -1.
         -5    1    4    4    0  502  0.37174562596E+02 -0.71625934121E+02  0.25969433877E+03  0.27198430494E+03  0.47000000000E+01 0. -1.
          5    1    5    5  503    0 -0.63192667185E+02  0.34229194899E+02  0.11020079253E+03  0.13164822689E+03  0.47000000000E+01 0.  1.
         -5    1    5    5    0  503  0.31529112466E+02 -0.45984427154E+01  0.29951098670E+03  0.30123769977E+03  0.47000000000E+01 0.  1.
<mgrwt>
<rscale>  0 0.27503218E+03</rscale>
<asrwt>0</asrwt>
<pdfrwt beam="1">  1        1 0.15092185E+00 0.27503218E+03</pdfrwt>
<pdfrwt beam="2">  1       -1 0.29657068E-02 0.27503218E+03</pdfrwt>
<totfact> 0.63369325E+03</totfact>
</mgrwt>
</event>
<event>
 9    1  0.2073852E-002  0.2754040E+03  0.7818608E-02  0.1098226E+00
         -2   -1    0    0    0  501 -0.00000000000E+00  0.00000000000E+00  0.34127656838E+03  0.34127656838E+03  0.00000000000E+00 0. -1.
          2   -1    0    0  501    0  0.00000000000E+00 -0.00000000000E+00 -0.55561516407E+02  0.55561516407E+02  0.00000000000E+00 0. -1.
         36    2    1    2    0    0  0.71054273576E-14  0.14210854715E-13  0.28571505198E+03  0.39683808479E+03  0.27540402069E+03 0.  0.
         25    2    3    3    0    0  0.33428377728E+02 -0.69182175988E+02  0.17194032461E+03  0.22052475556E+03  0.11473474920E+03 0.  0.
         25    2    3    3    0    0 -0.33428377728E+02  0.69182175988E+02  0.11377472737E+03  0.17631332923E+03  0.11062581781E+03 0.  0.
          5    1    4    4  502    0 -0.13756936601E+02 -0.35362019788E+02 -0.78700306442E+00  0.38241798100E+02  0.47000000000E+01 0.  1.
         -5    1    4    4    0  502  0.47185314329E+02 -0.33820156200E+02  0.17272732767E+03  0.18228295746E+03  0.47000000000E+01 0.  1.
          5    1    5    5  503    0 -0.58501396686E+02  0.10278306905E+02  0.89846853299E+02  0.10780818176E+03  0.47000000000E+01 0.  1.
         -5    1    5    5    0  503  0.25073018959E+02  0.58903869083E+02  0.23927874067E+02  0.68505147471E+02  0.47000000000E+01 0.  1.
<mgrwt>
<rscale>  0 0.27540402E+03</rscale>
<asrwt>0</asrwt>
<pdfrwt beam="1">  1        2 0.85479258E-02 0.27540402E+03</pdfrwt>
<pdfrwt beam="2">  1       -2 0.52504086E-01 0.27540402E+03</pdfrwt>
<totfact> 0.27101181E+03</totfact>
</mgrwt>
</event>
<event>
 9    1  0.2073852E-002  0.2740974E+03  0.7818608E-02  0.1098957E+00
          2   -1    0    0  501    0  0.00000000000E+00  0.00000000000E+00  0.15669065936E+03  0.15669065936E+03  0.00000000000E+00 0. -1.
         -2   -1    0    0    0  501 -0.00000000000E+00 -0.00000000000E+00 -0.11986896720E+03  0.11986896720E+03  0.00000000000E+00 0. -1.
         36    2    1    2    0    0  0.00000000000E+00  0.71054273576E-14  0.36821692162E+02  0.27655962656E+03  0.27409740974E+03 0.  0.
         25    2    3    3    0    0  0.47074486216E+02  0.34337122061E+02  0.11201132152E+02  0.13850028013E+03  0.12514718147E+03 0.  0.
         25    2    3    3    0    0 -0.47074486216E+02 -0.34337122061E+02  0.25620560010E+02  0.13805934643E+03  0.12251091722E+03 0.  0.
          5    1    4    4  502    0  0.86164226180E+02  0.43568477130E+02  0.49732277002E+00  0.96668626774E+02  0.47000000000E+01 0. -1.
         -5    1    4    4    0  502 -0.39089739964E+02 -0.92313550681E+01  0.10703809382E+02  0.41831653351E+02  0.47000000000E+01 0. -1.
          5    1    5    5  503    0  0.56331973904E+01 -0.67945534488E+02 -0.45452743308E+01  0.68491445367E+02  0.47000000000E+01 0. -1.
         -5    1    5    5    0  503 -0.52707683607E+02  0.33608412427E+02  0.30165834341E+02  0.69567901064E+02  0.47000000000E+01 0. -1.
<mgrwt>
<rscale>  0 0.27409741E+03</rscale>
<asrwt>0</asrwt>
<pdfrwt beam="1">  1        2 0.24106255E-01 0.27409741E+03</pdfrwt>
<pdfrwt beam="2">  1       -2 0.18441380E-01 0.27409741E+03</pdfrwt>
<totfact> 0.53768869E+03</totfact>
</mgrwt>
</event>
<event>
 9    1  0.2073852E-002  0.2754237E+03  0.7818608E-02  0.1098215E+00
         -2   -1    0    0    0  501 -0.00000000000E+00  0.00000000000E+00  0.70995246787E+01  0.70995246787E+01  0.00000000000E+00 0.  1.
          2   -1    0    0  501    0  0.00000000000E+00 -0.00000000000E+00 -0.26712434690E+04  0.26712434690E+04  0.00000000000E+00 0.  1.
         36    2    1    2    0    0  0.00000000000E+00 -0.71054273576E-14 -0.26641439443E+04  0.26783429937E+04  0.27542373849E+03 0.  0.
         25    2    3    3    0    0  0.11854345099E+02 -0.47956837160E+02 -0.15114433730E+04  0.15172019898E+04  0.12247622015E+03 0.  0.
         25    2    3    3    0    0 -0.11854345099E+02  0.47956837160E+02 -0.11527005713E+04  0.11611410039E+04  0.13072658456E+03 0.  0.
          5    1    4    4  502    0 -0.26488543256E+02 -0.83122026046E+01 -0.12323920046E+04  0.12327136239E+04  0.47000000000E+01 0. -1.
         -5    1    4    4    0  502  0.38342888355E+02 -0.39644634555E+02 -0.27905136839E+03  0.28448836590E+03  0.47000000000E+01 0. -1.
          5    1    5    5  503    0  0.42485803875E+02  0.27363909558E+01 -0.15155142693E+03  0.15748795627E+03  0.47000000000E+01 0.  1.
         -5    1    5    5    0  503 -0.54340148975E+02  0.45220446204E+02 -0.10011491444E+04  0.10036530476E+04  0.47000000000E+01 0.  1.
<mgrwt>
<rscale>  0 0.27542374E+03</rscale>
<asrwt>0</asrwt>
<pdfrwt beam="1">  1        2 0.41095949E+00 0.27542374E+03</pdfrwt>
<pdfrwt beam="2">  1       -2 0.10922373E-02 0.27542374E+03</pdfrwt>
<totfact> 0.60437025E+03</totfact>
</mgrwt>
</event>
<event>
 9    1  0.2073852E-002  0.2756963E+03  0.7818608E-02  0.1098063E+00
          2   -1    0    0  501    0  0.00000000000E+00  0.00000000000E+00  0.33293272868E+02  0.33293272868E+02  0.00000000000E+00 0. -1.
         -2   -1    0    0    0  501 -0.00000000000E+00 -0.00000000000E+00 -0.57074939408E+03  0.57074939408E+03  0.00000000000E+00 0. -1.
         36    2    1    2    0    0  0.00000000000E+00 -0.17763568394E-14 -0.53745612121E+03  0.60404266695E+03  0.27569632073E+03 0.  0.
         25    2    3    3    0    0 -0.14183980251E+01 -0.65758864073E+01 -0.14432459747E+03  0.19098238618E+03  0.12489767116E+03 0.  0.
         25    2    3    3    0    0  0.14183980251E+01  0.65758864073E+01 -0.39313152374E+03  0.41306028077E+03  0.12657466751E+03 0.  0.
          5    1    4    4  502    0  0.11144601135E+02  0.27369070671E+02  0.10654911601E+02  0.31762954917E+02  0.47000000000E+01 0.  1.
         -5    1    4    4    0  502 -0.12562999160E+02 -0.33944957078E+02 -0.15497950907E+03  0.15921943126E+03  0.47000000000E+01 0.  1.
          5    1    5    5  503    0 -0.50365870131E+02 -0.32993153881E+01 -0.31266615794E+03  0.31674883216E+03  0.47000000000E+01 0. -1.
         -5    1    5    5    0  503  0.51784268156E+02  0.98752017954E+01 -0.80465365801E+02  0.96311448605E+02  0.47000000000E+01 0. -1.
<mgrwt>
<rscale>  0 0.27569632E+03</rscale>
<asrwt>0</asrwt>
<pdfrwt beam="1">  1        2 0.51220419E-02 0.27569632E+03</pdfrwt>
<pdfrwt beam="2">  1       -2 0.87807600E-01 0.27569632E+03</pdfrwt>
<totfact> 0.17579356E+03</totfact>
</mgrwt>
</event>
<event>
 9    1  0.2073852E-002  0.2750225E+03  0.7818608E-02  0.1098439E+00
          2   -1    0    0  501    0  0.00000000000E+00  0.00000000000E+00  0.57926316556E+03  0.57926316556E+03  0.00000000000E+00 0.  1.
         -2   -1    0    0    0  501 -0.00000000000E+00 -0.00000000000E+00 -0.32643786829E+02  0.32643786829E+02  0.00000000000E+00 0.  1.
         36    2    1    2    0    0 -0.35527136788E-14  0.71054273576E-14  0.54661937873E+03  0.61190695239E+03  0.27502249577E+03 0.  0.
         25    2    3    3    0    0  0.10489295044E+02  0.56824904146E+02  0.23354907214E+03  0.27014437521E+03  0.12285649888E+03 0.  0.
         25    2    3    3    0    0 -0.10489295044E+02 -0.56824904146E+02  0.31307030659E+03  0.34176257718E+03  0.12429620771E+03 0.  0.
          5    1    4    4  502    0 -0.55665853271E+02  0.35015590447E+02  0.11106135487E+03  0.12915685557E+03  0.47000000000E+01 0.  1.
         -5    1    4    4    0  502  0.66155148314E+02  0.21809313699E+02  0.12248771727E+03  0.14098751964E+03  0.47000000000E+01 0.  1.
          5    1    5    5  503    0  0.60311609962E+01  0.35006843802E+02  0.14612719667E+03  0.15045631134E+03  0.47000000000E+01 0. -1.
         -5    1    5    5    0  503 -0.16520456040E+02 -0.91831747948E+02  0.16694310992E+03  0.19130626584E+03  0.47000000000E+01 0. -1.
<mgrwt>
<rscale>  0 0.27502250E+03</rscale>
<asrwt>0</asrwt>
<pdfrwt beam="1">  1        2 0.89117402E-01 0.27502250E+03</pdfrwt>
<pdfrwt beam="2">  1       -2 0.50221215E-02 0.27502250E+03</pdfrwt>
<totfact> 0.10174754E+04</totfact>
</mgrwt>
</event>
<event>
 9    1  0.2073852E-002  0.2748136E+03  0.7818608E-02  0.1098556E+00
          2   -1    0    0  501    0  0.00000000000E+00  0.00000000000E+00  0.22693122330E+03  0.22693122330E+03  0.00000000000E+00 0. -1.
         -2   -1    0    0    0  501 -0.00000000000E+00 -0.00000000000E+00 -0.83199766361E+02  0.83199766361E+02  0.00000000000E+00 0. -1.
         36    2    1    2    0    0 -0.35527136788E-14 -0.17763568394E-14  0.14373145694E+03  0.31013098966E+03  0.27481357142E+03 0.  0.
         25    2    3    3    0    0 -0.20043490038E+02 -0.88451296366E+01  0.15371602024E+02  0.13077540270E+03  0.12800758568E+03 0.  0.
         25    2    3    3    0    0  0.20043490038E+02  0.88451296366E+01  0.12835985492E+03  0.17935558696E+03  0.12333773311E+03 0.  0.
          5    1    4    4  502    0 -0.72654791722E+02  0.20779477693E+01 -0.52595918277E+01  0.73025953834E+02  0.47000000000E+01 0.  1.
         -5    1    4    4    0  502  0.52611301684E+02 -0.10923077406E+02  0.20631193851E+02  0.57749448869E+02  0.47000000000E+01 0.  1.
          5    1    5    5  503    0  0.31043788475E+02 -0.51054438051E+02  0.86772046505E+02  0.10545971033E+03  0.47000000000E+01 0. -1.
         -5    1    5    5    0  503 -0.11000298437E+02  0.59899567688E+02  0.41587808412E+02  0.73895876633E+02  0.47000000000E+01 0. -1.
<mgrwt>
<rscale>  0 0.27481357E+03</rscale>
<asrwt>0</asrwt>
<pdfrwt beam="1">  1        2 0.34912496E-01 0.27481357E+03</pdfrwt>
<pdfrwt beam="2">  1       -2 0.12799964E-01 0.27481357E+03</pdfrwt>
<totfact> 0.65483381E+03</totfact>
</mgrwt>
</event>
<event>
 9    1  0.2073852E-002  0.2768610E+03  0.7818608E-02  0.1097416E+00
         -2   -1    0    0    0  501 -0.00000000000E+00  0.00000000000E+00  0.17050697598E+03  0.17050697598E+03  0.00000000000E+00 0. -1.
          2   -1    0    0  501    0  0.00000000000E+00 -0.00000000000E+00 -0.11238834748E+03  0.11238834748E+03  0.00000000000E+00 0. -1.
         36    2    1    2    0    0  0.71054273576E-14 -0.17763568394E-14  0.58118628504E+02  0.28289532346E+03  0.27686095618E+03 0.  0.
         25    2    3    3    0    0  0.50661065688E+01 -0.77071591947E+01 -0.30673129184E+02  0.12942169481E+03  0.12539564783E+03 0.  0.
         25    2    3    3    0    0 -0.50661065688E+01  0.77071591947E+01  0.88791757688E+02  0.15347362865E+03  0.12484034892E+03 0.  0.
          5    1    4    4  502    0  0.44109909231E+02  0.28878118363E+02 -0.49534629754E+02  0.72494133262E+02  0.47000000000E+01 0.  1.
         -5    1    4    4    0  502 -0.39043802662E+02 -0.36585277558E+02  0.18861500570E+02  0.56927561550E+02  0.47000000000E+01 0.  1.
          5    1    5    5  503    0 -0.63923784778E+02  0.13827588035E+02  0.41768974842E+02  0.77744387004E+02  0.47000000000E+01 0. -1.
         -5    1    5    5    0  503  0.58857678209E+02 -0.61204288401E+01  0.47022782846E+02  0.75729241643E+02  0.47000000000E+01 0. -1.
<mgrwt>
<rscale>  0 0.27686096E+03</rscale>
<asrwt>0</asrwt>
<pdfrwt beam="1">  1        2 0.17290515E-01 0.27686096E+03</pdfrwt>
<pdfrwt beam="2">  1       -2 0.26231843E-01 0.27686096E+03</pdfrwt>
<totfact> 0.42692599E+03</totfact>
</mgrwt>
</event>
<event>
 9    1  0.2073852E-002  0.2755017E+03  0.7818608E-02  0.1098172E+00
         -2   -1    0    0    0  501 -0.00000000000E+00  0.00000000000E+00  0.28993982519E+02  0.28993982519E+02  0.00000000000E+00 0.  1.
          2   -1    0    0  501    0  0.00000000000E+00 -0.00000000000E+00 -0.65445616554E+03  0.65445616554E+03  0.00000000000E+00 0.  1.
         36    2    1    2    0    0  0.26645352591E-14  0.00000000000E+00 -0.62546218302E+03  0.68345014806E+03  0.27550165606E+03 0.  0.
         25    2    3    3    0    0  0.39859560494E+01 -0.45324065890E+02 -0.37771639465E+03  0.40130202598E+03  0.12768509103E+03 0.  0.
         25    2    3    3    0    0 -0.39859560494E+01  0.45324065890E+02 -0.24774578837E+03  0.28214812208E+03  0.12711974019E+03 0.  0.
          5    1    4    4  502    0 -0.51299222551E+02  0.96759637449E+00 -0.24328251764E+03  0.24867854726E+03  0.47000000000E+01 0. -1.
         -5    1    4    4    0  502  0.55285178601E+02 -0.46291662264E+02 -0.13443387702E+03  0.15262347872E+03  0.47000000000E+01 0. -1.
          5    1    5    5  503    0 -0.57051191188E+00  0.23025831190E+02  0.84035329013E+01  0.24964449745E+02  0.47000000000E+01 0. -1.
         -5    1    5    5    0  503 -0.34154441376E+01  0.22298234699E+02 -0.25614932127E+03  0.25718367233E+03  0.47000000000E+01 0. -1.
<mgrwt>
<rscale>  0 0.27550166E+03</rscale>
<asrwt>0</asrwt>
<pdfrwt beam="1">  1        2 0.10068556E+00 0.27550166E+03</pdfrwt>
<pdfrwt beam="2">  1       -2 0.44606127E-02 0.27550166E+03</pdfrwt>
<totfact> 0.10558587E+04</totfact>
</mgrwt>
</event>
<event>
 9    1  0.2073852E-002  0.2752596E+03  0.7818608E-02  0.1098307E+00
          2   -1    0    0  501    0  0.00000000000E+00  0.00000000000E+00  0.10560703330E+04  0.10560703330E+04  0.00000000000E+00 0. -1.
         -2   -1    0    0    0  501 -0.00000000000E+00 -0.00000000000E+00 -0.17936271613E+02  0.17936271613E+02  0.00000000000E+00 0. -1.
         36    2    1    2    0    0  0.00000000000E+00  0.00000000000E+00  0.10381340614E+04  0.10740066046E+04  0.27525961807E+03 0.  0.
         25    2    3    3    0    0 -0.26061056829E+02  0.14612387207E+02  0.58842579032E+03  0.60626484540E+03  0.14289664624E+03 0.  0.
         25    2    3    3    0    0  0.26061056829E+02 -0.14612387207E+02  0.44970827104E+03  0.46774175919E+03  0.12510844778E+03 0.  0.
          5    1    4    4  502    0 -0.21344785203E+02 -0.56962454445E+02  0.39938280741E+03  0.40401613573E+03  0.47000000000E+01 0.  1.
         -5    1    4    4    0  502 -0.47162716263E+01  0.71574841652E+02  0.18904298291E+03  0.20224870967E+03  0.47000000000E+01 0.  1.
          5    1    5    5  503    0  0.16627019397E+02 -0.69825090237E+02  0.23207848369E+03  0.24297019075E+03  0.47000000000E+01 0.  1.
         -5    1    5    5    0  503  0.94340374324E+01  0.55212703030E+02  0.21762978735E+03  0.22477156844E+03  0.47000000000E+01 0.  1.
<mgrwt>
<rscale>  0 0.27525962E+03</rscale>
<asrwt>0</asrwt>
<pdfrwt beam="1">  1        2 0.16247231E+00 0.27525962E+03</pdfrwt>
<pdfrwt beam="2">  1       -2 0.27594272E-02 0.27525962E+03</pdfrwt>
<totfact> 0.11619904E+04</totfact>
</mgrwt>
</event>
<event>
 9    1  0.2073852E-002  0.2713067E+03  0.7818608E-02  0.1100534E+00
          1   -1    0    0  501    0  0.00000000000E+00  0.00000000000E+00  0.73007420412E+02  0.73007420412E+02  0.00000000000E+00 0.  1.
         -1   -1    0    0    0  501 -0.00000000000E+00 -0.00000000000E+00 -0.25205433413E+03  0.25205433413E+03  0.00000000000E+00 0.  1.
         36    2    1    2    0    0  0.71054273576E-14  0.00000000000E+00 -0.17904691372E+03  0.32506175454E+03  0.27130673960E+03 0.  0.
         25    2    3    3    0    0  0.34960221678E+02 -0.22390252542E+02 -0.13258217194E+03  0.18672271641E+03  0.12475495982E+03 0.  0.
         25    2    3    3    0    0 -0.34960221678E+02  0.22390252542E+02 -0.46464741776E+02  0.13833903813E+03  0.12351184856E+03 0.  0.
          5    1    4    4  502    0  0.17626329648E+02  0.27713605272E+02  0.98996121324E+01  0.34624034057E+02  0.47000000000E+01 0.  1.
         -5    1    4    4    0  502  0.17333892031E+02 -0.50103857814E+02 -0.14248178408E+03  0.15209868236E+03  0.47000000000E+01 0.  1.
          5    1    5    5  503    0  0.50517010952E+01  0.22128134626E+02 -0.81633543000E+02  0.84860470000E+02  0.47000000000E+01 0.  1.
         -5    1    5    5    0  503 -0.40011922774E+02  0.26211791576E+00  0.35168801223E+02  0.53478568131E+02  0.47000000000E+01 0.  1.
<mgrwt>
<rscale>  0 0.27130674E+03</rscale>
<asrwt>0</asrwt>
<pdfrwt beam="1">  1        1 0.11231911E-01 0.27130674E+03</pdfrwt>
<pdfrwt beam="2">  1       -1 0.38777590E-01 0.27130674E+03</pdfrwt>
<totfact> 0.35596195E+03</totfact>
</mgrwt>
</event>
<event>
 9    1  0.2073852E-002  0.2725151E+03  0.7818608E-02  0.1099849E+00
         -2   -1    0    0    0  501 -0.00000000000E+00  0.00000000000E+00  0.14369052813E+02  0.14369052813E+02  0.00000000000E+00 0.  1.
          2   -1    0    0  501    0  0.00000000000E+00 -0.00000000000E+00 -0.12920904531E+04  0.12920904531E+04  0.00000000000E+00 0.  1.
         36    2    1    2    0    0  0.35527136788E-14  0.00000000000E+00 -0.12777214003E+04  0.13064595060E+04  0.27251507085E+03 0.  0.
         25    2    3    3    0    0 -0.17570798030E+02  0.36688800389E+02 -0.81003504668E+03  0.82064126506E+03  0.12506201682E+03 0.  0.
         25    2    3    3    0    0  0.17570798030E+02 -0.36688800389E+02 -0.46768635365E+03  0.48581824090E+03  0.12503614189E+03 0.  0.
          5    1    4    4  502    0 -0.40368136087E+02  0.11694625900E+02 -0.86339896957E+02  0.96140618329E+02  0.47000000000E+01 0. -1.
         -5    1    4    4    0  502  0.22797338057E+02  0.24994174490E+02 -0.72369514972E+03  0.72450064673E+03  0.47000000000E+01 0. -1.
          5    1    5    5  503    0 -0.11803383626E+02  0.41197141394E+02 -0.10179008571E+03  0.11054336648E+03  0.47000000000E+01 0. -1.
         -5    1    5    5    0  503  0.29374181656E+02 -0.77885941783E+02 -0.36589626794E+03  0.37527487442E+03  0.47000000000E+01 0. -1.
<mgrwt>
<rscale>  0 0.27251507E+03</rscale>
<asrwt>0</asrwt>
<pdfrwt beam="1">  1        2 0.19878315E+00 0.27251507E+03</pdfrwt>
<pdfrwt beam="2">  1       -2 0.22106234E-02 0.27251507E+03</pdfrwt>
<totfact> 0.11806418E+04</totfact>
</mgrwt>
</event>
<event>
 9    1  0.2073852E-002  0.2747528E+03  0.7818608E-02  0.1098590E+00
          3   -1    0    0  501    0  0.00000000000E+00  0.00000000000E+00  0.16364691349E+04  0.16364691349E+04  0.00000000000E+00 0.  1.
         -3   -1    0    0    0  501 -0.00000000000E+00 -0.00000000000E+00 -0.11532313342E+02  0.11532313342E+02  0.00000000000E+00 0.  1.
         36    2    1    2    0    0  0.35527136788E-14 -0.35527136788E-14  0.16249368215E+04  0.16480014482E+04  0.27475279680E+03 0.  0.
         25    2    3    3    0    0  0.54733879986E+01 -0.22500394120E+01  0.12500868943E+04  0.12554070317E+04  0.11530199969E+03 0.  0.
         25    2    3    3    0    0 -0.54733879986E+01  0.22500394120E+01  0.37484992718E+03  0.39259441653E+03  0.11654564482E+03 0.  0.
          5    1    4    4  502    0 -0.36951208281E+01  0.51690434891E+02  0.37423835527E+03  0.37783857867E+03  0.47000000000E+01 0.  1.
         -5    1    4    4    0  502  0.91685088266E+01 -0.53940474303E+02  0.87584853907E+03  0.87756845301E+03  0.47000000000E+01 0.  1.
          5    1    5    5  503    0  0.38347228607E+02  0.30867501219E+02  0.87745917976E+02  0.10072114324E+03  0.47000000000E+01 0.  1.
         -5    1    5    5    0  503 -0.43820616605E+02 -0.28617461807E+02  0.28710400921E+03  0.29187327329E+03  0.47000000000E+01 0.  1.
<mgrwt>
<rscale>  0 0.27475280E+03</rscale>
<asrwt>0</asrwt>
<pdfrwt beam="1">  1        3 0.25176430E+00 0.27475280E+03</pdfrwt>
<pdfrwt beam="2">  1       -3 0.17742034E-02 0.27475280E+03</pdfrwt>
<totfact> 0.23456039E+02</totfact>
</mgrwt>
</event>
<event>
 9    1  0.2073852E-002  0.2742605E+03  0.7818608E-02  0.1098866E+00
         -2   -1    0    0    0  501 -0.00000000000E+00  0.00000000000E+00  0.34806601315E+02  0.34806601315E+02  0.00000000000E+00 0. -1.
          2   -1    0    0  501    0  0.00000000000E+00 -0.00000000000E+00 -0.54026260462E+03  0.54026260462E+03  0.00000000000E+00 0. -1.
         36    2    1    2    0    0 -0.71054273576E-14 -0.17763568394E-14 -0.50545600330E+03  0.57506920593E+03  0.27426049722E+03 0.  0.
         25    2    3    3    0    0  0.17410525416E+02 -0.13634467872E+02 -0.35273454281E+03  0.37769100097E+03  0.13319087584E+03 0.  0.
         25    2    3    3    0    0 -0.17410525416E+02  0.13634467872E+02 -0.15272146049E+03  0.19737820497E+03  0.12306618623E+03 0.  0.
          5    1    4    4  502    0  0.52635609175E+02  0.30186815836E+02 -0.27491550398E+03  0.28157126190E+03  0.47000000000E+01 0.  1.
         -5    1    4    4    0  502 -0.35225083759E+02 -0.43821283707E+02 -0.77819038839E+02  0.96119739062E+02  0.47000000000E+01 0.  1.
          5    1    5    5  503    0  0.42398751966E+02 -0.95348529111E+01 -0.16469482961E+02  0.46710828052E+02  0.47000000000E+01 0.  1.
         -5    1    5    5    0  503 -0.59809277382E+02  0.23169320783E+02 -0.13625197753E+03  0.15066737692E+03  0.47000000000E+01 0.  1.
<mgrwt>
<rscale>  0 0.27426050E+03</rscale>
<asrwt>0</asrwt>
<pdfrwt beam="1">  1        2 0.83117318E-01 0.27426050E+03</pdfrwt>
<pdfrwt beam="2">  1       -2 0.53548621E-02 0.27426050E+03</pdfrwt>
<totfact> 0.99920867E+03</totfact>
</mgrwt>
</event>
<event>
 9    1  0.2073852E-002  0.2754763E+03  0.7818608E-02  0.1098186E+00
         -1   -1    0    0    0  501 -0.00000000000E+00  0.00000000000E+00  0.21450012923E+02  0.21450012923E+02  0.00000000000E+00 0.  1.
          1   -1    0    0  501    0  0.00000000000E+00 -0.00000000000E+00 -0.88446568623E+03  0.88446568623E+03  0.00000000000E+00 0.  1.
         36    2    1    2    0    0 -0.35527136788E-14  0.71054273576E-14 -0.86301567331E+03  0.90591569915E+03  0.27547631767E+03 0.  0.
         25    2    3    3    0    0  0.30291256312E+02  0.19076889122E+02 -0.29704527651E+03  0.32555095731E+03  0.12832007481E+03 0.  0.
         25    2    3    3    0    0 -0.30291256312E+02 -0.19076889122E+02 -0.56597039680E+03  0.58036474185E+03  0.12336634718E+03 0.  0.
          5    1    4    4  502    0  0.30574696654E+01  0.48195000220E+02 -0.33489972318E+02  0.58955698730E+02  0.47000000000E+01 0. -1.
         -5    1    4    4    0  502  0.27233786647E+02 -0.29118111098E+02 -0.26355530419E+03  0.26659525858E+03  0.47000000000E+01 0. -1.
          5    1    5    5  503    0  0.70394320675E+01 -0.66995444995E+02 -0.29921951679E+03  0.30674476765E+03  0.47000000000E+01 0.  1.
         -5    1    5    5    0  503 -0.37330688380E+02  0.47918555873E+02 -0.26675088001E+03  0.27361997420E+03  0.47000000000E+01 0.  1.
<mgrwt>
<rscale>  0 0.27547632E+03</rscale>
<asrwt>0</asrwt>
<pdfrwt beam="1">  1        1 0.13607166E+00 0.27547632E+03</pdfrwt>
<pdfrwt beam="2">  1       -1 0.33000015E-02 0.27547632E+03</pdfrwt>
<totfact> 0.64264599E+03</totfact>
</mgrwt>
</event>
<event>
 9    1  0.2073852E-002  0.2729890E+03  0.7818608E-02  0.1099581E+00
         -2   -1    0    0    0  501 -0.00000000000E+00  0.00000000000E+00  0.30550606357E+02  0.30550606357E+02  0.00000000000E+00 0.  1.
          2   -1    0    0  501    0  0.00000000000E+00 -0.00000000000E+00 -0.60983227771E+03  0.60983227771E+03  0.00000000000E+00 0.  1.
         36    2    1    2    0    0  0.35527136788E-14 -0.71054273576E-14 -0.57928167136E+03  0.64038288407E+03  0.27298898044E+03 0.  0.
         25    2    3    3    0    0 -0.25901887030E+02  0.42570711670E+02 -0.33310650470E+03  0.35959147593E+03  0.12594805611E+03 0.  0.
         25    2    3    3    0    0  0.25901887030E+02 -0.42570711670E+02 -0.24617516665E+03  0.28079140814E+03  0.12553258130E+03 0.  0.
          5    1    4    4  502    0  0.49853070422E+02  0.20498408030E+02 -0.10401084198E+03  0.11724273373E+03  0.47000000000E+01 0. -1.
         -5    1    4    4    0  502 -0.75754957452E+02  0.22072303641E+02 -0.22909566272E+03  0.24234874220E+03  0.47000000000E+01 0. -1.
          5    1    5    5  503    0  0.27633615276E+01 -0.26182689983E+02  0.56473305658E+01  0.27334076977E+02  0.47000000000E+01 0. -1.
         -5    1    5    5    0  503  0.23138525502E+02 -0.16388021687E+02 -0.25182249722E+03  0.25345733117E+03  0.47000000000E+01 0. -1.
<mgrwt>
<rscale>  0 0.27298898E+03</rscale>
<asrwt>0</asrwt>
<pdfrwt beam="1">  1        2 0.93820355E-01 0.27298898E+03</pdfrwt>
<pdfrwt beam="2">  1       -2 0.47000930E-02 0.27298898E+03</pdfrwt>
<totfact> 0.10597267E+04</totfact>
</mgrwt>
</event>
<event>
 9    1  0.2073852E-002  0.2704554E+03  0.7818608E-02  0.1101019E+00
         -2   -1    0    0    0  501 -0.00000000000E+00  0.00000000000E+00  0.30799945765E+02  0.30799945765E+02  0.00000000000E+00 0.  1.
          2   -1    0    0  501    0  0.00000000000E+00 -0.00000000000E+00 -0.59371955186E+03  0.59371955186E+03  0.00000000000E+00 0.  1.
         36    2    1    2    0    0  0.00000000000E+00 -0.71054273576E-14 -0.56291960610E+03  0.62451949763E+03  0.27045539371E+03 0.  0.
         25    2    3    3    0    0 -0.35436711847E+02 -0.17598349462E+02 -0.21137855523E+03  0.24934598643E+03  0.12620247575E+03 0.  0.
         25    2    3    3    0    0  0.35436711847E+02  0.17598349462E+02 -0.35154105087E+03  0.37517351120E+03  0.12493434520E+03 0.  0.
          5    1    4    4  502    0 -0.17278366275E+02 -0.66816302544E+02 -0.16595148777E+03  0.17979139724E+03  0.47000000000E+01 0. -1.
         -5    1    4    4    0  502 -0.18158345573E+02  0.49217953082E+02 -0.45427067455E+02  0.69554589187E+02  0.47000000000E+01 0. -1.
          5    1    5    5  503    0 -0.52705491022E+01  0.65460819558E+02 -0.14527585604E+03  0.15949941045E+03  0.47000000000E+01 0.  1.
         -5    1    5    5    0  503  0.40707260949E+02 -0.47862470096E+02 -0.20626519483E+03  0.21567410075E+03  0.47000000000E+01 0.  1.
<mgrwt>
<rscale>  0 0.27045539E+03</rscale>
<asrwt>0</asrwt>
<pdfrwt beam="1">  1        2 0.91341464E-01 0.27045539E+03</pdfrwt>
<pdfrwt beam="2">  1       -2 0.47384535E-02 0.27045539E+03</pdfrwt>
<totfact> 0.10794454E+04</totfact>
</mgrwt>
</event>
<event>
 9    1  0.2073852E-002  0.2747647E+03  0.7818608E-02  0.1098583E+00
         -1   -1    0    0    0  501 -0.00000000000E+00  0.00000000000E+00  0.35804631751E+02  0.35804631751E+02  0.00000000000E+00 0. -1.
          1   -1    0    0  501    0  0.00000000000E+00 -0.00000000000E+00 -0.52713589875E+03  0.52713589875E+03  0.00000000000E+00 0. -1.
         36    2    1    2    0    0  0.00000000000E+00  0.14210854715E-13 -0.49133126700E+03  0.56294053050E+03  0.27476467559E+03 0.  0.
         25    2    3    3    0    0  0.15696344275E+02  0.48822085508E+02 -0.23266332554E+03  0.27068441170E+03  0.12848290326E+03 0.  0.
         25    2    3    3    0    0 -0.15696344275E+02 -0.48822085508E+02 -0.25866794146E+03  0.29225611880E+03  0.12599430059E+03 0.  0.
          5    1    4    4  502    0 -0.12205008744E+02 -0.33089549057E+02 -0.19488931626E+02  0.40568324481E+02  0.47000000000E+01 0.  1.
         -5    1    4    4    0  502  0.27901353019E+02  0.81911634565E+02 -0.21317439391E+03  0.23011608722E+03  0.47000000000E+01 0.  1.
          5    1    5    5  503    0  0.28514241714E+02 -0.76535175586E+02 -0.18026572879E+03  0.19796090033E+03  0.47000000000E+01 0.  1.
         -5    1    5    5    0  503 -0.44210585989E+02  0.27713090078E+02 -0.78402212674E+02  0.94295218476E+02  0.47000000000E+01 0.  1.
<mgrwt>
<rscale>  0 0.27476468E+03</rscale>
<asrwt>0</asrwt>
<pdfrwt beam="1">  1        1 0.81097828E-01 0.27476468E+03</pdfrwt>
<pdfrwt beam="2">  1       -1 0.55084051E-02 0.27476468E+03</pdfrwt>
<totfact> 0.63655843E+03</totfact>
</mgrwt>
</event>
<event>
 9    1  0.2073852E-002  0.2751109E+03  0.7818608E-02  0.1098390E+00
         -2   -1    0    0    0  501 -0.00000000000E+00  0.00000000000E+00  0.29571166746E+02  0.29571166746E+02  0.00000000000E+00 0. -1.
          2   -1    0    0  501    0  0.00000000000E+00 -0.00000000000E+00 -0.63986307427E+03  0.63986307427E+03  0.00000000000E+00 0. -1.
         36    2    1    2    0    0  0.00000000000E+00  0.00000000000E+00 -0.61029190752E+03  0.66943424101E+03  0.27511086975E+03 0.  0.
         25    2    3    3    0    0 -0.43133884864E+02 -0.35039868464E+01 -0.21517731522E+03  0.25295038666E+03  0.12573707162E+03 0.  0.
         25    2    3    3    0    0  0.43133884864E+02  0.35039868464E+01 -0.39511459230E+03  0.41648385435E+03  0.12438026346E+03 0.  0.
          5    1    4    4  502    0 -0.25712733359E+02 -0.46523474905E+02 -0.19491789426E+03  0.20209070705E+03  0.47000000000E+01 0. -1.
         -5    1    4    4    0  502 -0.17421151505E+02  0.43019488059E+02 -0.20259420963E+02  0.50859679613E+02  0.47000000000E+01 0. -1.
          5    1    5    5  503    0  0.18958506951E+02  0.63709871319E+02 -0.19755105585E+03  0.20848712755E+03  0.47000000000E+01 0.  1.
         -5    1    5    5    0  503  0.24175377912E+02 -0.60205884472E+02 -0.19756353645E+03  0.20799672680E+03  0.47000000000E+01 0.  1.
<mgrwt>
<rscale>  0 0.27511087E+03</rscale>
<asrwt>0</asrwt>
<pdfrwt beam="1">  1        2 0.98440469E-01 0.27511087E+03</pdfrwt>
<pdfrwt beam="2">  1       -2 0.45494105E-02 0.27511087E+03</pdfrwt>
<totfact> 0.10525539E+04</totfact>
</mgrwt>
</event>
<event>
 9    1  0.2073852E-002  0.2759581E+03  0.7818608E-02  0.1097917E+00
         -2   -1    0    0    0  501 -0.00000000000E+00  0.00000000000E+00  0.64058197719E+02  0.64058197719E+02  0.00000000000E+00 0. -1.
          2   -1    0    0  501    0  0.00000000000E+00 -0.00000000000E+00 -0.29720198608E+03  0.29720198608E+03  0.00000000000E+00 0. -1.
         36    2    1    2    0    0  0.71054273576E-14 -0.14210854715E-13 -0.23314378836E+03  0.36126018380E+03  0.27595813876E+03 0.  0.
         25    2    3    3    0    0 -0.19398509300E+02 -0.52966473765E+02 -0.12345619484E+03  0.18187340681E+03  0.12105682366E+03 0.  0.
         25    2    3    3    0    0  0.19398509300E+02  0.52966473765E+02 -0.10968759352E+03  0.17938677698E+03  0.13025551075E+03 0.  0.
          5    1    4    4  502    0 -0.52463532958E+02 -0.61936272682E+02 -0.12281156178E+03  0.14728643479E+03  0.47000000000E+01 0.  1.
         -5    1    4    4    0  502  0.33065023658E+02  0.89697989168E+01 -0.64463305760E+00  0.34586972025E+02  0.47000000000E+01 0.  1.
          5    1    5    5  503    0  0.33845722509E+02  0.92621291942E+02 -0.67979525071E+02  0.11986468405E+03  0.47000000000E+01 0. -1.
         -5    1    5    5    0  503 -0.14447213210E+02 -0.39654818176E+02 -0.41708068445E+02  0.59522092936E+02  0.47000000000E+01 0. -1.
<mgrwt>
<rscale>  0 0.27595814E+03</rscale>
<asrwt>0</asrwt>
<pdfrwt beam="1">  1        2 0.45723381E-01 0.27595814E+03</pdfrwt>
<pdfrwt beam="2">  1       -2 0.98551076E-02 0.27595814E+03</pdfrwt>
<totfact> 0.74483775E+03</totfact>
</mgrwt>
</event>
<event>
 9    1  0.2073852E-002  0.2787861E+03  0.7818608E-02  0.1096354E+00
         -2   -1    0    0    0  501 -0.00000000000E+00  0.00000000000E+00  0.64889945648E+02  0.64889945648E+02  0.00000000000E+00 0.  1.
          2   -1    0    0  501    0  0.00000000000E+00 -0.00000000000E+00 -0.29943653601E+03  0.29943653601E+03  0.00000000000E+00 0.  1.
         36    2    1    2    0    0  0.71054273576E-14  0.00000000000E+00 -0.23454659036E+03  0.36432648166E+03  0.27878608679E+03 0.  0.
         25    2    3    3    0    0 -0.48954535379E+02 -0.39867628843E+02 -0.12133144278E+03  0.18454246623E+03  0.12388958177E+03 0.  0.
         25    2    3    3    0    0  0.48954535379E+02  0.39867628843E+02 -0.11321514758E+03  0.17978401543E+03  0.12457386643E+03 0.  0.
          5    1    4    4  502    0 -0.75733979886E+02 -0.53090917248E+01 -0.27437828429E+02  0.80862516615E+02  0.47000000000E+01 0. -1.
         -5    1    4    4    0  502  0.26779444507E+02 -0.34558537118E+02 -0.93893614355E+02  0.10367994962E+03  0.47000000000E+01 0. -1.
          5    1    5    5  503    0 -0.27370855186E+02 -0.38590585157E+01 -0.81452964767E+02  0.86143667878E+02  0.47000000000E+01 0.  1.
         -5    1    5    5    0  503  0.76325390565E+02  0.43726687358E+02 -0.31762182813E+02  0.93640347550E+02  0.47000000000E+01 0.  1.
<mgrwt>
<rscale>  0 0.27878609E+03</rscale>
<asrwt>0</asrwt>
<pdfrwt beam="1">  1        2 0.46067159E-01 0.27878609E+03</pdfrwt>
<pdfrwt beam="2">  1       -2 0.99830686E-02 0.27878609E+03</pdfrwt>
<totfact> 0.72415032E+03</totfact>
</mgrwt>
</event>
<event>
 9    1  0.2073852E-002  0.2637937E+03  0.7818608E-02  0.1104885E+00
          2   -1    0    0  501    0  0.00000000000E+00  0.00000000000E+00  0.61920500945E+03  0.61920500945E+03  0.00000000000E+00 0. -1.
         -2   -1    0    0    0  501 -0.00000000000E+00 -0.00000000000E+00 -0.28095353601E+02  0.28095353601E+02  0.00000000000E+00 0. -1.
         36    2    1    2    0    0  0.71054273576E-14 -0.35527136788E-14  0.59110965585E+03  0.64730036305E+03  0.26379373527E+03 0.  0.
         25    2    3    3    0    0 -0.37462463121E+02  0.13620911318E+02  0.26016597408E+03  0.29145125880E+03  0.12517402614E+03 0.  0.
         25    2    3    3    0    0  0.37462463121E+02 -0.13620911318E+02  0.33094368178E+03  0.35584910425E+03  0.12456283203E+03 0.  0.
          5    1    4    4  502    0 -0.43845814352E+01 -0.47799526672E+02  0.17360018297E+03  0.18017528363E+03  0.47000000000E+01 0. -1.
         -5    1    4    4    0  502 -0.33077881686E+02  0.61420437990E+02  0.86565791109E+02  0.11127597517E+03  0.47000000000E+01 0. -1.
          5    1    5    5  503    0  0.17118037745E+02  0.31316363972E+02  0.28811102958E+03  0.29035116193E+03  0.47000000000E+01 0.  1.
         -5    1    5    5    0  503  0.20344425376E+02 -0.44937275291E+02  0.42832652192E+02  0.65497942321E+02  0.47000000000E+01 0.  1.
<mgrwt>
<rscale>  0 0.26379374E+03</rscale>
<asrwt>0</asrwt>
<pdfrwt beam="1">  1        2 0.95262299E-01 0.26379374E+03</pdfrwt>
<pdfrwt beam="2">  1       -2 0.43223626E-02 0.26379374E+03</pdfrwt>
<totfact> 0.11799578E+04</totfact>
</mgrwt>
</event>
<event>
 9    1  0.2073852E-002  0.2717594E+03  0.7818608E-02  0.1100277E+00
         -2   -1    0    0    0  501 -0.00000000000E+00  0.00000000000E+00  0.45016697474E+02  0.45016697474E+02  0.00000000000E+00 0.  1.
          2   -1    0    0  501    0  0.00000000000E+00 -0.00000000000E+00 -0.41014326750E+03  0.41014326750E+03  0.00000000000E+00 0.  1.
         36    2    1    2    0    0 -0.71054273576E-14  0.14210854715E-13 -0.36512657003E+03  0.45515996498E+03  0.27175941856E+03 0.  0.
         25    2    3    3    0    0 -0.66955300615E+00  0.51268402861E+02 -0.17168687286E+03  0.21776118323E+03  0.12375238656E+03 0.  0.
         25    2    3    3    0    0  0.66955300615E+00 -0.51268402861E+02 -0.19343969717E+03  0.23739878174E+03  0.12771204993E+03 0.  0.
          5    1    4    4  502    0  0.39316787062E+02 -0.24025745616E+02 -0.42198766501E+02  0.62656780092E+02  0.47000000000E+01 0.  1.
         -5    1    4    4    0  502 -0.39986340068E+02  0.75294148477E+02 -0.12948810635E+03  0.15510440314E+03  0.47000000000E+01 0.  1.
          5    1    5    5  503    0 -0.53426725352E+02 -0.17706594159E+02 -0.34659077161E+02  0.66266734401E+02  0.47000000000E+01 0.  1.
         -5    1    5    5    0  503  0.54096278358E+02 -0.33561808703E+02 -0.15878062001E+03  0.17113204734E+03  0.47000000000E+01 0.  1.
<mgrwt>
<rscale>  0 0.27175942E+03</rscale>
<asrwt>0</asrwt>
<pdfrwt beam="1">  1        2 0.63098965E-01 0.27175942E+03</pdfrwt>
<pdfrwt beam="2">  1       -2 0.69256457E-02 0.27175942E+03</pdfrwt>
<totfact> 0.91348637E+03</totfact>
</mgrwt>
</event>
<event>
 9    1  0.2073852E-002  0.2746337E+03  0.7818608E-02  0.1098657E+00
          2   -1    0    0  501    0  0.00000000000E+00  0.00000000000E+00  0.18543797020E+03  0.18543797020E+03  0.00000000000E+00 0. -1.
         -2   -1    0    0    0  501 -0.00000000000E+00 -0.00000000000E+00 -0.10168315419E+03  0.10168315419E+03  0.00000000000E+00 0. -1.
         36    2    1    2    0    0 -0.35527136788E-14 -0.71054273576E-14  0.83754816009E+02  0.28712112440E+03  0.27463370308E+03 0.  0.
         25    2    3    3    0    0  0.12509190022E+02  0.45219436798E+02  0.12378571676E+02  0.13677944199E+03  0.12788318660E+03 0.  0.
         25    2    3    3    0    0 -0.12509190022E+02 -0.45219436798E+02  0.71376244333E+02  0.15034168241E+03  0.12372055575E+03 0.  0.
          5    1    4    4  502    0 -0.21160804849E+02  0.73072962213E+02 -0.23805024548E+02  0.79851153167E+02  0.47000000000E+01 0.  1.
         -5    1    4    4    0  502  0.33669994871E+02 -0.27853525415E+02  0.36183596223E+02  0.56928288823E+02  0.47000000000E+01 0.  1.
          5    1    5    5  503    0  0.47485348888E+02  0.64333695852E+00  0.21204360561E+01  0.47768802482E+02  0.47000000000E+01 0. -1.
         -5    1    5    5    0  503 -0.59994538910E+02 -0.45862773757E+02  0.69255808277E+02  0.10257287992E+03  0.47000000000E+01 0. -1.
<mgrwt>
<rscale>  0 0.27463370E+03</rscale>
<asrwt>0</asrwt>
<pdfrwt beam="1">  1        2 0.28528918E-01 0.27463370E+03</pdfrwt>
<pdfrwt beam="2">  1       -2 0.15643562E-01 0.27463370E+03</pdfrwt>
<totfact> 0.58741782E+03</totfact>
</mgrwt>
</event>
<event>
 9    1  0.2073852E-002  0.2739867E+03  0.7818608E-02  0.1099019E+00
          2   -1    0    0  501    0  0.00000000000E+00  0.00000000000E+00  0.47387728213E+04  0.47387728213E+04  0.00000000000E+00 0. -1.
         -2   -1    0    0    0  501 -0.00000000000E+00 -0.00000000000E+00 -0.39603446827E+01  0.39603446827E+01  0.00000000000E+00 0. -1.
         36    2    1    2    0    0 -0.71054273576E-14  0.00000000000E+00  0.47348124766E+04  0.47427331660E+04  0.27398666935E+03 0.  0.
         25    2    3    3    0    0  0.47116779778E+02  0.12760459742E+01  0.28036648650E+04  0.28066023913E+04  0.11940974910E+03 0.  0.
         25    2    3    3    0    0 -0.47116779778E+02 -0.12760459742E+01  0.19311476116E+04  0.19361307748E+04  0.13057434561E+03 0.  0.
          5    1    4    4  502    0 -0.12468776572E+02 -0.30932924394E+02  0.27913490776E+03  0.28115956845E+03  0.47000000000E+01 0. -1.
         -5    1    4    4    0  502  0.59585556350E+02  0.32208970369E+02  0.25245299572E+04  0.25254428228E+04  0.47000000000E+01 0. -1.
          5    1    5    5  503    0 -0.95035271785E+01  0.22394673411E+02  0.66793735518E+02  0.71241361094E+02  0.47000000000E+01 0.  1.
         -5    1    5    5    0  503 -0.37613252600E+02 -0.23670719385E+02  0.18643538761E+04  0.18648894137E+04  0.47000000000E+01 0.  1.
<mgrwt>
<rscale>  0 0.27398667E+03</rscale>
<asrwt>0</asrwt>
<pdfrwt beam="1">  1        2 0.72903744E+00 0.27398667E+03</pdfrwt>
<pdfrwt beam="2">  1       -2 0.60928759E-03 0.27398667E+03</pdfrwt>
<totfact> 0.43269722E+02</totfact>
</mgrwt>
</event>
<event>
 9    1  0.2073852E-002  0.2758755E+03  0.7818608E-02  0.1097963E+00
          1   -1    0    0  501    0  0.00000000000E+00  0.00000000000E+00  0.13033600141E+03  0.13033600141E+03  0.00000000000E+00 0.  1.
         -1   -1    0    0    0  501 -0.00000000000E+00 -0.00000000000E+00 -0.14598289416E+03  0.14598289416E+03  0.00000000000E+00 0.  1.
         36    2    1    2    0    0  0.71054273576E-14  0.71054273576E-14 -0.15646892741E+02  0.27631889557E+03  0.27587552772E+03 0.  0.
         25    2    3    3    0    0  0.41192521694E+02 -0.19445900319E+02  0.22793187082E+02  0.13845398103E+03  0.12874396531E+03 0.  0.
         25    2    3    3    0    0 -0.41192521694E+02  0.19445900319E+02 -0.38440079823E+02  0.13786491454E+03  0.12431463325E+03 0.  0.
          5    1    4    4  502    0 -0.41315857728E+02  0.17517459038E+02  0.15163171126E+02  0.47601189371E+02  0.47000000000E+01 0. -1.
         -5    1    4    4    0  502  0.82508379421E+02 -0.36963359357E+02  0.76300159566E+01  0.90852791664E+02  0.47000000000E+01 0. -1.
          5    1    5    5  503    0 -0.17206222933E+02 -0.52080340018E+02 -0.52110164974E+01  0.55296117558E+02  0.47000000000E+01 0. -1.
         -5    1    5    5    0  503 -0.23986298760E+02  0.71526240337E+02 -0.33229063326E+02  0.82568796978E+02  0.47000000000E+01 0. -1.
<mgrwt>
<rscale>  0 0.27587553E+03</rscale>
<asrwt>0</asrwt>
<pdfrwt beam="1">  1        1 0.20051693E-01 0.27587553E+03</pdfrwt>
<pdfrwt beam="2">  1       -1 0.22458907E-01 0.27587553E+03</pdfrwt>
<totfact> 0.42127330E+03</totfact>
</mgrwt>
</event>
<event>
 9    1  0.2073852E-002  0.2747552E+03  0.7818608E-02  0.1098589E+00
          2   -1    0    0  501    0  0.00000000000E+00  0.00000000000E+00  0.62291073931E+03  0.62291073931E+03  0.00000000000E+00 0.  1.
         -2   -1    0    0    0  501 -0.00000000000E+00 -0.00000000000E+00 -0.30297441768E+02  0.30297441768E+02  0.00000000000E+00 0.  1.
         36    2    1    2    0    0  0.00000000000E+00  0.14210854715E-13  0.59261329754E+03  0.65320818108E+03  0.27475517721E+03 0.  0.
         25    2    3    3    0    0  0.32546531530E+02 -0.33827868883E+02  0.21507653889E+03  0.25278053570E+03  0.12424363252E+03 0.  0.
         25    2    3    3    0    0 -0.32546531530E+02  0.33827868883E+02  0.37753675865E+03  0.40042764537E+03  0.12491874807E+03 0.  0.
          5    1    4    4  502    0  0.46461683228E+02  0.16107948488E+02  0.24340908844E+02  0.55070172110E+02  0.47000000000E+01 0.  1.
         -5    1    4    4    0  502 -0.13915151698E+02 -0.49935817370E+02  0.19073563005E+03  0.19771036359E+03  0.47000000000E+01 0.  1.
          5    1    5    5  503    0 -0.41007029239E+02 -0.15555763312E+02  0.32386147260E+03  0.32685149786E+03  0.47000000000E+01 0.  1.
         -5    1    5    5    0  503  0.84604977089E+01  0.49383632194E+02  0.53675286049E+02  0.73576147512E+02  0.47000000000E+01 0.  1.
<mgrwt>
<rscale>  0 0.27475518E+03</rscale>
<asrwt>0</asrwt>
<pdfrwt beam="1">  1        2 0.95832412E-01 0.27475518E+03</pdfrwt>
<pdfrwt beam="2">  1       -2 0.46611454E-02 0.27475518E+03</pdfrwt>
<totfact> 0.10471237E+04</totfact>
</mgrwt>
</event>
<event>
 9    1  0.2073852E-002  0.2753210E+03  0.7818608E-02  0.1098272E+00
         -2   -1    0    0    0  501 -0.00000000000E+00  0.00000000000E+00  0.17748475013E+03  0.17748475013E+03  0.00000000000E+00 0. -1.
          2   -1    0    0  501    0  0.00000000000E+00 -0.00000000000E+00 -0.10677207835E+03  0.10677207835E+03  0.00000000000E+00 0. -1.
         36    2    1    2    0    0  0.00000000000E+00  0.00000000000E+00  0.70712671784E+02  0.28425682848E+03  0.27532101733E+03 0.  0.
         25    2    3    3    0    0 -0.80634794089E+01 -0.21237162663E+02 -0.20525888480E+02  0.12888181220E+03  0.12519254227E+03 0.  0.
         25    2    3    3    0    0  0.80634794089E+01  0.21237162663E+02  0.91238560265E+02  0.15537501627E+03  0.12369674218E+03 0.  0.
          5    1    4    4  502    0 -0.14565243436E+02  0.40541281663E+02  0.26529923367E+02  0.50810123687E+02  0.47000000000E+01 0.  1.
         -5    1    4    4    0  502  0.65017640273E+01 -0.61778444327E+02 -0.47055811847E+02  0.78071688514E+02  0.47000000000E+01 0.  1.
          5    1    5    5  503    0 -0.14172937043E+02  0.70200699413E+02  0.53173797600E+02  0.89322746788E+02  0.47000000000E+01 0. -1.
         -5    1    5    5    0  503  0.22236416452E+02 -0.48963536749E+02  0.38064762664E+02  0.66052269486E+02  0.47000000000E+01 0. -1.
<mgrwt>
<rscale>  0 0.27532102E+03</rscale>
<asrwt>0</asrwt>
<pdfrwt beam="1">  1        2 0.16426474E-01 0.27532102E+03</pdfrwt>
<pdfrwt beam="2">  1       -2 0.27305346E-01 0.27532102E+03</pdfrwt>
<totfact> 0.42193793E+03</totfact>
</mgrwt>
</event>
<event>
 9    1  0.2073852E-002  0.2757296E+03  0.7818608E-02  0.1098044E+00
          1   -1    0    0  501    0  0.00000000000E+00  0.00000000000E+00  0.58312568237E+03  0.58312568237E+03  0.00000000000E+00 0. -1.
         -1   -1    0    0    0  501 -0.00000000000E+00 -0.00000000000E+00 -0.32594529570E+02  0.32594529570E+02  0.00000000000E+00 0. -1.
         36    2    1    2    0    0  0.35527136788E-14  0.71054273576E-14  0.55053115280E+03  0.61572021194E+03  0.27572963059E+03 0.  0.
         25    2    3    3    0    0 -0.28119397063E+02  0.40785042055E+02  0.22927489304E+03  0.26700336037E+03  0.12755272528E+03 0.  0.
         25    2    3    3    0    0  0.28119397063E+02 -0.40785042055E+02  0.32125625976E+03  0.34871685157E+03  0.12626851541E+03 0.  0.
          5    1    4    4  502    0  0.18291052226E+02  0.27699990759E+02  0.21340465454E+03  0.21602196337E+03  0.47000000000E+01 0.  1.
         -5    1    4    4    0  502 -0.46410449289E+02  0.13085051297E+02  0.15870238504E+02  0.50981397007E+02  0.47000000000E+01 0.  1.
          5    1    5    5  503    0  0.23623530264E+02  0.43554800007E+02  0.14285319840E+03  0.15127530558E+03  0.47000000000E+01 0. -1.
         -5    1    5    5    0  503  0.44958667989E+01 -0.84339842062E+02  0.17840306136E+03  0.19744154598E+03  0.47000000000E+01 0. -1.
<mgrwt>
<rscale>  0 0.27572963E+03</rscale>
<asrwt>0</asrwt>
<pdfrwt beam="1">  1        1 0.89711636E-01 0.27572963E+03</pdfrwt>
<pdfrwt beam="2">  1       -1 0.50145434E-02 0.27572963E+03</pdfrwt>
<totfact> 0.63895356E+03</totfact>
</mgrwt>
</event>
<event>
 9    1  0.2073852E-002  0.2753139E+03  0.7818608E-02  0.1098276E+00
         -2   -1    0    0    0  501 -0.00000000000E+00  0.00000000000E+00  0.48990186866E+02  0.48990186866E+02  0.00000000000E+00 0.  1.
          2   -1    0    0  501    0  0.00000000000E+00 -0.00000000000E+00 -0.38680070815E+03  0.38680070815E+03  0.00000000000E+00 0.  1.
         36    2    1    2    0    0  0.00000000000E+00  0.35527136788E-14 -0.33781052128E+03  0.43579089502E+03  0.27531392244E+03 0.  0.
         25    2    3    3    0    0  0.41826741033E+02 -0.24589778584E+02 -0.14454915013E+03  0.19604285446E+03  0.12322422856E+03 0.  0.
         25    2    3    3    0    0 -0.41826741033E+02  0.24589778584E+02 -0.19326137115E+03  0.23974804055E+03  0.13332303587E+03 0.  0.
          5    1    4    4  502    0  0.25337215834E+02 -0.43542801314E+02 -0.13855551931E+01  0.50615805987E+02  0.47000000000E+01 0.  1.
         -5    1    4    4    0  502  0.16489525199E+02  0.18953022730E+02 -0.14316359494E+03  0.14542704848E+03  0.47000000000E+01 0.  1.
          5    1    5    5  503    0  0.41499338872E+02  0.67397197798E+01 -0.20401966501E+02  0.46967533325E+02  0.47000000000E+01 0. -1.
         -5    1    5    5    0  503 -0.83326079905E+02  0.17850058804E+02 -0.17285940465E+03  0.19278050723E+03  0.47000000000E+01 0. -1.
<mgrwt>
<rscale>  0 0.27531392E+03</rscale>
<asrwt>0</asrwt>
<pdfrwt beam="1">  1        2 0.59507802E-01 0.27531392E+03</pdfrwt>
<pdfrwt beam="2">  1       -2 0.75369517E-02 0.27531392E+03</pdfrwt>
<totfact> 0.85422931E+03</totfact>
</mgrwt>
</event>
<event>
 9    1  0.2073852E-002  0.2744463E+03  0.7818608E-02  0.1098761E+00
          2   -1    0    0  501    0  0.00000000000E+00  0.00000000000E+00  0.43179420715E+03  0.43179420715E+03  0.00000000000E+00 0. -1.
         -2   -1    0    0    0  501 -0.00000000000E+00 -0.00000000000E+00 -0.43609196149E+02  0.43609196149E+02  0.00000000000E+00 0. -1.
         36    2    1    2    0    0 -0.17763568394E-14 -0.71054273576E-14  0.38818501100E+03  0.47540340330E+03  0.27444633920E+03 0.  0.
         25    2    3    3    0    0 -0.13921806186E+02 -0.50971260015E+02  0.13548355422E+03  0.18696161944E+03  0.11750305376E+03 0.  0.
         25    2    3    3    0    0  0.13921806186E+02  0.50971260015E+02  0.25270145677E+03  0.28844178386E+03  0.12864194645E+03 0.  0.
          5    1    4    4  502    0  0.21879946794E+02 -0.31547025755E+02  0.14043291147E+03  0.14566207307E+03  0.47000000000E+01 0. -1.
         -5    1    4    4    0  502 -0.35801752979E+02 -0.19424234260E+02 -0.49493572507E+01  0.41299546368E+02  0.47000000000E+01 0. -1.
          5    1    5    5  503    0  0.14420364685E+02  0.16673697039E+02 -0.91390796797E+01  0.24322250471E+02  0.47000000000E+01 0. -1.
         -5    1    5    5    0  503 -0.49855849965E+00  0.34297562977E+02  0.26184053645E+03  0.26411953339E+03  0.47000000000E+01 0. -1.
<mgrwt>
<rscale>  0 0.27444634E+03</rscale>
<asrwt>0</asrwt>
<pdfrwt beam="1">  1        2 0.66429875E-01 0.27444634E+03</pdfrwt>
<pdfrwt beam="2">  1       -2 0.67091074E-02 0.27444634E+03</pdfrwt>
<totfact> 0.90739021E+03</totfact>
</mgrwt>
</event>
<event>
 9    1  0.2073852E-002  0.2742391E+03  0.7818608E-02  0.1098878E+00
         -1   -1    0    0    0  501 -0.00000000000E+00  0.00000000000E+00  0.19577530382E+03  0.19577530382E+03  0.00000000000E+00 0.  1.
          1   -1    0    0  501    0  0.00000000000E+00 -0.00000000000E+00 -0.96037530134E+02  0.96037530134E+02  0.00000000000E+00 0.  1.
         36    2    1    2    0    0  0.35527136788E-14 -0.71054273576E-14  0.99737773685E+02  0.29181283395E+03  0.27423914119E+03 0.  0.
         25    2    3    3    0    0  0.20596000016E+02 -0.61003132066E+02  0.34679639956E+02  0.13801052740E+03  0.11704123593E+03 0.  0.
         25    2    3    3    0    0 -0.20596000016E+02  0.61003132066E+02  0.65058133729E+02  0.15380230655E+03  0.12360020792E+03 0.  0.
          5    1    4    4  502    0  0.23463792193E+02  0.29517387313E+02  0.27760551391E+02  0.47059153322E+02  0.47000000000E+01 0.  1.
         -5    1    4    4    0  502 -0.28677921780E+01 -0.90520519379E+02  0.69190885654E+01  0.90951374081E+02  0.47000000000E+01 0.  1.
          5    1    5    5  503    0 -0.18435429728E+01  0.86285449848E+01 -0.36535999127E+02  0.37879013602E+02  0.47000000000E+01 0. -1.
         -5    1    5    5    0  503 -0.18752457043E+02  0.52374587081E+02  0.10159413286E+03  0.11592329295E+03  0.47000000000E+01 0. -1.
<mgrwt>
<rscale>  0 0.27423914E+03</rscale>
<asrwt>0</asrwt>
<pdfrwt beam="1">  1        1 0.14775005E-01 0.27423914E+03</pdfrwt>
<pdfrwt beam="2">  1       -1 0.30119278E-01 0.27423914E+03</pdfrwt>
<totfact> 0.38365654E+03</totfact>
</mgrwt>
</event>
<event>
 9    1  0.2073852E-002  0.2754790E+03  0.7818608E-02  0.1098184E+00
          2   -1    0    0  501    0  0.00000000000E+00  0.00000000000E+00  0.23758260366E+04  0.23758260366E+04  0.00000000000E+00 0. -1.
         -2   -1    0    0    0  501 -0.00000000000E+00 -0.00000000000E+00 -0.79855039460E+01  0.79855039460E+01  0.00000000000E+00 0. -1.
         36    2    1    2    0    0 -0.35527136788E-14  0.00000000000E+00  0.23678405327E+04  0.23838115406E+04  0.27547898788E+03 0.  0.
         25    2    3    3    0    0 -0.80669625511E+01 -0.51183358773E+02  0.14037999395E+04  0.14103383084E+04  0.12535972979E+03 0.  0.
         25    2    3    3    0    0  0.80669625511E+01  0.51183358773E+02  0.96404059321E+03  0.97347323222E+03  0.12486415174E+03 0.  0.
          5    1    4    4  502    0  0.94289308892E+01 -0.87020900913E+02  0.71227962366E+03  0.71765304585E+03  0.47000000000E+01 0. -1.
         -5    1    4    4    0  502 -0.17495893440E+02  0.35837542140E+02  0.69152031584E+03  0.69268526253E+03  0.47000000000E+01 0. -1.
          5    1    5    5  503    0 -0.44066039600E+02 -0.16662125732E+02  0.43042934902E+03  0.43302535350E+03  0.47000000000E+01 0. -1.
         -5    1    5    5    0  503  0.52133002151E+02  0.67845484505E+02  0.53361124419E+03  0.54044787871E+03  0.47000000000E+01 0. -1.
<mgrwt>
<rscale>  0 0.27547899E+03</rscale>
<asrwt>0</asrwt>
<pdfrwt beam="1">  1        2 0.36551113E+00 0.27547899E+03</pdfrwt>
<pdfrwt beam="2">  1       -2 0.12285410E-02 0.27547899E+03</pdfrwt>
<totfact> 0.74031534E+03</totfact>
</mgrwt>
</event>
<event>
 9    1  0.2073852E-002  0.2740234E+03  0.7818608E-02  0.1098999E+00
         -2   -1    0    0    0  501 -0.00000000000E+00  0.00000000000E+00  0.57196686313E+02  0.57196686313E+02  0.00000000000E+00 0.  1.
          2   -1    0    0  501    0  0.00000000000E+00 -0.00000000000E+00 -0.32820433006E+03  0.32820433006E+03  0.00000000000E+00 0.  1.
         36    2    1    2    0    0  0.00000000000E+00  0.00000000000E+00 -0.27100764375E+03  0.38540101638E+03  0.27402335749E+03 0.  0.
         25    2    3    3    0    0 -0.33567135557E+02  0.37529118776E+02 -0.13934127485E+03  0.19467931179E+03  0.12628878104E+03 0.  0.
         25    2    3    3    0    0  0.33567135557E+02 -0.37529118776E+02 -0.13166636890E+03  0.19072170459E+03  0.12846613778E+03 0.  0.
          5    1    4    4  502    0  0.40692740845E+02  0.33535351802E+02 -0.25855144000E+02  0.58916020310E+02  0.47000000000E+01 0.  1.
         -5    1    4    4    0  502 -0.74259876402E+02  0.39937669738E+01 -0.11348613085E+03  0.13576329148E+03  0.47000000000E+01 0.  1.
          5    1    5    5  503    0  0.23531388137E+02 -0.15711286987E+01 -0.14782769061E+03  0.14977086093E+03  0.47000000000E+01 0.  1.
         -5    1    5    5    0  503  0.10035747420E+02 -0.35957990077E+02  0.16161321710E+02  0.40950843655E+02  0.47000000000E+01 0.  1.
<mgrwt>
<rscale>  0 0.27402336E+03</rscale>
<asrwt>0</asrwt>
<pdfrwt beam="1">  1        2 0.50492973E-01 0.27402336E+03</pdfrwt>
<pdfrwt beam="2">  1       -2 0.87994903E-02 0.27402336E+03</pdfrwt>
<totfact> 0.80046671E+03</totfact>
</mgrwt>
</event>
<event>
 9    1  0.2073852E-002  0.2752503E+03  0.7818608E-02  0.1098312E+00
         -2   -1    0    0    0  501 -0.00000000000E+00  0.00000000000E+00  0.60839756619E+02  0.60839756619E+02  0.00000000000E+00 0. -1.
          2   -1    0    0  501    0  0.00000000000E+00 -0.00000000000E+00 -0.31132089489E+03  0.31132089489E+03  0.00000000000E+00 0. -1.
         36    2    1    2    0    0 -0.71054273576E-14  0.14210854715E-13 -0.25048113827E+03  0.37216065151E+03  0.27525034042E+03 0.  0.
         25    2    3    3    0    0  0.48364382172E+02  0.15752268920E+02 -0.11032920534E+03  0.17589692453E+03  0.12720042087E+03 0.  0.
         25    2    3    3    0    0 -0.48364382172E+02 -0.15752268920E+02 -0.14015193293E+03  0.19626372698E+03  0.12763086925E+03 0.  0.
          5    1    4    4  502    0  0.35372972600E+02 -0.50964820502E+02 -0.79932196666E+02  0.10129119499E+03  0.47000000000E+01 0. -1.
         -5    1    4    4    0  502  0.12991409572E+02  0.66717089422E+02 -0.30397008678E+02  0.74605729540E+02  0.47000000000E+01 0. -1.
          5    1    5    5  503    0 -0.33229182095E+02  0.54068396665E+02 -0.48778690817E+02  0.80181174464E+02  0.47000000000E+01 0.  1.
         -5    1    5    5    0  503 -0.15135200077E+02 -0.69820665585E+02 -0.91373242110E+02  0.11608255251E+03  0.47000000000E+01 0.  1.
<mgrwt>
<rscale>  0 0.27525034E+03</rscale>
<asrwt>0</asrwt>
<pdfrwt beam="1">  1        2 0.47895524E-01 0.27525034E+03</pdfrwt>
<pdfrwt beam="2">  1       -2 0.93599622E-02 0.27525034E+03</pdfrwt>
<totfact> 0.76879155E+03</totfact>
</mgrwt>
</event>
<event>
 9    1  0.2073852E-002  0.2748672E+03  0.7818608E-02  0.1098526E+00
         -1   -1    0    0    0  501 -0.00000000000E+00  0.00000000000E+00  0.23320926939E+04  0.23320926939E+04  0.00000000000E+00 0.  1.
          1   -1    0    0  501    0  0.00000000000E+00 -0.00000000000E+00 -0.80991605797E+01  0.80991605797E+01  0.00000000000E+00 0.  1.
         36    2    1    2    0    0  0.00000000000E+00  0.00000000000E+00  0.23239935333E+04  0.23401918545E+04  0.27486719131E+03 0.  0.
         25    2    3    3    0    0  0.27602537954E+02  0.44442092133E+02  0.88017812206E+03  0.89056315514E+03  0.12510878098E+03 0.  0.
         25    2    3    3    0    0 -0.27602537954E+02 -0.44442092133E+02  0.14438154113E+04  0.14496286994E+04  0.11867360495E+03 0.  0.
          5    1    4    4  502    0  0.52764249694E+02 -0.64508725524E+01  0.17177960191E+03  0.17987774024E+03  0.47000000000E+01 0.  1.
         -5    1    4    4    0  502 -0.25161711740E+02  0.50892964686E+02  0.70839852015E+03  0.71068541490E+03  0.47000000000E+01 0.  1.
          5    1    5    5  503    0 -0.11187904538E+02 -0.24863777063E+02  0.13856459008E+04  0.13859220862E+04  0.47000000000E+01 0. -1.
         -5    1    5    5    0  503 -0.16414633416E+02 -0.19578315071E+02  0.58169510498E+02  0.63706613179E+02  0.47000000000E+01 0. -1.
<mgrwt>
<rscale>  0 0.27486719E+03</rscale>
<asrwt>0</asrwt>
<pdfrwt beam="1">  1        1 0.12460266E-02 0.27486719E+03</pdfrwt>
<pdfrwt beam="2">  1       -1 0.35878296E+00 0.27486719E+03</pdfrwt>
<totfact> 0.19405002E+02</totfact>
</mgrwt>
</event>
<event>
 9    1  0.2073852E-002  0.2748528E+03  0.7818608E-02  0.1098534E+00
         -1   -1    0    0    0  501 -0.00000000000E+00  0.00000000000E+00  0.34471692889E+02  0.34471692889E+02  0.00000000000E+00 0.  1.
          1   -1    0    0  501    0  0.00000000000E+00 -0.00000000000E+00 -0.54787040480E+03  0.54787040480E+03  0.00000000000E+00 0.  1.
         36    2    1    2    0    0  0.00000000000E+00 -0.26645352591E-14 -0.51339871191E+03  0.58234209769E+03  0.27485283580E+03 0.  0.
         25    2    3    3    0    0  0.57316951908E+02  0.42310409813E+01 -0.29404335618E+03  0.32414051660E+03  0.12370304971E+03 0.  0.
         25    2    3    3    0    0 -0.57316951908E+02 -0.42310409813E+01 -0.21935535573E+03  0.25820158109E+03  0.12348339849E+03 0.  0.
          5    1    4    4  502    0 -0.41571344410E+01 -0.51510148412E+02 -0.91199875442E+02  0.10492894947E+03  0.47000000000E+01 0. -1.
         -5    1    4    4    0  502  0.61474086349E+02  0.55741189394E+02 -0.20284348074E+03  0.21921156713E+03  0.47000000000E+01 0. -1.
          5    1    5    5  503    0 -0.42756391883E+02 -0.26022927553E+01 -0.50987431795E+01  0.43393180990E+02  0.47000000000E+01 0. -1.
         -5    1    5    5    0  503 -0.14560560025E+02 -0.16287482261E+01 -0.21425661256E+03  0.21480840010E+03  0.47000000000E+01 0. -1.
<mgrwt>
<rscale>  0 0.27485284E+03</rscale>
<asrwt>0</asrwt>
<pdfrwt beam="1">  1        1 0.84287749E-01 0.27485284E+03</pdfrwt>
<pdfrwt beam="2">  1       -1 0.53033377E-02 0.27485284E+03</pdfrwt>
<totfact> 0.63970282E+03</totfact>
</mgrwt>
</event>
<event>
 9    1  0.2073852E-002  0.2753971E+03  0.7818608E-02  0.1098230E+00
         -2   -1    0    0    0  501 -0.00000000000E+00  0.00000000000E+00  0.66456276981E+02  0.66456276981E+02  0.00000000000E+00 0. -1.
          2   -1    0    0  501    0  0.00000000000E+00 -0.00000000000E+00 -0.28531375137E+03  0.28531375137E+03  0.00000000000E+00 0. -1.
         36    2    1    2    0    0  0.71054273576E-14  0.14210854715E-13 -0.21885747439E+03  0.35177002835E+03  0.27539709285E+03 0.  0.
         25    2    3    3    0    0  0.26475165280E+02  0.33906389710E+02 -0.15636696671E+03  0.20475988699E+03  0.12500162160E+03 0.  0.
         25    2    3    3    0    0 -0.26475165280E+02 -0.33906389710E+02 -0.62490507675E+02  0.14701014136E+03  0.12592196183E+03 0.  0.
          5    1    4    4  502    0 -0.37446596207E+02 -0.20284892839E+02 -0.27308842797E+02  0.50809323356E+02  0.47000000000E+01 0.  1.
         -5    1    4    4    0  502  0.63921761487E+02  0.54191282549E+02 -0.12905812391E+03  0.15395056364E+03  0.47000000000E+01 0.  1.
          5    1    5    5  503    0  0.31359822014E+02 -0.48720810350E+02 -0.64832376033E+02  0.87077452765E+02  0.47000000000E+01 0. -1.
         -5    1    5    5    0  503 -0.57834987294E+02  0.14814420641E+02  0.23418683583E+01  0.59932688590E+02  0.47000000000E+01 0. -1.
<mgrwt>
<rscale>  0 0.27539709E+03</rscale>
<asrwt>0</asrwt>
<pdfrwt beam="1">  1        2 0.43894424E-01 0.27539709E+03</pdfrwt>
<pdfrwt beam="2">  1       -2 0.10224043E-01 0.27539709E+03</pdfrwt>
<totfact> 0.73403503E+03</totfact>
</mgrwt>
</event>
<event>
 9    1  0.2073852E-002  0.2744650E+03  0.7818608E-02  0.1098751E+00
         -2   -1    0    0    0  501 -0.00000000000E+00  0.00000000000E+00  0.18325046758E+02  0.18325046758E+02  0.00000000000E+00 0. -1.
          2   -1    0    0  501    0  0.00000000000E+00 -0.00000000000E+00 -0.10277056340E+04  0.10277056340E+04  0.00000000000E+00 0. -1.
         36    2    1    2    0    0  0.35527136788E-14  0.00000000000E+00 -0.10093805873E+04  0.10460306808E+04  0.27446496167E+03 0.  0.
         25    2    3    3    0    0 -0.27593357734E+02 -0.51001991848E+02 -0.56634825435E+03  0.58247245650E+03  0.12313090926E+03 0.  0.
         25    2    3    3    0    0  0.27593357734E+02  0.51001991848E+02 -0.44303233293E+03  0.46355822429E+03  0.12347462381E+03 0.  0.
          5    1    4    4  502    0 -0.18176706629E+02 -0.61654276340E+02 -0.56356904001E+03  0.56724227215E+03  0.47000000000E+01 0.  1.
         -5    1    4    4    0  502 -0.94166511048E+01  0.10652284492E+02 -0.27792143342E+01  0.15230184347E+02  0.47000000000E+01 0.  1.
          5    1    5    5  503    0  0.17408145727E+02 -0.35528529355E+02 -0.70845792035E+02  0.81280601529E+02  0.47000000000E+01 0. -1.
         -5    1    5    5    0  503  0.10185212007E+02  0.86530521203E+02 -0.37218654089E+03  0.38227762276E+03  0.47000000000E+01 0. -1.
<mgrwt>
<rscale>  0 0.27446496E+03</rscale>
<asrwt>0</asrwt>
<pdfrwt beam="1">  1        2 0.15810855E+00 0.27446496E+03</pdfrwt>
<pdfrwt beam="2">  1       -2 0.28192382E-02 0.27446496E+03</pdfrwt>
<totfact> 0.11705483E+04</totfact>
</mgrwt>
</event>
<event>
 9    1  0.2073852E-002  0.2755087E+03  0.7818608E-02  0.1098168E+00
         -1   -1    0    0    0  501 -0.00000000000E+00  0.00000000000E+00  0.12972562330E+03  0.12972562330E+03  0.00000000000E+00 0. -1.
          1   -1    0    0  501    0  0.00000000000E+00 -0.00000000000E+00 -0.14627999266E+03  0.14627999266E+03  0.00000000000E+00 0. -1.
         36    2    1    2    0    0  0.35527136788E-14  0.14210854715E-13 -0.16554369355E+02  0.27600561596E+03  0.27550871656E+03 0.  0.
         25    2    3    3    0    0  0.26934511850E+02  0.54759996277E+02 -0.20221624879E+02  0.14111345186E+03  0.12561833887E+03 0.  0.
         25    2    3    3    0    0 -0.26934511850E+02 -0.54759996277E+02  0.36672555247E+01  0.13489216411E+03  0.12024276300E+03 0.  0.
          5    1    4    4  502    0  0.23441270725E+00 -0.11913177819E+02  0.43276734162E+02  0.45132521255E+02  0.47000000000E+01 0.  1.
         -5    1    4    4    0  502  0.26700099143E+02  0.66673174096E+02 -0.63498359041E+02  0.95980930602E+02  0.47000000000E+01 0.  1.
          5    1    5    5  503    0  0.97591374697E+01 -0.73595525432E+02  0.35648432020E+02  0.82489046748E+02  0.47000000000E+01 0. -1.
         -5    1    5    5    0  503 -0.36693649320E+02  0.18835529156E+02 -0.31981176496E+02  0.52403117360E+02  0.47000000000E+01 0. -1.
<mgrwt>
<rscale>  0 0.27550872E+03</rscale>
<asrwt>0</asrwt>
<pdfrwt beam="1">  1        1 0.22504614E-01 0.27550872E+03</pdfrwt>
<pdfrwt beam="2">  1       -1 0.19957788E-01 0.27550872E+03</pdfrwt>
<totfact> 0.44056799E+03</totfact>
</mgrwt>
</event>
<event>
 9    1  0.2073852E-002  0.2754964E+03  0.7818608E-02  0.1098174E+00
         -3   -1    0    0    0  501 -0.00000000000E+00  0.00000000000E+00  0.43678431000E+03  0.43678431000E+03  0.00000000000E+00 0.  1.
          3   -1    0    0  501    0  0.00000000000E+00 -0.00000000000E+00 -0.43441497419E+02  0.43441497419E+02  0.00000000000E+00 0.  1.
         36    2    1    2    0    0  0.00000000000E+00  0.71054273576E-14  0.39334281258E+03  0.48022580741E+03  0.27549638455E+03 0.  0.
         25    2    3    3    0    0  0.56942788491E+02 -0.32877913074E+02  0.22619989420E+03  0.26680467510E+03  0.12527930472E+03 0.  0.
         25    2    3    3    0    0 -0.56942788491E+02  0.32877913074E+02  0.16714291838E+03  0.21342113231E+03  0.11527526285E+03 0.  0.
          5    1    4    4  502    0  0.84327973328E+02 -0.21087208339E+02  0.82380542023E+02  0.11985208027E+03  0.47000000000E+01 0. -1.
         -5    1    4    4    0  502 -0.27385184837E+02 -0.11790704735E+02  0.14381935218E+03  0.14695259483E+03  0.47000000000E+01 0. -1.
          5    1    5    5  503    0 -0.37595711864E+02 -0.11516919577E+02  0.27131588101E+00  0.39601017657E+02  0.47000000000E+01 0.  1.
         -5    1    5    5    0  503 -0.19347076627E+02  0.44394832651E+02  0.16687160250E+03  0.17382011466E+03  0.47000000000E+01 0.  1.
<mgrwt>
<rscale>  0 0.27549638E+03</rscale>
<asrwt>0</asrwt>
<pdfrwt beam="1">  1        3 0.66833076E-02 0.27549638E+03</pdfrwt>
<pdfrwt beam="2">  1       -3 0.67197583E-01 0.27549638E+03</pdfrwt>
<totfact> 0.78878130E+02</totfact>
</mgrwt>
</event>
<event>
 8    1  0.2073852E-002  0.4152143E+03  0.7818608E-02  0.1038635E+00
         -1   -1    0    0    0  501 -0.00000000000E+00  0.00000000000E+00  0.15513005080E+04  0.15513005080E+04  0.00000000000E+00 0. -1.
          1   -1    0    0  501    0  0.00000000000E+00 -0.00000000000E+00 -0.27783609114E+02  0.27783609114E+02  0.00000000000E+00 0. -1.
         25    2    1    2    0    0 -0.36344936816E+02  0.58055169657E+02  0.19139761818E+03  0.23966462914E+03  0.12694380276E+03 0.  0.
         25    2    1    2    0    0  0.36344936816E+02 -0.58055169657E+02  0.13321192807E+04  0.13394194880E+04  0.12170221686E+03 0.  0.
          5    1    3    3  502    0  0.23254945775E+02  0.22118998827E+02  0.15985058845E+03  0.16310837882E+03  0.47000000000E+01 0.  1.
         -5    1    3    3    0  502 -0.59599882591E+02  0.35936170830E+02  0.31547029733E+02  0.76556250325E+02  0.47000000000E+01 0.  1.
          5    1    4    4  503    0  0.25236057047E+02 -0.74545514526E+02  0.43623912081E+03  0.44330638709E+03  0.47000000000E+01 0.  1.
         -5    1    4    4    0  503  0.11108879769E+02  0.16490344869E+02  0.89588015991E+03  0.89611310090E+03  0.47000000000E+01 0.  1.
<mgrwt>
<rscale>  0 0.41521429E+03</rscale>
<asrwt>0</asrwt>
<pdfrwt beam="1">  1        1 0.42744026E-02 0.41521429E+03</pdfrwt>
<pdfrwt beam="2">  1       -1 0.23866155E+00 0.41521429E+03</pdfrwt>
<totfact> 0.19217950E+02</totfact>
</mgrwt>
</event>
<event>
 8    1  0.2073852E-002  0.3160557E+03  0.7818608E-02  0.1077479E+00
         -1   -1    0    0    0  501 -0.00000000000E+00  0.00000000000E+00  0.28249174651E+02  0.28249174651E+02  0.00000000000E+00 0.  1.
          1   -1    0    0  501    0  0.00000000000E+00 -0.00000000000E+00 -0.88401884161E+03  0.88401884161E+03  0.00000000000E+00 0.  1.
         25    2    1    2    0    0 -0.76576275405E+02  0.29002415813E+02 -0.27806502158E+03  0.31584335611E+03  0.12542648563E+03 0.  0.
         25    2    1    2    0    0  0.76576275405E+02 -0.29002415813E+02 -0.57770464539E+03  0.59642466015E+03  0.12359066251E+03 0.  0.
          5    1    3    3  502    0 -0.59367749353E+02  0.59715289743E+02 -0.26483935476E+03  0.27794319442E+03  0.47000000000E+01 0. -1.
         -5    1    3    3    0  502 -0.17208526052E+02 -0.30712873929E+02 -0.13225666816E+02  0.37900161696E+02  0.47000000000E+01 0. -1.
          5    1    4    4  503    0  0.91439445573E+02 -0.55772444088E+02 -0.51993802332E+03  0.53087604563E+03  0.47000000000E+01 0.  1.
         -5    1    4    4    0  503 -0.14863170168E+02  0.26770028274E+02 -0.57766622067E+02  0.65548614526E+02  0.47000000000E+01 0.  1.
<mgrwt>
<rscale>  0 0.31605571E+03</rscale>
<asrwt>0</asrwt>
<pdfrwt beam="1">  1        1 0.13600292E+00 0.31605571E+03</pdfrwt>
<pdfrwt beam="2">  1       -1 0.43460263E-02 0.31605571E+03</pdfrwt>
<totfact> 0.42802896E+03</totfact>
</mgrwt>
</event>
<event>
 9    1  0.2073852E-002  0.2760215E+03  0.7818608E-02  0.1097882E+00
          1   -1    0    0  501    0  0.00000000000E+00  0.00000000000E+00  0.11290187132E+04  0.11290187132E+04  0.00000000000E+00 0. -1.
         -1   -1    0    0    0  501 -0.00000000000E+00 -0.00000000000E+00 -0.16870368603E+02  0.16870368603E+02  0.00000000000E+00 0. -1.
         36    2    1    2    0    0  0.71054273576E-14 -0.35527136788E-14  0.11121483446E+04  0.11458890818E+04  0.27602146185E+03 0.  0.
         25    2    3    3    0    0  0.33999882713E+02 -0.17031016790E+02  0.37165636783E+03  0.39462605235E+03  0.12710317813E+03 0.  0.
         25    2    3    3    0    0 -0.33999882713E+02  0.17031016790E+02  0.74049197676E+03  0.75126302944E+03  0.12092032171E+03 0.  0.
          5    1    4    4  502    0  0.82271163434E+02 -0.14603044722E+02  0.25000954048E+03  0.26364493846E+03  0.47000000000E+01 0. -1.
         -5    1    4    4    0  502 -0.48271280720E+02 -0.24279720682E+01  0.12164682735E+03  0.13098111389E+03  0.47000000000E+01 0. -1.
          5    1    5    5  503    0 -0.63758195307E+01 -0.46384257562E+02  0.16400367553E+03  0.17062076665E+03  0.47000000000E+01 0.  1.
         -5    1    5    5    0  503 -0.27624063183E+02  0.63415274352E+02  0.57648830123E+03  0.58064226280E+03  0.47000000000E+01 0.  1.
<mgrwt>
<rscale>  0 0.27602146E+03</rscale>
<asrwt>0</asrwt>
<pdfrwt beam="1">  1        1 0.17369513E+00 0.27602146E+03</pdfrwt>
<pdfrwt beam="2">  1       -1 0.25954422E-02 0.27602146E+03</pdfrwt>
<totfact> 0.60073576E+03</totfact>
</mgrwt>
</event>
<event>
 9    1  0.2073852E-002  0.2738699E+03  0.7818608E-02  0.1099085E+00
         -2   -1    0    0    0  501 -0.00000000000E+00  0.00000000000E+00  0.11575116339E+03  0.11575116339E+03  0.00000000000E+00 0.  1.
          2   -1    0    0  501    0  0.00000000000E+00 -0.00000000000E+00 -0.16199563613E+03  0.16199563613E+03  0.00000000000E+00 0.  1.
         36    2    1    2    0    0  0.00000000000E+00  0.14210854715E-13 -0.46244472735E+02  0.27774679952E+03  0.27386992055E+03 0.  0.
         25    2    3    3    0    0  0.10839263414E+02  0.48768496945E+02 -0.43905278336E+02  0.14150793925E+03  0.12490383292E+03 0.  0.
         25    2    3    3    0    0 -0.10839263414E+02 -0.48768496945E+02 -0.23391943983E+01  0.13623886027E+03  0.12672686886E+03 0.  0.
          5    1    4    4  502    0 -0.45404287788E+02  0.61575012070E+02 -0.25258017691E+02  0.80703710686E+02  0.47000000000E+01 0.  1.
         -5    1    4    4    0  502  0.56243551201E+02 -0.12806515124E+02 -0.18647260646E+02  0.60804228562E+02  0.47000000000E+01 0.  1.
          5    1    5    5  503    0 -0.43521568049E+02 -0.67329714406E+02 -0.33670906893E+02  0.87081785113E+02  0.47000000000E+01 0. -1.
         -5    1    5    5    0  503  0.32682304635E+02  0.18561217461E+02  0.31331712495E+02  0.49157075155E+02  0.47000000000E+01 0. -1.
<mgrwt>
<rscale>  0 0.27386992E+03</rscale>
<asrwt>0</asrwt>
<pdfrwt beam="1">  1        2 0.24922405E-01 0.27386992E+03</pdfrwt>
<pdfrwt beam="2">  1       -2 0.17807871E-01 0.27386992E+03</pdfrwt>
<totfact> 0.54948876E+03</totfact>
</mgrwt>
</event>
<event>
 9    1  0.2073852E-002  0.2752124E+03  0.7818608E-02  0.1098333E+00
          1   -1    0    0  501    0  0.00000000000E+00  0.00000000000E+00  0.41673358948E+03  0.41673358948E+03  0.00000000000E+00 0.  1.
         -1   -1    0    0    0  501 -0.00000000000E+00 -0.00000000000E+00 -0.45437818566E+02  0.45437818566E+02  0.00000000000E+00 0.  1.
         36    2    1    2    0    0  0.00000000000E+00  0.00000000000E+00  0.37129577092E+03  0.46217140805E+03  0.27521239238E+03 0.  0.
         25    2    3    3    0    0 -0.84771165865E+00  0.50536402962E+02  0.17739013368E+03  0.22456316178E+03  0.12808867031E+03 0.  0.
         25    2    3    3    0    0  0.84771165865E+00 -0.50536402962E+02  0.19390563724E+03  0.23760824627E+03  0.12768569186E+03 0.  0.
          5    1    4    4  502    0  0.15409428244E+02 -0.83003175610E+01 -0.14457940624E+02  0.23183351731E+02  0.47000000000E+01 0.  1.
         -5    1    4    4    0  502 -0.16257139903E+02  0.58836720523E+02  0.19184807430E+03  0.20137981004E+03  0.47000000000E+01 0.  1.
          5    1    5    5  503    0  0.12214213476E+02 -0.88693097783E+02  0.16631857071E+03  0.18894340308E+03  0.47000000000E+01 0.  1.
         -5    1    5    5    0  503 -0.11366501818E+02  0.38156694821E+02  0.27587066526E+02  0.48664843190E+02  0.47000000000E+01 0.  1.
<mgrwt>
<rscale>  0 0.27521239E+03</rscale>
<asrwt>0</asrwt>
<pdfrwt beam="1">  1        1 0.64112857E-01 0.27521239E+03</pdfrwt>
<pdfrwt beam="2">  1       -1 0.69904339E-02 0.27521239E+03</pdfrwt>
<totfact> 0.60485765E+03</totfact>
</mgrwt>
</event>
<event>
 9    1  0.2073852E-002  0.2748226E+03  0.7818608E-02  0.1098551E+00
         -1   -1    0    0    0  501 -0.00000000000E+00  0.00000000000E+00  0.83922783937E+02  0.83922783937E+02  0.00000000000E+00 0. -1.
          1   -1    0    0  501    0  0.00000000000E+00 -0.00000000000E+00 -0.22499092312E+03  0.22499092312E+03  0.00000000000E+00 0. -1.
         36    2    1    2    0    0  0.00000000000E+00  0.00000000000E+00 -0.14106813918E+03  0.30891370705E+03  0.27482259462E+03 0.  0.
         25    2    3    3    0    0  0.31084512748E+02 -0.65861442130E+02 -0.45839086685E+02  0.13718026992E+03  0.10683271079E+03 0.  0.
         25    2    3    3    0    0 -0.31084512748E+02  0.65861442130E+02 -0.95229052494E+02  0.17173343713E+03  0.12296269555E+03 0.  0.
          5    1    4    4  502    0 -0.37721238998E+02 -0.24397570376E+02 -0.32417250616E+02  0.55597674856E+02  0.47000000000E+01 0. -1.
         -5    1    4    4    0  502  0.68805751746E+02 -0.41463871753E+02 -0.13421836069E+02  0.81582595065E+02  0.47000000000E+01 0. -1.
          5    1    5    5  503    0  0.45753468275E+02  0.16620057230E+02 -0.18083815198E+02  0.52141351475E+02  0.47000000000E+01 0.  1.
         -5    1    5    5    0  503 -0.76837981023E+02  0.49241384899E+02 -0.77145237295E+02  0.11959208566E+03  0.47000000000E+01 0.  1.
<mgrwt>
<rscale>  0 0.27482259E+03</rscale>
<asrwt>0</asrwt>
<pdfrwt beam="1">  1        1 0.34613988E-01 0.27482259E+03</pdfrwt>
<pdfrwt beam="2">  1       -1 0.12911198E-01 0.27482259E+03</pdfrwt>
<totfact> 0.51167413E+03</totfact>
</mgrwt>
</event>
<event>
 9    1  0.2073852E-002  0.2752964E+03  0.7818608E-02  0.1098286E+00
         -1   -1    0    0    0  501 -0.00000000000E+00  0.00000000000E+00  0.51053353323E+02  0.51053353323E+02  0.00000000000E+00 0.  1.
          1   -1    0    0  501    0  0.00000000000E+00 -0.00000000000E+00 -0.37112221183E+03  0.37112221183E+03  0.00000000000E+00 0.  1.
         36    2    1    2    0    0  0.71054273576E-14  0.00000000000E+00 -0.32006885850E+03  0.42217556515E+03  0.27529644681E+03 0.  0.
         25    2    3    3    0    0  0.18378875031E+02  0.47271027415E+02 -0.11787597666E+03  0.17926037540E+03  0.12516869910E+03 0.  0.
         25    2    3    3    0    0 -0.18378875031E+02 -0.47271027415E+02 -0.20219288184E+03  0.24291518975E+03  0.12471365146E+03 0.  0.
          5    1    4    4  502    0  0.50740222634E+02  0.27100315763E+01 -0.11273870590E+03  0.12374982938E+03  0.47000000000E+01 0.  1.
         -5    1    4    4    0  502 -0.32361347603E+02  0.44560995839E+02 -0.51372707619E+01  0.55510546022E+02  0.47000000000E+01 0.  1.
          5    1    5    5  503    0  0.53320903645E+02 -0.27119299184E+02 -0.90492692437E+02  0.10857989012E+03  0.47000000000E+01 0. -1.
         -5    1    5    5    0  503 -0.71699778676E+02 -0.20151728231E+02 -0.11170018941E+03  0.13433529963E+03  0.47000000000E+01 0. -1.
<mgrwt>
<rscale>  0 0.27529645E+03</rscale>
<asrwt>0</asrwt>
<pdfrwt beam="1">  1        1 0.57095726E-01 0.27529645E+03</pdfrwt>
<pdfrwt beam="2">  1       -1 0.78543619E-02 0.27529645E+03</pdfrwt>
<totfact> 0.58762915E+03</totfact>
</mgrwt>
</event>
<event>
 9    1  0.2073852E-002  0.2747607E+03  0.7818608E-02  0.1098585E+00
          1   -1    0    0  501    0  0.00000000000E+00  0.00000000000E+00  0.13410496261E+03  0.13410496261E+03  0.00000000000E+00 0. -1.
         -1   -1    0    0    0  501 -0.00000000000E+00 -0.00000000000E+00 -0.14073577762E+03  0.14073577762E+03  0.00000000000E+00 0. -1.
         36    2    1    2    0    0  0.00000000000E+00  0.00000000000E+00 -0.66308150050E+01  0.27484074023E+03  0.27476074098E+03 0.  0.
         25    2    3    3    0    0  0.51237124846E+01 -0.35471084816E+02 -0.46005068573E+02  0.14070179397E+03  0.12804717179E+03 0.  0.
         25    2    3    3    0    0 -0.51237124846E+01  0.35471084816E+02  0.39374253568E+02  0.13413894626E+03  0.12311975785E+03 0.  0.
          5    1    4    4  502    0 -0.52808172915E+02 -0.16267593148E+02  0.11588351871E+02  0.56654369757E+02  0.47000000000E+01 0. -1.
         -5    1    4    4    0  502  0.57931885400E+02 -0.19203491668E+02 -0.57593420444E+02  0.84047424212E+02  0.47000000000E+01 0. -1.
          5    1    5    5  503    0  0.51988164302E+02  0.26572806295E+02 -0.81796567614E+01  0.59142878241E+02  0.47000000000E+01 0. -1.
         -5    1    5    5    0  503 -0.57111876787E+02  0.88982785206E+01  0.47553910329E+02  0.74996068019E+02  0.47000000000E+01 0. -1.
<mgrwt>
<rscale>  0 0.27476074E+03</rscale>
<asrwt>0</asrwt>
<pdfrwt beam="1">  1        1 0.20631533E-01 0.27476074E+03</pdfrwt>
<pdfrwt beam="2">  1       -1 0.21651658E-01 0.27476074E+03</pdfrwt>
<totfact> 0.43118719E+03</totfact>
</mgrwt>
</event>
<event>
 9    1  0.2073852E-002  0.2749738E+03  0.7818608E-02  0.1098466E+00
         -1   -1    0    0    0  501 -0.00000000000E+00  0.00000000000E+00  0.41251693306E+02  0.41251693306E+02  0.00000000000E+00 0. -1.
          1   -1    0    0  501    0  0.00000000000E+00 -0.00000000000E+00 -0.45822704599E+03  0.45822704599E+03  0.00000000000E+00 0. -1.
         36    2    1    2    0    0 -0.71054273576E-14  0.35527136788E-14 -0.41697535268E+03  0.49947873929E+03  0.27497375559E+03 0.  0.
         25    2    3    3    0    0 -0.21431447125E+02  0.26942750134E+02 -0.12806229262E+03  0.18323506337E+03  0.12645125127E+03 0.  0.
         25    2    3    3    0    0  0.21431447125E+02 -0.26942750134E+02 -0.28891306007E+03  0.31624367592E+03  0.12391161194E+03 0.  0.
          5    1    4    4  502    0  0.49455068991E+02  0.11928722809E+02 -0.83951205498E+02  0.98275089322E+02  0.47000000000E+01 0.  1.
         -5    1    4    4    0  502 -0.70886516116E+02  0.15014027325E+02 -0.44111087118E+02  0.84959974048E+02  0.47000000000E+01 0.  1.
          5    1    5    5  503    0  0.89312511978E+01 -0.73741624191E+01 -0.29207503116E+03  0.29234236666E+03  0.47000000000E+01 0.  1.
         -5    1    5    5    0  503  0.12500195927E+02 -0.19568587714E+02  0.31619710905E+01  0.23901309264E+02  0.47000000000E+01 0.  1.
<mgrwt>
<rscale>  0 0.27497376E+03</rscale>
<asrwt>0</asrwt>
<pdfrwt beam="1">  1        1 0.70496471E-01 0.27497376E+03</pdfrwt>
<pdfrwt beam="2">  1       -1 0.63464142E-02 0.27497376E+03</pdfrwt>
<totfact> 0.61905042E+03</totfact>
</mgrwt>
</event>
<event>
 9    1  0.2073852E-002  0.2798312E+03  0.7818608E-02  0.1095781E+00
         -2   -1    0    0    0  501 -0.00000000000E+00  0.00000000000E+00  0.31527362766E+03  0.31527362766E+03  0.00000000000E+00 0. -1.
          2   -1    0    0  501    0  0.00000000000E+00 -0.00000000000E+00 -0.62093288573E+02  0.62093288573E+02  0.00000000000E+00 0. -1.
         36    2    1    2    0    0  0.00000000000E+00  0.00000000000E+00  0.25318033909E+03  0.37736691624E+03  0.27983120871E+03 0.  0.
         25    2    3    3    0    0 -0.57777296601E+02 -0.19134899056E+02  0.10022008418E+03  0.17166457633E+03  0.12538062502E+03 0.  0.
         25    2    3    3    0    0  0.57777296601E+02  0.19134899056E+02  0.15296025491E+03  0.20570233991E+03  0.12333796129E+03 0.  0.
          5    1    4    4  502    0 -0.90818933286E+02 -0.94985125500E+01  0.35257209061E+02  0.97997250852E+02  0.47000000000E+01 0. -1.
         -5    1    4    4    0  502  0.33041636684E+02 -0.96363865057E+01  0.64962875117E+02  0.73667325478E+02  0.47000000000E+01 0. -1.
          5    1    5    5  503    0  0.26937618948E+02  0.11955536886E+02 -0.15913359077E+02  0.33821519391E+02  0.47000000000E+01 0.  1.
         -5    1    5    5    0  503  0.30839677653E+02  0.71793621701E+01  0.16887361399E+03  0.17188082052E+03  0.47000000000E+01 0.  1.
<mgrwt>
<rscale>  0 0.27983121E+03</rscale>
<asrwt>0</asrwt>
<pdfrwt beam="1">  1        2 0.95528138E-02 0.27983121E+03</pdfrwt>
<pdfrwt beam="2">  1       -2 0.48503634E-01 0.27983121E+03</pdfrwt>
<totfact> 0.27629328E+03</totfact>
</mgrwt>
</event>
<event>
 9    1  0.2073852E-002  0.2739117E+03  0.7818608E-02  0.1099061E+00
          2   -1    0    0  501    0  0.00000000000E+00  0.00000000000E+00  0.10212323906E+04  0.10212323906E+04  0.00000000000E+00 0.  1.
         -2   -1    0    0    0  501 -0.00000000000E+00 -0.00000000000E+00 -0.18366930966E+02  0.18366930966E+02  0.00000000000E+00 0.  1.
         36    2    1    2    0    0 -0.71054273576E-14  0.00000000000E+00  0.10028654597E+04  0.10395993216E+04  0.27391169978E+03 0.  0.
         25    2    3    3    0    0  0.46298440155E+02  0.30388130429E+02  0.44402347117E+03  0.46422361241E+03  0.12361122658E+03 0.  0.
         25    2    3    3    0    0 -0.46298440155E+02 -0.30388130429E+02  0.55884198850E+03  0.57537570919E+03  0.12524318179E+03 0.  0.
          5    1    4    4  502    0  0.19119643849E+02  0.77785277473E+02  0.24661798376E+03  0.25934268852E+03  0.47000000000E+01 0.  1.
         -5    1    4    4    0  502  0.27178796306E+02 -0.47397147044E+02  0.19740548741E+03  0.20488092389E+03  0.47000000000E+01 0.  1.
          5    1    5    5  503    0 -0.22744958800E+02 -0.71181355339E+02  0.45670154583E+03  0.46279856359E+03  0.47000000000E+01 0.  1.
         -5    1    5    5    0  503 -0.23553481355E+02  0.40793224910E+02  0.10214044266E+03  0.11257714559E+03  0.47000000000E+01 0.  1.
<mgrwt>
<rscale>  0 0.27391170E+03</rscale>
<asrwt>0</asrwt>
<pdfrwt beam="1">  1        2 0.15711263E+00 0.27391170E+03</pdfrwt>
<pdfrwt beam="2">  1       -2 0.28256825E-02 0.27391170E+03</pdfrwt>
<totfact> 0.11770909E+04</totfact>
</mgrwt>
</event>
<event>
 9    1  0.2073852E-002  0.2755059E+03  0.7818608E-02  0.1098169E+00
         -1   -1    0    0    0  501 -0.00000000000E+00  0.00000000000E+00  0.19813349455E+03  0.19813349455E+03  0.00000000000E+00 0. -1.
          1   -1    0    0  501    0  0.00000000000E+00 -0.00000000000E+00 -0.95773180707E+02  0.95773180707E+02  0.00000000000E+00 0. -1.
         36    2    1    2    0    0 -0.71054273576E-14  0.00000000000E+00  0.10236031385E+03  0.29390667526E+03  0.27550589814E+03 0.  0.
         25    2    3    3    0    0 -0.37394979353E+02 -0.43150483099E+01  0.68688800926E+01  0.13211111541E+03  0.12644825494E+03 0.  0.
         25    2    3    3    0    0  0.37394979353E+02  0.43150483099E+01  0.95491433755E+02  0.16179555985E+03  0.12506872169E+03 0.  0.
          5    1    4    4  502    0  0.16509026477E+02 -0.48037522427E+02  0.29535719411E+02  0.58945739772E+02  0.47000000000E+01 0. -1.
         -5    1    4    4    0  502 -0.53904005830E+02  0.43722474117E+02 -0.22666839319E+02  0.73165375637E+02  0.47000000000E+01 0. -1.
          5    1    5    5  503    0  0.19611910112E+02 -0.58055145312E+02  0.66649776437E+02  0.90660408197E+02  0.47000000000E+01 0. -1.
         -5    1    5    5    0  503  0.17783069241E+02  0.62370193622E+02  0.28841657318E+02  0.71135151654E+02  0.47000000000E+01 0. -1.
<mgrwt>
<rscale>  0 0.27550590E+03</rscale>
<asrwt>0</asrwt>
<pdfrwt beam="1">  1        1 0.14734336E-01 0.27550590E+03</pdfrwt>
<pdfrwt beam="2">  1       -1 0.30482076E-01 0.27550590E+03</pdfrwt>
<totfact> 0.37732536E+03</totfact>
</mgrwt>
</event>
<event>
 9    1  0.2073852E-002  0.2739953E+03  0.7818608E-02  0.1099015E+00
          1   -1    0    0  501    0  0.00000000000E+00  0.00000000000E+00  0.24655556407E+02  0.24655556407E+02  0.00000000000E+00 0. -1.
         -1   -1    0    0    0  501 -0.00000000000E+00 -0.00000000000E+00 -0.76122190828E+03  0.76122190828E+03  0.00000000000E+00 0. -1.
         36    2    1    2    0    0  0.00000000000E+00  0.35527136788E-14 -0.73656635187E+03  0.78587746468E+03  0.27399525323E+03 0.  0.
         25    2    3    3    0    0  0.20392304691E+02  0.28076748235E+02 -0.24603862025E+03  0.27842520513E+03  0.12562421072E+03 0.  0.
         25    2    3    3    0    0 -0.20392304691E+02 -0.28076748235E+02 -0.49052773162E+03  0.50745225955E+03  0.12524452224E+03 0.  0.
          5    1    4    4  502    0  0.10289597600E+02  0.29649425014E+02  0.39324169861E+00  0.31736554026E+02  0.47000000000E+01 0.  1.
         -5    1    4    4    0  502  0.10102707091E+02 -0.15726767795E+01 -0.24643186194E+03  0.24668865111E+03  0.47000000000E+01 0.  1.
          5    1    5    5  503    0 -0.71887059120E+02 -0.19215021012E+02 -0.33891166568E+03  0.34701609967E+03  0.47000000000E+01 0.  1.
         -5    1    5    5    0  503  0.51494754429E+02 -0.88617272226E+01 -0.15161606595E+03  0.16043615988E+03  0.47000000000E+01 0.  1.
<mgrwt>
<rscale>  0 0.27399525E+03</rscale>
<asrwt>0</asrwt>
<pdfrwt beam="1">  1        1 0.37931628E-02 0.27399525E+03</pdfrwt>
<pdfrwt beam="2">  1       -1 0.11711106E+00 0.27399525E+03</pdfrwt>
<totfact> 0.17154796E+03</totfact>
</mgrwt>
</event>
<event>
 9    1  0.2073852E-002  0.2746174E+03  0.7818608E-02  0.1098666E+00
         -1   -1    0    0    0  501 -0.00000000000E+00  0.00000000000E+00  0.18850989912E+02  0.18850989912E+02  0.00000000000E+00 0.  1.
          1   -1    0    0  501    0  0.00000000000E+00 -0.00000000000E+00 -0.10001424194E+04  0.10001424194E+04  0.00000000000E+00 0.  1.
         36    2    1    2    0    0  0.00000000000E+00  0.00000000000E+00 -0.98129142947E+03  0.10189934093E+04  0.27461736768E+03 0.  0.
         25    2    3    3    0    0 -0.45333922371E+02  0.35702931181E+02 -0.48772717579E+03  0.50662226368E+03  0.12433204029E+03 0.  0.
         25    2    3    3    0    0  0.45333922371E+02 -0.35702931181E+02 -0.49356425367E+03  0.51237114561E+03  0.12485453349E+03 0.  0.
          5    1    4    4  502    0 -0.52498703194E+02  0.75092087171E+02 -0.26908554499E+03  0.28429571913E+03  0.47000000000E+01 0.  1.
         -5    1    4    4    0  502  0.71647808231E+01 -0.39389155991E+02 -0.21864163080E+03  0.22232654456E+03  0.47000000000E+01 0.  1.
          5    1    5    5  503    0  0.56992894737E+02 -0.52918930210E+02 -0.15835850287E+03  0.17648826776E+03  0.47000000000E+01 0. -1.
         -5    1    5    5    0  503 -0.11658972366E+02  0.17215999030E+02 -0.33520575081E+03  0.33588287785E+03  0.47000000000E+01 0. -1.
<mgrwt>
<rscale>  0 0.27461737E+03</rscale>
<asrwt>0</asrwt>
<pdfrwt beam="1">  1        1 0.15386810E+00 0.27461737E+03</pdfrwt>
<pdfrwt beam="2">  1       -1 0.29001517E-02 0.27461737E+03</pdfrwt>
<totfact> 0.63355935E+03</totfact>
</mgrwt>
</event>
<event>
 9    1  0.2073852E-002  0.2755564E+03  0.7818608E-02  0.1098141E+00
         -2   -1    0    0    0  501 -0.00000000000E+00  0.00000000000E+00  0.26847733024E+02  0.26847733024E+02  0.00000000000E+00 0.  1.
          2   -1    0    0  501    0  0.00000000000E+00 -0.00000000000E+00 -0.70705527812E+03  0.70705527812E+03  0.00000000000E+00 0.  1.
         36    2    1    2    0    0 -0.71054273576E-14 -0.35527136788E-14 -0.68020754509E+03  0.73390301114E+03  0.27555639234E+03 0.  0.
         25    2    3    3    0    0  0.27650706838E+02  0.11552253791E+02 -0.44848091448E+03  0.46832569851E+03  0.13151354709E+03 0.  0.
         25    2    3    3    0    0 -0.27650706838E+02 -0.11552253791E+02 -0.23172663061E+03  0.26557731263E+03  0.12623811428E+03 0.  0.
          5    1    4    4  502    0  0.56661173028E+02  0.27667847139E+02 -0.10051406809E+03  0.11874833126E+03  0.47000000000E+01 0.  1.
         -5    1    4    4    0  502 -0.29010466191E+02 -0.16115593348E+02 -0.34796684640E+03  0.34957736724E+03  0.47000000000E+01 0.  1.
          5    1    5    5  503    0 -0.40450621668E+02 -0.40867968346E+02 -0.37799438183E+02  0.68973409057E+02  0.47000000000E+01 0. -1.
         -5    1    5    5    0  503  0.12799914830E+02  0.29315714555E+02 -0.19392719243E+03  0.19660390358E+03  0.47000000000E+01 0. -1.
<mgrwt>
<rscale>  0 0.27555639E+03</rscale>
<asrwt>0</asrwt>
<pdfrwt beam="1">  1        2 0.10877775E+00 0.27555639E+03</pdfrwt>
<pdfrwt beam="2">  1       -2 0.41304200E-02 0.27555639E+03</pdfrwt>
<totfact> 0.10804933E+04</totfact>
</mgrwt>
</event>
<event>
 9    1  0.2073852E-002  0.2753327E+03  0.7818608E-02  0.1098266E+00
         -1   -1    0    0    0  501 -0.00000000000E+00  0.00000000000E+00  0.12790727772E+02  0.12790727772E+02  0.00000000000E+00 0.  1.
          1   -1    0    0  501    0  0.00000000000E+00 -0.00000000000E+00 -0.14817001905E+04  0.14817001905E+04  0.00000000000E+00 0.  1.
         36    2    1    2    0    0  0.00000000000E+00  0.00000000000E+00 -0.14689094627E+04  0.14944909183E+04  0.27533269894E+03 0.  0.
         25    2    3    3    0    0  0.50508192783E+02  0.17059940626E+02 -0.95841527839E+03  0.96638779361E+03  0.11181861514E+03 0.  0.
         25    2    3    3    0    0 -0.50508192783E+02 -0.17059940626E+02 -0.51049418436E+03  0.52810312468E+03  0.12428386426E+03 0.  0.
          5    1    4    4  502    0  0.40120395548E+02  0.51407541297E+02 -0.30296391113E+03  0.30993806299E+03  0.47000000000E+01 0.  1.
         -5    1    4    4    0  502  0.10387797235E+02 -0.34347600672E+02 -0.65545136725E+03  0.65644973063E+03  0.47000000000E+01 0.  1.
          5    1    5    5  503    0 -0.20979510798E+02 -0.58106613569E+01 -0.48920777248E+03  0.48971444569E+03  0.47000000000E+01 0.  1.
         -5    1    5    5    0  503 -0.29528681985E+02 -0.11249279269E+02 -0.21286411881E+02  0.38388678990E+02  0.47000000000E+01 0.  1.
<mgrwt>
<rscale>  0 0.27533270E+03</rscale>
<asrwt>0</asrwt>
<pdfrwt beam="1">  1        1 0.22795384E+00 0.27533270E+03</pdfrwt>
<pdfrwt beam="2">  1       -1 0.19678046E-02 0.27533270E+03</pdfrwt>
<totfact> 0.51678067E+03</totfact>
</mgrwt>
</event>
<event>
 9    1  0.2073852E-002  0.2747052E+03  0.7818608E-02  0.1098617E+00
         -1   -1    0    0    0  501 -0.00000000000E+00  0.00000000000E+00  0.33392556078E+03  0.33392556078E+03  0.00000000000E+00 0. -1.
          1   -1    0    0  501    0  0.00000000000E+00 -0.00000000000E+00 -0.56496817057E+02  0.56496817057E+02  0.00000000000E+00 0. -1.
         36    2    1    2    0    0  0.53290705182E-14 -0.71054273576E-14  0.27742874372E+03  0.39042237784E+03  0.27470516062E+03 0.  0.
         25    2    3    3    0    0 -0.21049172799E+01 -0.33518512555E+02  0.15081870263E+03  0.19799407005E+03  0.12380407647E+03 0.  0.
         25    2    3    3    0    0  0.21049172799E+01  0.33518512555E+02  0.12661004109E+03  0.19242830778E+03  0.14096322134E+03 0.  0.
          5    1    4    4  502    0 -0.11643526753E+02  0.44854417545E+02  0.37470665116E+02  0.59779856413E+02  0.47000000000E+01 0. -1.
         -5    1    4    4    0  502  0.95386094736E+01 -0.78372930101E+02  0.11334803751E+03  0.13821421364E+03  0.47000000000E+01 0. -1.
          5    1    5    5  503    0 -0.37927580117E+02  0.11210267524E+02 -0.15727754431E+02  0.42820832441E+02  0.47000000000E+01 0. -1.
         -5    1    5    5    0  503  0.40032497397E+02  0.22308245032E+02  0.14233779552E+03  0.14960747534E+03  0.47000000000E+01 0. -1.
<mgrwt>
<rscale>  0 0.27470516E+03</rscale>
<asrwt>0</asrwt>
<pdfrwt beam="1">  1        1 0.86918182E-02 0.27470516E+03</pdfrwt>
<pdfrwt beam="2">  1       -1 0.51373162E-01 0.27470516E+03</pdfrwt>
<totfact> 0.30207940E+03</totfact>
</mgrwt>
</event>
<event>
 9    1  0.2073852E-002  0.2748609E+03  0.7818608E-02  0.1098529E+00
         -2   -1    0    0    0  501 -0.00000000000E+00  0.00000000000E+00  0.26155727736E+02  0.26155727736E+02  0.00000000000E+00 0. -1.
          2   -1    0    0  501    0  0.00000000000E+00 -0.00000000000E+00 -0.72210305632E+03  0.72210305632E+03  0.00000000000E+00 0. -1.
         36    2    1    2    0    0  0.00000000000E+00 -0.35527136788E-14 -0.69594732858E+03  0.74825878405E+03  0.27486091711E+03 0.  0.
         25    2    3    3    0    0 -0.13915407783E+02  0.28952008650E+02 -0.49299376265E+03  0.50582978889E+03  0.10857747433E+03 0.  0.
         25    2    3    3    0    0  0.13915407783E+02 -0.28952008650E+02 -0.20295356593E+03  0.24242899517E+03  0.12864606638E+03 0.  0.
          5    1    4    4  502    0 -0.53193637570E+02 -0.74150406277E+01 -0.32529288667E+03  0.32973034138E+03  0.47000000000E+01 0.  1.
         -5    1    4    4    0  502  0.39278229786E+02  0.36367049278E+02 -0.16770087598E+03  0.17609944751E+03  0.47000000000E+01 0.  1.
          5    1    5    5  503    0  0.70392215899E+02 -0.19984425799E+02 -0.13377308827E+03  0.15255087833E+03  0.47000000000E+01 0.  1.
         -5    1    5    5    0  503 -0.56476808116E+02 -0.89675828510E+01 -0.69180477658E+02  0.89878116837E+02  0.47000000000E+01 0.  1.
<mgrwt>
<rscale>  0 0.27486092E+03</rscale>
<asrwt>0</asrwt>
<pdfrwt beam="1">  1        2 0.11109274E+00 0.27486092E+03</pdfrwt>
<pdfrwt beam="2">  1       -2 0.40239594E-02 0.27486092E+03</pdfrwt>
<totfact> 0.10951684E+04</totfact>
</mgrwt>
</event>
<event>
 9    1  0.2073852E-002  0.2759412E+03  0.7818608E-02  0.1097927E+00
         -1   -1    0    0    0  501 -0.00000000000E+00  0.00000000000E+00  0.10895368915E+02  0.10895368915E+02  0.00000000000E+00 0.  1.
          1   -1    0    0  501    0  0.00000000000E+00 -0.00000000000E+00 -0.17471533168E+04  0.17471533168E+04  0.00000000000E+00 0.  1.
         36    2    1    2    0    0  0.00000000000E+00  0.00000000000E+00 -0.17362579478E+04  0.17580486857E+04  0.27594115270E+03 0.  0.
         25    2    3    3    0    0 -0.87419348494E+01  0.20595493620E+02 -0.11888499198E+04  0.11956549045E+04  0.12540304315E+03 0.  0.
         25    2    3    3    0    0  0.87419348494E+01 -0.20595493620E+02 -0.54740802807E+03  0.56239378113E+03  0.12700637809E+03 0.  0.
          5    1    4    4  502    0 -0.62862522983E+02  0.33715380934E+02 -0.66002841272E+03  0.66388855940E+03  0.47000000000E+01 0. -1.
         -5    1    4    4    0  502  0.54120588134E+02 -0.13119887314E+02 -0.52882150705E+03  0.53176634513E+03  0.47000000000E+01 0. -1.
          5    1    5    5  503    0 -0.23820104692E+02 -0.80664135105E+01 -0.51138651911E+03  0.51202609928E+03  0.47000000000E+01 0. -1.
         -5    1    5    5    0  503  0.32562039541E+02 -0.12529080109E+02 -0.36021508961E+02  0.50367681853E+02  0.47000000000E+01 0. -1.
<mgrwt>
<rscale>  0 0.27594115E+03</rscale>
<asrwt>0</asrwt>
<pdfrwt beam="1">  1        1 0.26879269E+00 0.27594115E+03</pdfrwt>
<pdfrwt beam="2">  1       -1 0.16762114E-02 0.27594115E+03</pdfrwt>
<totfact> 0.43721398E+03</totfact>
</mgrwt>
</event>
<event>
 9    1  0.2073852E-002  0.2741474E+03  0.7818608E-02  0.1098929E+00
         -2   -1    0    0    0  501 -0.00000000000E+00  0.00000000000E+00  0.97607688580E+01  0.97607688580E+01  0.00000000000E+00 0. -1.
          2   -1    0    0  501    0  0.00000000000E+00 -0.00000000000E+00 -0.19249718827E+04  0.19249718827E+04  0.00000000000E+00 0. -1.
         36    2    1    2    0    0  0.35527136788E-14  0.71054273576E-14 -0.19152111138E+04  0.19347326516E+04  0.27414744650E+03 0.  0.
         25    2    3    3    0    0  0.14873837184E+01  0.19977539709E+02 -0.58451465049E+03  0.59809409433E+03  0.12513134950E+03 0.  0.
         25    2    3    3    0    0 -0.14873837184E+01 -0.19977539709E+02 -0.13306964633E+04  0.13366385572E+04  0.12429095179E+03 0.  0.
          5    1    4    4  502    0 -0.19145017982E+02 -0.49899480149E+02 -0.25684234867E+03  0.26238630281E+03  0.47000000000E+01 0.  1.
         -5    1    4    4    0  502  0.20632401700E+02  0.69877019857E+02 -0.32767230183E+03  0.33570779152E+03  0.47000000000E+01 0.  1.
          5    1    5    5  503    0 -0.70916617964E+01  0.32651379814E+02 -0.10725399271E+04  0.10730705426E+04  0.47000000000E+01 0. -1.
         -5    1    5    5    0  503  0.56042780780E+01 -0.52628919523E+02 -0.25815653625E+03  0.26356801458E+03  0.47000000000E+01 0. -1.
<mgrwt>
<rscale>  0 0.27414745E+03</rscale>
<asrwt>0</asrwt>
<pdfrwt beam="1">  1        2 0.29614967E+00 0.27414745E+03</pdfrwt>
<pdfrwt beam="2">  1       -2 0.15016560E-02 0.27414745E+03</pdfrwt>
<totfact> 0.95830039E+03</totfact>
</mgrwt>
</event>
<event>
 9    1  0.2073852E-002  0.2754222E+03  0.7818608E-02  0.1098216E+00
          4   -1    0    0  501    0  0.00000000000E+00  0.00000000000E+00  0.14207255273E+03  0.14207255273E+03  0.00000000000E+00 0. -1.
         -4   -1    0    0    0  501 -0.00000000000E+00 -0.00000000000E+00 -0.13348352206E+03  0.13348352206E+03  0.00000000000E+00 0. -1.
         36    2    1    2    0    0  0.71054273576E-14 -0.35527136788E-14  0.85890306707E+01  0.27555607479E+03  0.27542218304E+03 0.  0.
         25    2    3    3    0    0  0.11575484976E+02 -0.17282191668E+02  0.43529451438E+02  0.13381525496E+03  0.12481603790E+03 0.  0.
         25    2    3    3    0    0 -0.11575484976E+02  0.17282191668E+02 -0.34940420767E+02  0.14174081983E+03  0.13578277138E+03 0.  0.
          5    1    4    4  502    0  0.57603536586E+02 -0.21927349703E+02  0.58355985902E+02  0.85008747684E+02  0.47000000000E+01 0. -1.
         -5    1    4    4    0  502 -0.46028051610E+02  0.46451580352E+01 -0.14826534464E+02  0.48806507275E+02  0.47000000000E+01 0. -1.
          5    1    5    5  503    0 -0.56189778384E+02  0.54618399263E+02 -0.25994673309E+02  0.82693855717E+02  0.47000000000E+01 0.  1.
         -5    1    5    5    0  503  0.44614293408E+02 -0.37336207596E+02 -0.89457474579E+01  0.59046964118E+02  0.47000000000E+01 0.  1.
<mgrwt>
<rscale>  0 0.27542218E+03</rscale>
<asrwt>0</asrwt>
<pdfrwt beam="1">  1        4 0.21857316E-01 0.27542218E+03</pdfrwt>
<pdfrwt beam="2">  1       -4 0.20535926E-01 0.27542218E+03</pdfrwt>
<totfact> 0.77429126E+02</totfact>
</mgrwt>
</event>
<event>
 9    1  0.2073852E-002  0.2677599E+03  0.7818608E-02  0.1102569E+00
         -2   -1    0    0    0  501 -0.00000000000E+00  0.00000000000E+00  0.51447064684E+03  0.51447064684E+03  0.00000000000E+00 0.  1.
          2   -1    0    0  501    0  0.00000000000E+00 -0.00000000000E+00 -0.34839390944E+02  0.34839390944E+02  0.00000000000E+00 0.  1.
         36    2    1    2    0    0  0.71054273576E-14  0.31086244690E-14  0.47963125589E+03  0.54931003778E+03  0.26775992228E+03 0.  0.
         25    2    3    3    0    0  0.35994541810E+02  0.35754460693E+01  0.29816468480E+03  0.32835097158E+03  0.13267927654E+03 0.  0.
         25    2    3    3    0    0 -0.35994541810E+02 -0.35754460693E+01  0.18146657110E+03  0.22095906620E+03  0.12076589608E+03 0.  0.
          5    1    4    4  502    0  0.16519233246E+02  0.39248687378E+02  0.28055663342E+03  0.28380884251E+03  0.47000000000E+01 0. -1.
         -5    1    4    4    0  502  0.19475308565E+02 -0.35673241309E+02  0.17608051375E+02  0.44542129073E+02  0.47000000000E+01 0. -1.
          5    1    5    5  503    0 -0.72985425578E+02 -0.59166764538E+01  0.16410172136E+03  0.17975912873E+03  0.47000000000E+01 0.  1.
         -5    1    5    5    0  503  0.36990883767E+02  0.23412303845E+01  0.17364849736E+02  0.41199937475E+02  0.47000000000E+01 0.  1.
<mgrwt>
<rscale>  0 0.26775992E+03</rscale>
<asrwt>0</asrwt>
<pdfrwt beam="1">  1        2 0.53599067E-02 0.26775992E+03</pdfrwt>
<pdfrwt beam="2">  1       -2 0.79149325E-01 0.26775992E+03</pdfrwt>
<totfact> 0.20843976E+03</totfact>
</mgrwt>
</event>
<event>
 9    1  0.2073852E-002  0.2727690E+03  0.7818608E-02  0.1099705E+00
         -1   -1    0    0    0  501 -0.00000000000E+00  0.00000000000E+00  0.49068692371E+03  0.49068692371E+03  0.00000000000E+00 0.  1.
          1   -1    0    0  501    0  0.00000000000E+00 -0.00000000000E+00 -0.37907532629E+02  0.37907532629E+02  0.00000000000E+00 0.  1.
         36    2    1    2    0    0  0.00000000000E+00  0.00000000000E+00  0.45277939108E+03  0.52859445633E+03  0.27276899069E+03 0.  0.
         25    2    3    3    0    0  0.37927309315E+02 -0.18734767302E+02  0.18732319065E+03  0.23108189552E+03  0.12852778838E+03 0.  0.
         25    2    3    3    0    0 -0.37927309315E+02  0.18734767302E+02  0.26545620043E+03  0.29751256081E+03  0.12750394973E+03 0.  0.
          5    1    4    4  502    0  0.90512441115E+01  0.88165640832E+01 -0.17648120863E+02  0.22208173995E+02  0.47000000000E+01 0.  1.
         -5    1    4    4    0  502  0.28876065203E+02 -0.27551331386E+02  0.20497131151E+03  0.20887372153E+03  0.47000000000E+01 0.  1.
          5    1    5    5  503    0 -0.99199187303E+01 -0.42568381710E+02  0.19501516401E+03  0.19990866940E+03  0.47000000000E+01 0.  1.
         -5    1    5    5    0  503 -0.28007390585E+02  0.61303149013E+02  0.70441036424E+02  0.97603891412E+02  0.47000000000E+01 0.  1.
<mgrwt>
<rscale>  0 0.27276899E+03</rscale>
<asrwt>0</asrwt>
<pdfrwt beam="1">  1        1 0.58319285E-02 0.27276899E+03</pdfrwt>
<pdfrwt beam="2">  1       -1 0.75490291E-01 0.27276899E+03</pdfrwt>
<totfact> 0.24660294E+03</totfact>
</mgrwt>
</event>
<event>
 9    1  0.2073852E-002  0.2759165E+03  0.7818608E-02  0.1097940E+00
          2   -1    0    0  501    0  0.00000000000E+00  0.00000000000E+00  0.37214871701E+03  0.37214871701E+03  0.00000000000E+00 0. -1.
         -2   -1    0    0    0  501 -0.00000000000E+00 -0.00000000000E+00 -0.51142120504E+02  0.51142120504E+02  0.00000000000E+00 0. -1.
         36    2    1    2    0    0  0.71054273576E-14 -0.71054273576E-14  0.32100659651E+03  0.42329083752E+03  0.27591646947E+03 0.  0.
         25    2    3    3    0    0 -0.21975420220E+02  0.54002449114E+02  0.15030824902E+03  0.20399732947E+03  0.12499262819E+03 0.  0.
         25    2    3    3    0    0  0.21975420220E+02 -0.54002449114E+02  0.17069834749E+03  0.21929350805E+03  0.12470979605E+03 0.  0.
          5    1    4    4  502    0 -0.58020260437E+02  0.44912787994E+02  0.14940683196E+03  0.16651726812E+03  0.47000000000E+01 0.  1.
         -5    1    4    4    0  502  0.36044840217E+02  0.90896611200E+01  0.90141705543E+00  0.37480061343E+02  0.47000000000E+01 0.  1.
          5    1    5    5  503    0 -0.43651795460E+02  0.21553848384E+00  0.97484883408E+02  0.10691547221E+03  0.47000000000E+01 0.  1.
         -5    1    5    5    0  503  0.65627215680E+02 -0.54217987598E+02  0.73213464085E+02  0.11237803585E+03  0.47000000000E+01 0.  1.
<mgrwt>
<rscale>  0 0.27591647E+03</rscale>
<asrwt>0</asrwt>
<pdfrwt beam="1">  1        2 0.57253647E-01 0.27591647E+03</pdfrwt>
<pdfrwt beam="2">  1       -2 0.78680188E-02 0.27591647E+03</pdfrwt>
<totfact> 0.83305481E+03</totfact>
</mgrwt>
</event>
<event>
 9    1  0.2073852E-002  0.2758110E+03  0.7818608E-02  0.1097999E+00
          2   -1    0    0  501    0  0.00000000000E+00  0.00000000000E+00  0.63087073685E+03  0.63087073685E+03  0.00000000000E+00 0. -1.
         -2   -1    0    0    0  501 -0.00000000000E+00 -0.00000000000E+00 -0.30145524348E+02  0.30145524348E+02  0.00000000000E+00 0. -1.
         36    2    1    2    0    0  0.71054273576E-14  0.00000000000E+00  0.60072521250E+03  0.66101626120E+03  0.27581101615E+03 0.  0.
         25    2    3    3    0    0 -0.35600355080E+02 -0.22984832220E+02  0.20889881345E+03  0.24708050808E+03  0.12495749445E+03 0.  0.
         25    2    3    3    0    0  0.35600355080E+02  0.22984832220E+02  0.39182639906E+03  0.41393575312E+03  0.12656695034E+03 0.  0.
          5    1    4    4  502    0 -0.45503318801E+02 -0.40968056565E+02  0.21622952758E+03  0.22478040902E+03  0.47000000000E+01 0. -1.
         -5    1    4    4    0  502  0.99029637211E+01  0.17983224345E+02 -0.73307141356E+01  0.22300099059E+02  0.47000000000E+01 0. -1.
          5    1    5    5  503    0  0.54689096139E+02  0.62154863170E+02  0.31242233542E+03  0.32323974063E+03  0.47000000000E+01 0. -1.
         -5    1    5    5    0  503 -0.19088741060E+02 -0.39170030950E+02  0.79404063632E+02  0.90696012487E+02  0.47000000000E+01 0. -1.
<mgrwt>
<rscale>  0 0.27581102E+03</rscale>
<asrwt>0</asrwt>
<pdfrwt beam="1">  1        2 0.97057027E-01 0.27581102E+03</pdfrwt>
<pdfrwt beam="2">  1       -2 0.46377735E-02 0.27581102E+03</pdfrwt>
<totfact> 0.10396516E+04</totfact>
</mgrwt>
</event>
<event>
 9    1  0.2073852E-002  0.2760467E+03  0.7818608E-02  0.1097868E+00
         -1   -1    0    0    0  501 -0.00000000000E+00  0.00000000000E+00  0.40371247766E+02  0.40371247766E+02  0.00000000000E+00 0. -1.
          1   -1    0    0  501    0  0.00000000000E+00 -0.00000000000E+00 -0.47188150315E+03  0.47188150315E+03  0.00000000000E+00 0. -1.
         36    2    1    2    0    0  0.35527136788E-14  0.00000000000E+00 -0.43151025538E+03  0.51225275091E+03  0.27604669952E+03 0.  0.
         25    2    3    3    0    0 -0.15223839575E+02 -0.60202478140E+02 -0.21535808026E+03  0.25481721019E+03  0.12122955171E+03 0.  0.
         25    2    3    3    0    0  0.15223839575E+02  0.60202478140E+02 -0.21615217512E+03  0.25743554073E+03  0.12528045001E+03 0.  0.
          5    1    4    4  502    0  0.30381093353E+02 -0.70724063701E+02 -0.78246173610E+02  0.10986108367E+03  0.47000000000E+01 0. -1.
         -5    1    4    4    0  502 -0.45604932928E+02  0.10521585561E+02 -0.13711190665E+03  0.14495612652E+03  0.47000000000E+01 0. -1.
          5    1    5    5  503    0 -0.21590105143E+02  0.24862247404E+01  0.75216390691E+01  0.23472942036E+02  0.47000000000E+01 0.  1.
         -5    1    5    5    0  503  0.36813944718E+02  0.57716253399E+02 -0.22367381419E+03  0.23396259869E+03  0.47000000000E+01 0.  1.
<mgrwt>
<rscale>  0 0.27604670E+03</rscale>
<asrwt>0</asrwt>
<pdfrwt beam="1">  1        1 0.72597152E-01 0.27604670E+03</pdfrwt>
<pdfrwt beam="2">  1       -1 0.62109614E-02 0.27604670E+03</pdfrwt>
<totfact> 0.61549211E+03</totfact>
</mgrwt>
</event>
<event>
 9    1  0.2073852E-002  0.2763692E+03  0.7818608E-02  0.1097689E+00
          4   -1    0    0  501    0  0.00000000000E+00  0.00000000000E+00  0.11563153902E+03  0.11563153902E+03  0.00000000000E+00 0.  1.
         -4   -1    0    0    0  501 -0.00000000000E+00 -0.00000000000E+00 -0.16513642315E+03  0.16513642315E+03  0.00000000000E+00 0.  1.
         36    2    1    2    0    0  0.00000000000E+00 -0.14210854715E-13 -0.49504884127E+02  0.28076796216E+03  0.27636916439E+03 0.  0.
         25    2    3    3    0    0  0.51714014686E+02 -0.11218919161E+02 -0.13723661417E+02  0.14080609380E+03  0.12976060152E+03 0.  0.
         25    2    3    3    0    0 -0.51714014686E+02  0.11218919161E+02 -0.35781222710E+02  0.13996186836E+03  0.12453443393E+03 0.  0.
          5    1    4    4  502    0  0.22174707317E+02 -0.68152323017E+02 -0.23896796207E+02  0.75694145390E+02  0.47000000000E+01 0.  1.
         -5    1    4    4    0  502  0.29539307369E+02  0.56933403856E+02  0.10173134790E+02  0.65111948411E+02  0.47000000000E+01 0.  1.
          5    1    5    5  503    0 -0.26788607718E+02 -0.56631090446E+02 -0.14700224371E+02  0.64520512282E+02  0.47000000000E+01 0.  1.
         -5    1    5    5    0  503 -0.24925406968E+02  0.67850009607E+02 -0.21080998339E+02  0.75441356080E+02  0.47000000000E+01 0.  1.
<mgrwt>
<rscale>  0 0.27636916E+03</rscale>
<asrwt>0</asrwt>
<pdfrwt beam="1">  1        4 0.17789468E-01 0.27636916E+03</pdfrwt>
<pdfrwt beam="2">  1       -4 0.25405603E-01 0.27636916E+03</pdfrwt>
<totfact> 0.76010462E+02</totfact>
</mgrwt>
</event>
<event>
 9    1  0.2073852E-002  0.2751355E+03  0.7818608E-02  0.1098376E+00
         -1   -1    0    0    0  501 -0.00000000000E+00  0.00000000000E+00  0.48794476609E+02  0.48794476609E+02  0.00000000000E+00 0.  1.
          1   -1    0    0  501    0  0.00000000000E+00 -0.00000000000E+00 -0.38784902743E+03  0.38784902743E+03  0.00000000000E+00 0.  1.
         36    2    1    2    0    0  0.00000000000E+00 -0.14210854715E-13 -0.33905455082E+03  0.43664350404E+03  0.27513553240E+03 0.  0.
         25    2    3    3    0    0  0.26312600485E+02 -0.57322943728E+02 -0.18315885127E+03  0.22857059311E+03  0.12132220907E+03 0.  0.
         25    2    3    3    0    0 -0.26312600485E+02  0.57322943728E+02 -0.15589569955E+03  0.20807291093E+03  0.12252589237E+03 0.  0.
          5    1    4    4  502    0  0.95824923138E+01  0.25082622597E+02 -0.12064622088E+03  0.12368735880E+03  0.47000000000E+01 0. -1.
         -5    1    4    4    0  502  0.16730108171E+02 -0.82405566325E+02 -0.62512630394E+02  0.10488323431E+03  0.47000000000E+01 0. -1.
          5    1    5    5  503    0  0.42081500965E+02  0.53372059732E+02 -0.65074885795E+02  0.94213906854E+02  0.47000000000E+01 0. -1.
         -5    1    5    5    0  503 -0.68394101450E+02  0.39508839964E+01 -0.90820813758E+02  0.11385900408E+03  0.47000000000E+01 0. -1.
<mgrwt>
<rscale>  0 0.27513553E+03</rscale>
<asrwt>0</asrwt>
<pdfrwt beam="1">  1        1 0.59669080E-01 0.27513553E+03</pdfrwt>
<pdfrwt beam="2">  1       -1 0.75068428E-02 0.27513553E+03</pdfrwt>
<totfact> 0.59515725E+03</totfact>
</mgrwt>
</event>
<event>
 9    1  0.2073852E-002  0.2763960E+03  0.7818608E-02  0.1097674E+00
         -2   -1    0    0    0  501 -0.00000000000E+00  0.00000000000E+00  0.91148126836E+02  0.91148126836E+02  0.00000000000E+00 0.  1.
          2   -1    0    0  501    0  0.00000000000E+00 -0.00000000000E+00 -0.20953454424E+03  0.20953454424E+03  0.00000000000E+00 0.  1.
         36    2    1    2    0    0  0.00000000000E+00  0.00000000000E+00 -0.11838641741E+03  0.30068267108E+03  0.27639595666E+03 0.  0.
         25    2    3    3    0    0  0.20492947589E+02 -0.48762190521E+02 -0.53934967188E+02  0.14706338981E+03  0.12617823827E+03 0.  0.
         25    2    3    3    0    0 -0.20492947589E+02  0.48762190521E+02 -0.64451450218E+02  0.15361928126E+03  0.12902395908E+03 0.  0.
          5    1    4    4  502    0 -0.12961285845E+02 -0.46065833575E+02 -0.87197692850E+02  0.99577023414E+02  0.47000000000E+01 0. -1.
         -5    1    4    4    0  502  0.33454233433E+02 -0.26963569465E+01  0.33262725662E+02  0.47486366400E+02  0.47000000000E+01 0. -1.
          5    1    5    5  503    0 -0.14611863217E+02 -0.42042796441E+02 -0.54966985504E+01  0.45093314074E+02  0.47000000000E+01 0. -1.
         -5    1    5    5    0  503 -0.58810843720E+01  0.90804986962E+02 -0.58954751668E+02  0.10852596719E+03  0.47000000000E+01 0. -1.
<mgrwt>
<rscale>  0 0.27639596E+03</rscale>
<asrwt>0</asrwt>
<pdfrwt beam="1">  1        2 0.32236084E-01 0.27639596E+03</pdfrwt>
<pdfrwt beam="2">  1       -2 0.14022789E-01 0.27639596E+03</pdfrwt>
<totfact> 0.61551061E+03</totfact>
</mgrwt>
</event>
<event>
 9    1  0.2073852E-002  0.2746410E+03  0.7818608E-02  0.1098652E+00
         -1   -1    0    0    0  501 -0.00000000000E+00  0.00000000000E+00  0.26504947173E+02  0.26504947173E+02  0.00000000000E+00 0.  1.
          1   -1    0    0  501    0  0.00000000000E+00 -0.00000000000E+00 -0.71144914580E+03  0.71144914580E+03  0.00000000000E+00 0.  1.
         36    2    1    2    0    0  0.14210854715E-13 -0.17763568394E-14 -0.68494419862E+03  0.73795409297E+03  0.27464101679E+03 0.  0.
         25    2    3    3    0    0 -0.61502784009E+02 -0.46942069847E+01 -0.38026439200E+03  0.40209562581E+03  0.11521829913E+03 0.  0.
         25    2    3    3    0    0  0.61502784009E+02  0.46942069847E+01 -0.30467980662E+03  0.33585846716E+03  0.12714754176E+03 0.  0.
          5    1    4    4  502    0  0.17513663560E+02 -0.11441860851E+02 -0.10464627645E+02  0.23858814363E+02  0.47000000000E+01 0.  1.
         -5    1    4    4    0  502 -0.79016447569E+02  0.67476538664E+01 -0.36979976435E+03  0.37823681145E+03  0.47000000000E+01 0.  1.
          5    1    5    5  503    0 -0.25754923060E+02 -0.28028010065E+02 -0.15335191342E+03  0.15807525031E+03  0.47000000000E+01 0.  1.
         -5    1    5    5    0  503  0.87257707069E+02  0.32722217049E+02 -0.15132789320E+03  0.17778321684E+03  0.47000000000E+01 0.  1.
<mgrwt>
<rscale>  0 0.27464102E+03</rscale>
<asrwt>0</asrwt>
<pdfrwt beam="1">  1        1 0.10945370E+00 0.27464102E+03</pdfrwt>
<pdfrwt beam="2">  1       -1 0.40776846E-02 0.27464102E+03</pdfrwt>
<totfact> 0.65590532E+03</totfact>
</mgrwt>
</event>
<event>
 9    1  0.2073852E-002  0.2750245E+03  0.7818608E-02  0.1098438E+00
         -2   -1    0    0    0  501 -0.00000000000E+00  0.00000000000E+00  0.47336830594E+02  0.47336830594E+02  0.00000000000E+00 0. -1.
          2   -1    0    0  501    0  0.00000000000E+00 -0.00000000000E+00 -0.39946952450E+03  0.39946952450E+03  0.00000000000E+00 0. -1.
         36    2    1    2    0    0  0.00000000000E+00  0.00000000000E+00 -0.35213269391E+03  0.44680635509E+03  0.27502451679E+03 0.  0.
         25    2    3    3    0    0 -0.32526431035E+02 -0.35351032725E+02 -0.19829851213E+03  0.24323486295E+03  0.13241312023E+03 0.  0.
         25    2    3    3    0    0  0.32526431035E+02  0.35351032725E+02 -0.15383418177E+03  0.20357149215E+03  0.12437336010E+03 0.  0.
          5    1    4    4  502    0  0.38636234912E+02  0.23012324910E+02 -0.41568052741E+02  0.61419205096E+02  0.47000000000E+01 0.  1.
         -5    1    4    4    0  502 -0.71162665947E+02 -0.58363357635E+02 -0.15673045939E+03  0.18181565785E+03  0.47000000000E+01 0.  1.
          5    1    5    5  503    0  0.12520078177E+02  0.64220973844E+02 -0.15479495763E+03  0.16812095273E+03  0.47000000000E+01 0.  1.
         -5    1    5    5    0  503  0.20006352858E+02 -0.28869941119E+02  0.96077585416E+00  0.35450539420E+02  0.47000000000E+01 0.  1.
<mgrwt>
<rscale>  0 0.27502452E+03</rscale>
<asrwt>0</asrwt>
<pdfrwt beam="1">  1        2 0.61456850E-01 0.27502452E+03</pdfrwt>
<pdfrwt beam="2">  1       -2 0.72825893E-02 0.27502452E+03</pdfrwt>
<totfact> 0.87003914E+03</totfact>
</mgrwt>
</event>
<event>
 9    1  0.2073852E-002  0.2737481E+03  0.7818608E-02  0.1099153E+00
          1   -1    0    0  501    0  0.00000000000E+00  0.00000000000E+00  0.22156621459E+04  0.22156621459E+04  0.00000000000E+00 0.  1.
         -1   -1    0    0    0  501 -0.00000000000E+00 -0.00000000000E+00 -0.84554896817E+01  0.84554896817E+01  0.00000000000E+00 0.  1.
         36    2    1    2    0    0  0.00000000000E+00  0.00000000000E+00  0.22072066562E+04  0.22241176356E+04  0.27374812082E+03 0.  0.
         25    2    3    3    0    0  0.10933546604E+02 -0.39514744555E+02  0.14281476320E+04  0.14336274687E+04  0.11832625488E+03 0.  0.
         25    2    3    3    0    0 -0.10933546604E+02  0.39514744555E+02  0.77905902419E+03  0.79049016690E+03  0.12751777651E+03 0.  0.
          5    1    4    4  502    0 -0.10323412613E+02 -0.20242296871E+01  0.12577022664E+04  0.12577550442E+04  0.47000000000E+01 0. -1.
         -5    1    4    4    0  502  0.21256959216E+02 -0.37490514867E+02  0.17044536568E+03  0.17587242451E+03  0.47000000000E+01 0. -1.
          5    1    5    5  503    0 -0.56920000695E+02  0.31612197527E+02  0.22034135579E+03  0.22980779052E+03  0.47000000000E+01 0.  1.
         -5    1    5    5    0  503  0.45986454092E+02  0.79025470275E+01  0.55871766839E+03  0.56068237638E+03  0.47000000000E+01 0.  1.
<mgrwt>
<rscale>  0 0.27374812E+03</rscale>
<asrwt>0</asrwt>
<pdfrwt beam="1">  1        1 0.34087064E+00 0.27374812E+03</pdfrwt>
<pdfrwt beam="2">  1       -1 0.13008463E-02 0.27374812E+03</pdfrwt>
<totfact> 0.31353177E+03</totfact>
</mgrwt>
</event>
<event>
 9    1  0.2073852E-002  0.2752065E+03  0.7818608E-02  0.1098336E+00
         -1   -1    0    0    0  501 -0.00000000000E+00  0.00000000000E+00  0.14728029638E+02  0.14728029638E+02  0.00000000000E+00 0. -1.
          1   -1    0    0  501    0  0.00000000000E+00 -0.00000000000E+00 -0.12856202803E+04  0.12856202803E+04  0.00000000000E+00 0. -1.
         36    2    1    2    0    0  0.00000000000E+00  0.14210854715E-13 -0.12708922507E+04  0.13003483100E+04  0.27520649405E+03 0.  0.
         25    2    3    3    0    0  0.22742002050E+02  0.36091196699E+02 -0.76081066116E+03  0.77286516050E+03  0.12910430300E+03 0.  0.
         25    2    3    3    0    0 -0.22742002050E+02 -0.36091196699E+02 -0.51008158955E+03  0.52748314948E+03  0.12741849101E+03 0.  0.
          5    1    4    4  502    0  0.43364079618E+02  0.66690903217E+02 -0.29506295165E+03  0.30563434920E+03  0.47000000000E+01 0.  1.
         -5    1    4    4    0  502 -0.20622077568E+02 -0.30599706517E+02 -0.46574770951E+03  0.46723081131E+03  0.47000000000E+01 0.  1.
          5    1    5    5  503    0 -0.17492604936E+02 -0.78548360984E+02 -0.22154248762E+03  0.23575198845E+03  0.47000000000E+01 0.  1.
         -5    1    5    5    0  503 -0.52493971138E+01  0.42457164285E+02 -0.28853910194E+03  0.29173116103E+03  0.47000000000E+01 0.  1.
<mgrwt>
<rscale>  0 0.27520649E+03</rscale>
<asrwt>0</asrwt>
<pdfrwt beam="1">  1        1 0.19778780E+00 0.27520649E+03</pdfrwt>
<pdfrwt beam="2">  1       -1 0.22658499E-02 0.27520649E+03</pdfrwt>
<totfact> 0.56990232E+03</totfact>
</mgrwt>
</event>
<event>
 9    1  0.2073852E-002  0.2751425E+03  0.7818608E-02  0.1098372E+00
         -2   -1    0    0    0  501 -0.00000000000E+00  0.00000000000E+00  0.57345534408E+03  0.57345534408E+03  0.00000000000E+00 0.  1.
          2   -1    0    0  501    0  0.00000000000E+00 -0.00000000000E+00 -0.33003184240E+02  0.33003184240E+02  0.00000000000E+00 0.  1.
         36    2    1    2    0    0  0.71054273576E-14  0.71054273576E-14  0.54045215984E+03  0.60645852832E+03  0.27514252579E+03 0.  0.
         25    2    3    3    0    0 -0.57251376960E+02 -0.80759153768E+01  0.34344240860E+03  0.36627948280E+03  0.11342411967E+03 0.  0.
         25    2    3    3    0    0  0.57251376960E+02  0.80759153768E+01  0.19700975124E+03  0.24017904552E+03  0.12462018797E+03 0.  0.
          5    1    4    4  502    0 -0.44743109974E+02  0.47860846817E+02  0.22847575754E+03  0.23773066342E+03  0.47000000000E+01 0.  1.
         -5    1    4    4    0  502 -0.12508266987E+02 -0.55936762194E+02  0.11496665106E+03  0.12854881938E+03  0.47000000000E+01 0.  1.
          5    1    5    5  503    0  0.13340978168E+02  0.52241609922E+02  0.30017901903E+02  0.61889675556E+02  0.47000000000E+01 0. -1.
         -5    1    5    5    0  503  0.43910398792E+02 -0.44165694546E+02  0.16699184934E+03  0.17828936997E+03  0.47000000000E+01 0. -1.
<mgrwt>
<rscale>  0 0.27514253E+03</rscale>
<asrwt>0</asrwt>
<pdfrwt beam="1">  1        2 0.50774134E-02 0.27514253E+03</pdfrwt>
<pdfrwt beam="2">  1       -2 0.88223892E-01 0.27514253E+03</pdfrwt>
<totfact> 0.17594285E+03</totfact>
</mgrwt>
</event>
<event>
 9    1  0.2073852E-002  0.2745122E+03  0.7818608E-02  0.1098725E+00
         -1   -1    0    0    0  501 -0.00000000000E+00  0.00000000000E+00  0.10478025680E+03  0.10478025680E+03  0.00000000000E+00 0. -1.
          1   -1    0    0  501    0  0.00000000000E+00 -0.00000000000E+00 -0.17979764270E+03  0.17979764270E+03  0.00000000000E+00 0. -1.
         36    2    1    2    0    0  0.71054273576E-14 -0.17763568394E-14 -0.75017385904E+02  0.28457789950E+03  0.27451224508E+03 0.  0.
         25    2    3    3    0    0  0.41562968569E+02 -0.11743814497E+02 -0.69153581675E+02  0.14555359356E+03  0.12057459601E+03 0.  0.
         25    2    3    3    0    0 -0.41562968569E+02  0.11743814497E+02 -0.58638042285E+01  0.13902430595E+03  0.13201505940E+03 0.  0.
          5    1    4    4  502    0 -0.41560776829E+02 -0.90123767157E+01 -0.11686593976E+02  0.44352988439E+02  0.47000000000E+01 0. -1.
         -5    1    4    4    0  502  0.83123745398E+02 -0.27314377811E+01 -0.57466987699E+02  0.10120060512E+03  0.47000000000E+01 0. -1.
          5    1    5    5  503    0 -0.47457092737E+02  0.74134623121E+01 -0.64047078260E+02  0.80195095287E+02  0.47000000000E+01 0.  1.
         -5    1    5    5    0  503  0.58941241682E+01  0.43303521847E+01  0.58183274031E+02  0.58829210659E+02  0.47000000000E+01 0.  1.
<mgrwt>
<rscale>  0 0.27451225E+03</rscale>
<asrwt>0</asrwt>
<pdfrwt beam="1">  1        1 0.27661175E-01 0.27451225E+03</pdfrwt>
<pdfrwt beam="2">  1       -1 0.16120040E-01 0.27451225E+03</pdfrwt>
<totfact> 0.47776857E+03</totfact>
</mgrwt>
</event>
<event>
 9    1  0.2073852E-002  0.2748111E+03  0.7818608E-02  0.1098557E+00
         -2   -1    0    0    0  501 -0.00000000000E+00  0.00000000000E+00  0.45938431254E+02  0.45938431254E+02  0.00000000000E+00 0.  1.
          2   -1    0    0  501    0  0.00000000000E+00 -0.00000000000E+00 -0.41099093331E+03  0.41099093331E+03  0.00000000000E+00 0.  1.
         36    2    1    2    0    0 -0.71054273576E-14  0.00000000000E+00 -0.36505250206E+03  0.45692936457E+03  0.27481105317E+03 0.  0.
         25    2    3    3    0    0  0.20762859488E+02 -0.35065033289E+02 -0.20676489026E+03  0.24555391027E+03  0.12603313100E+03 0.  0.
         25    2    3    3    0    0 -0.20762859488E+02  0.35065033289E+02 -0.15828761180E+03  0.21137545430E+03  0.13402970469E+03 0.  0.
          5    1    4    4  502    0  0.18559576180E+02  0.64738426780E+01  0.11539053963E+02  0.23272478883E+02  0.47000000000E+01 0.  1.
         -5    1    4    4    0  502  0.22032833086E+01 -0.41538875967E+02 -0.21830394423E+03  0.22228143138E+03  0.47000000000E+01 0.  1.
          5    1    5    5  503    0 -0.66909293499E+02  0.49741717445E+02 -0.63766813776E+02  0.10506849456E+03  0.47000000000E+01 0.  1.
         -5    1    5    5    0  503  0.46146434011E+02 -0.14676684156E+02 -0.94520798022E+02  0.10630695974E+03  0.47000000000E+01 0.  1.
<mgrwt>
<rscale>  0 0.27481105E+03</rscale>
<asrwt>0</asrwt>
<pdfrwt beam="1">  1        2 0.63229372E-01 0.27481105E+03</pdfrwt>
<pdfrwt beam="2">  1       -2 0.70674513E-02 0.27481105E+03</pdfrwt>
<totfact> 0.88366148E+03</totfact>
</mgrwt>
</event>
<event>
 9    1  0.2073852E-002  0.2753335E+03  0.7818608E-02  0.1098265E+00
         -2   -1    0    0    0  501 -0.00000000000E+00  0.00000000000E+00  0.98484309452E+01  0.98484309452E+01  0.00000000000E+00 0. -1.
          2   -1    0    0  501    0  0.00000000000E+00 -0.00000000000E+00 -0.19243804223E+04  0.19243804223E+04  0.00000000000E+00 0. -1.
         36    2    1    2    0    0  0.00000000000E+00 -0.71054273576E-14 -0.19145319914E+04  0.19342288533E+04  0.27533345385E+03 0.  0.
         25    2    3    3    0    0  0.16022260743E+02  0.32067840013E+02 -0.57518980100E+03  0.58884831555E+03  0.12088826391E+03 0.  0.
         25    2    3    3    0    0 -0.16022260743E+02 -0.32067840013E+02 -0.13393421904E+04  0.13453805377E+04  0.12217294765E+03 0.  0.
          5    1    4    4  502    0 -0.47287692613E+02  0.35952909659E+02 -0.34139548854E+03  0.34655693209E+03  0.47000000000E+01 0. -1.
         -5    1    4    4    0  502  0.63309953356E+02 -0.38850696462E+01 -0.23379431247E+03  0.24229138347E+03  0.47000000000E+01 0. -1.
          5    1    5    5  503    0 -0.38491197864E+02 -0.68266427071E+02 -0.65330837562E+03  0.65800896729E+03  0.47000000000E+01 0.  1.
         -5    1    5    5    0  503  0.22468937121E+02  0.36198587058E+02 -0.68603381476E+03  0.68737157043E+03  0.47000000000E+01 0.  1.
<mgrwt>
<rscale>  0 0.27533345E+03</rscale>
<asrwt>0</asrwt>
<pdfrwt beam="1">  1        2 0.29605872E+00 0.27533345E+03</pdfrwt>
<pdfrwt beam="2">  1       -2 0.15151422E-02 0.27533345E+03</pdfrwt>
<totfact> 0.94656978E+03</totfact>
</mgrwt>
</event>
<event>
 9    1  0.2073852E-002  0.2699185E+03  0.7818608E-02  0.1101326E+00
          2   -1    0    0  501    0  0.00000000000E+00  0.00000000000E+00  0.18558600888E+03  0.18558600888E+03  0.00000000000E+00 0.  1.
         -2   -1    0    0    0  501 -0.00000000000E+00 -0.00000000000E+00 -0.98143196819E+02  0.98143196819E+02  0.00000000000E+00 0.  1.
         36    2    1    2    0    0  0.71054273576E-14  0.00000000000E+00  0.87442812059E+02  0.28372920570E+03  0.26991853731E+03 0.  0.
         25    2    3    3    0    0  0.35718821310E+02 -0.45472533778E+01  0.85379336831E+02  0.15350725261E+03  0.12238600303E+03 0.  0.
         25    2    3    3    0    0 -0.35718821310E+02  0.45472533778E+01  0.20634752280E+01  0.13022195308E+03  0.12512788429E+03 0.  0.
          5    1    4    4  502    0  0.41668157489E+02  0.21438560241E+02 -0.15091345182E+02  0.49453876624E+02  0.47000000000E+01 0. -1.
         -5    1    4    4    0  502 -0.59493361798E+01 -0.25985813619E+02  0.10047068201E+03  0.10405337599E+03  0.47000000000E+01 0. -1.
          5    1    5    5  503    0  0.30179715554E+02  0.20827539942E+02 -0.36550180603E+02  0.51986607440E+02  0.47000000000E+01 0.  1.
         -5    1    5    5    0  503 -0.65898536864E+02 -0.16280286564E+02  0.38613655831E+02  0.78235345644E+02  0.47000000000E+01 0.  1.
<mgrwt>
<rscale>  0 0.26991854E+03</rscale>
<asrwt>0</asrwt>
<pdfrwt beam="1">  1        2 0.28551694E-01 0.26991854E+03</pdfrwt>
<pdfrwt beam="2">  1       -2 0.15098953E-01 0.26991854E+03</pdfrwt>
<totfact> 0.62197663E+03</totfact>
</mgrwt>
</event>
<event>
 9    1  0.2073852E-002  0.2751581E+03  0.7818608E-02  0.1098363E+00
          2   -1    0    0  501    0  0.00000000000E+00  0.00000000000E+00  0.14442064579E+04  0.14442064579E+04  0.00000000000E+00 0. -1.
         -2   -1    0    0    0  501 -0.00000000000E+00 -0.00000000000E+00 -0.13106155859E+02  0.13106155859E+02  0.00000000000E+00 0. -1.
         36    2    1    2    0    0  0.00000000000E+00  0.00000000000E+00  0.14311003021E+04  0.14573126138E+04  0.27515809950E+03 0.  0.
         25    2    3    3    0    0  0.50829286116E+02  0.24209897923E+02  0.49438837743E+03  0.51036646905E+03  0.11350916049E+03 0.  0.
         25    2    3    3    0    0 -0.50829286116E+02 -0.24209897923E+02  0.93671192465E+03  0.94694614474E+03  0.12691743683E+03 0.  0.
          5    1    4    4  502    0 -0.50249053876E+01 -0.11559374571E+02  0.21085046874E+01  0.13616336022E+02  0.47000000000E+01 0. -1.
         -5    1    4    4    0  502  0.55854191504E+02  0.35769272495E+02  0.49227987274E+03  0.49675013303E+03  0.47000000000E+01 0. -1.
          5    1    5    5  503    0 -0.34489950248E+02 -0.57084300709E+02  0.23684333680E+03  0.24609963478E+03  0.47000000000E+01 0. -1.
         -5    1    5    5    0  503 -0.16339335868E+02  0.32874402786E+02  0.69986858785E+03  0.70084650996E+03  0.47000000000E+01 0. -1.
<mgrwt>
<rscale>  0 0.27515810E+03</rscale>
<asrwt>0</asrwt>
<pdfrwt beam="1">  1        2 0.22218548E+00 0.27515810E+03</pdfrwt>
<pdfrwt beam="2">  1       -2 0.20163328E-02 0.27515810E+03</pdfrwt>
<totfact> 0.11167820E+04</totfact>
</mgrwt>
</event>
<event>
 9    1  0.2073852E-002  0.2776101E+03  0.7818608E-02  0.1097001E+00
         -1   -1    0    0    0  501 -0.00000000000E+00  0.00000000000E+00  0.89752270815E+01  0.89752270815E+01  0.00000000000E+00 0. -1.
          1   -1    0    0  501    0  0.00000000000E+00 -0.00000000000E+00 -0.21466697438E+04  0.21466697438E+04  0.00000000000E+00 0. -1.
         36    2    1    2    0    0 -0.71054273576E-14  0.35527136788E-14 -0.21376945167E+04  0.21556449709E+04  0.27761014693E+03 0.  0.
         25    2    3    3    0    0 -0.25692576550E+02 -0.13202151145E+02 -0.13689086942E+04  0.13760254018E+04  0.13674972818E+03 0.  0.
         25    2    3    3    0    0  0.25692576550E+02  0.13202151145E+02 -0.76878582258E+03  0.77961956911E+03  0.12625619292E+03 0.  0.
          5    1    4    4  502    0 -0.75430642984E+02 -0.37295207267E+02 -0.81318948910E+03  0.81754507495E+03  0.47000000000E+01 0.  1.
         -5    1    4    4    0  502  0.49738066434E+02  0.24093056122E+02 -0.55571920506E+03  0.55848032685E+03  0.47000000000E+01 0.  1.
          5    1    5    5  503    0  0.42643358771E+02  0.63000107462E+02 -0.42046805692E+03  0.42732066002E+03  0.47000000000E+01 0.  1.
         -5    1    5    5    0  503 -0.16950782221E+02 -0.49797956318E+02 -0.34831776566E+03  0.35229890909E+03  0.47000000000E+01 0.  1.
<mgrwt>
<rscale>  0 0.27761015E+03</rscale>
<asrwt>0</asrwt>
<pdfrwt beam="1">  1        1 0.33025706E+00 0.27761015E+03</pdfrwt>
<pdfrwt beam="2">  1       -1 0.13808034E-02 0.27761015E+03</pdfrwt>
<totfact> 0.31886464E+03</totfact>
</mgrwt>
</event>
<event>
 9    1  0.2073852E-002  0.2739404E+03  0.7818608E-02  0.1099045E+00
          1   -1    0    0  501    0  0.00000000000E+00  0.00000000000E+00  0.51260972618E+03  0.51260972618E+03  0.00000000000E+00 0.  1.
         -1   -1    0    0    0  501 -0.00000000000E+00 -0.00000000000E+00 -0.36598683060E+02  0.36598683060E+02  0.00000000000E+00 0.  1.
         36    2    1    2    0    0  0.00000000000E+00  0.00000000000E+00  0.47601104312E+03  0.54920840924E+03  0.27394043807E+03 0.  0.
         25    2    3    3    0    0 -0.62994402019E+01  0.56738554207E+02  0.36922056779E+03  0.39484900311E+03  0.12776134428E+03 0.  0.
         25    2    3    3    0    0  0.62994402019E+01 -0.56738554207E+02  0.10679047533E+03  0.15435940613E+03  0.95727081649E+02 0.  0.
          5    1    4    4  502    0 -0.60846552616E+02  0.32210493784E+02  0.11921936762E+03  0.13775037746E+03  0.47000000000E+01 0.  1.
         -5    1    4    4    0  502  0.54547112414E+02  0.24528060424E+02  0.25000120018E+03  0.25709862565E+03  0.47000000000E+01 0.  1.
          5    1    5    5  503    0  0.23570109391E+02 -0.65125173371E+02  0.30985749196E+02  0.76020029706E+02  0.47000000000E+01 0. -1.
         -5    1    5    5    0  503 -0.17270669189E+02  0.83866191633E+01  0.75804726132E+02  0.78339376428E+02  0.47000000000E+01 0. -1.
<mgrwt>
<rscale>  0 0.27394044E+03</rscale>
<asrwt>0</asrwt>
<pdfrwt beam="1">  1        1 0.78863030E-01 0.27394044E+03</pdfrwt>
<pdfrwt beam="2">  1       -1 0.56305670E-02 0.27394044E+03</pdfrwt>
<totfact> 0.63933352E+03</totfact>
</mgrwt>
</event>
<event>
 9    1  0.2073852E-002  0.2777747E+03  0.7818608E-02  0.1096911E+00
         -1   -1    0    0    0  501 -0.00000000000E+00  0.00000000000E+00  0.25114663854E+02  0.25114663854E+02  0.00000000000E+00 0. -1.
          1   -1    0    0  501    0  0.00000000000E+00 -0.00000000000E+00 -0.76806513685E+03  0.76806513685E+03  0.00000000000E+00 0. -1.
         36    2    1    2    0    0  0.00000000000E+00  0.71054273576E-14 -0.74295047300E+03  0.79317980070E+03  0.27777471253E+03 0.  0.
         25    2    3    3    0    0  0.25064587952E+02  0.13601463987E+02 -0.21677423307E+03  0.25190418104E+03  0.12510561503E+03 0.  0.
         25    2    3    3    0    0 -0.25064587952E+02 -0.13601463987E+02 -0.52617623993E+03  0.54127561966E+03  0.12371187326E+03 0.  0.
          5    1    4    4  502    0 -0.43525641501E+02 -0.18694746422E+02 -0.52200443035E+02  0.70646664924E+02  0.47000000000E+01 0.  1.
         -5    1    4    4    0  502  0.68590229453E+02  0.32296210408E+02 -0.16457379004E+03  0.18125751612E+03  0.47000000000E+01 0.  1.
          5    1    5    5  503    0 -0.62163221490E+02  0.29178686292E+02 -0.24919796591E+03  0.25852925957E+03  0.47000000000E+01 0.  1.
         -5    1    5    5    0  503  0.37098633538E+02 -0.42780150278E+02 -0.27697827402E+03  0.28274636009E+03  0.47000000000E+01 0.  1.
<mgrwt>
<rscale>  0 0.27777471E+03</rscale>
<asrwt>0</asrwt>
<pdfrwt beam="1">  1        1 0.11816387E+00 0.27777471E+03</pdfrwt>
<pdfrwt beam="2">  1       -1 0.38637945E-02 0.27777471E+03</pdfrwt>
<totfact> 0.63419267E+03</totfact>
</mgrwt>
</event>
<event>
 9    1  0.2073852E-002  0.2805243E+03  0.7818608E-02  0.1095403E+00
          2   -1    0    0  501    0  0.00000000000E+00  0.00000000000E+00  0.67642949699E+03  0.67642949699E+03  0.00000000000E+00 0.  1.
         -2   -1    0    0    0  501 -0.00000000000E+00 -0.00000000000E+00 -0.29084293058E+02  0.29084293058E+02  0.00000000000E+00 0.  1.
         36    2    1    2    0    0 -0.71054273576E-14 -0.14210854715E-13  0.64734520393E+03  0.70551379004E+03  0.28052432140E+03 0.  0.
         25    2    3    3    0    0 -0.33964485212E+02 -0.40361729679E+02  0.42027913138E+03  0.44106168495E+03  0.12295611484E+03 0.  0.
         25    2    3    3    0    0  0.33964485212E+02  0.40361729679E+02  0.22706607255E+03  0.26445210510E+03  0.12487297189E+03 0.  0.
          5    1    4    4  502    0 -0.25213967420E+02  0.28784032149E+02  0.29596148118E+03  0.29846197916E+03  0.47000000000E+01 0. -1.
         -5    1    4    4    0  502 -0.87505177924E+01 -0.69145761828E+02  0.12431765020E+03  0.14259970579E+03  0.47000000000E+01 0. -1.
          5    1    5    5  503    0  0.51963687922E+02 -0.29158673074E+02  0.13465222831E+03  0.14732197958E+03  0.47000000000E+01 0.  1.
         -5    1    5    5    0  503 -0.17999202710E+02  0.69520402753E+02  0.92413844232E+02  0.11713012551E+03  0.47000000000E+01 0.  1.
<mgrwt>
<rscale>  0 0.28052432E+03</rscale>
<asrwt>0</asrwt>
<pdfrwt beam="1">  1        2 0.10406607E+00 0.28052432E+03</pdfrwt>
<pdfrwt beam="2">  1       -2 0.44745071E-02 0.28052432E+03</pdfrwt>
<totfact> 0.10108934E+04</totfact>
</mgrwt>
</event>
<event>
 9    1  0.2073852E-002  0.2703098E+03  0.7818608E-02  0.1101102E+00
         -1   -1    0    0    0  501 -0.00000000000E+00  0.00000000000E+00  0.90637919815E+01  0.90637919815E+01  0.00000000000E+00 0. -1.
          1   -1    0    0  501    0  0.00000000000E+00 -0.00000000000E+00 -0.20153642264E+04  0.20153642264E+04  0.00000000000E+00 0. -1.
         36    2    1    2    0    0  0.00000000000E+00  0.71054273576E-14 -0.20063004344E+04  0.20244280184E+04  0.27030976390E+03 0.  0.
         25    2    3    3    0    0 -0.71700266229E+01 -0.57840262699E+02 -0.11321852895E+04  0.11401660470E+04  0.12140090520E+03 0.  0.
         25    2    3    3    0    0  0.71700266229E+01  0.57840262699E+02 -0.87411514497E+03  0.88426197140E+03  0.12018752898E+03 0.  0.
          5    1    4    4  502    0  0.53342779138E+02 -0.11515380021E+02 -0.60592377229E+03  0.60839441474E+03  0.47000000000E+01 0.  1.
         -5    1    4    4    0  502 -0.60512805761E+02 -0.46324882679E+02 -0.52626151717E+03  0.53177163225E+03  0.47000000000E+01 0.  1.
          5    1    5    5  503    0 -0.48162726730E+02  0.34222952617E+02 -0.63067335985E+03  0.63345231514E+03  0.47000000000E+01 0.  1.
         -5    1    5    5    0  503  0.55332753353E+02  0.23617310082E+02 -0.24344178513E+03  0.25080965626E+03  0.47000000000E+01 0.  1.
<mgrwt>
<rscale>  0 0.27030976E+03</rscale>
<asrwt>0</asrwt>
<pdfrwt beam="1">  1        1 0.31005592E+00 0.27030976E+03</pdfrwt>
<pdfrwt beam="2">  1       -1 0.13944300E-02 0.27030976E+03</pdfrwt>
<totfact> 0.38271218E+03</totfact>
</mgrwt>
</event>
<event>
 9    1  0.2073852E-002  0.2749176E+03  0.7818608E-02  0.1098498E+00
          1   -1    0    0  501    0  0.00000000000E+00  0.00000000000E+00  0.56427570634E+02  0.56427570634E+02  0.00000000000E+00 0.  1.
         -1   -1    0    0    0  501 -0.00000000000E+00 -0.00000000000E+00 -0.33485275048E+03  0.33485275048E+03  0.00000000000E+00 0.  1.
         36    2    1    2    0    0 -0.71054273576E-14  0.00000000000E+00 -0.27842517985E+03  0.39128032111E+03  0.27491764025E+03 0.  0.
         25    2    3    3    0    0  0.24134726460E+02  0.37891613301E+02 -0.10361332987E+03  0.17340413614E+03  0.13158652257E+03 0.  0.
         25    2    3    3    0    0 -0.24134726460E+02 -0.37891613301E+02 -0.17481184997E+03  0.21787618498E+03  0.12203519864E+03 0.  0.
          5    1    4    4  502    0 -0.45265613627E+02  0.49319226945E+02 -0.38096992165E+02  0.77167562716E+02  0.47000000000E+01 0. -1.
         -5    1    4    4    0  502  0.69400340087E+02 -0.11427613644E+02 -0.65516337707E+02  0.96236573423E+02  0.47000000000E+01 0. -1.
          5    1    5    5  503    0 -0.48602638004E+02 -0.51119246336E+02 -0.17597479072E+03  0.18964337778E+03  0.47000000000E+01 0.  1.
         -5    1    5    5    0  503  0.24467911545E+02  0.13227633035E+02  0.11629407431E+01  0.28232807197E+02  0.47000000000E+01 0.  1.
<mgrwt>
<rscale>  0 0.27491764E+03</rscale>
<asrwt>0</asrwt>
<pdfrwt beam="1">  1        1 0.86811648E-02 0.27491764E+03</pdfrwt>
<pdfrwt beam="2">  1       -1 0.51515807E-01 0.27491764E+03</pdfrwt>
<totfact> 0.30103149E+03</totfact>
</mgrwt>
</event>
<event>
 9    1  0.2073852E-002  0.2757555E+03  0.7818608E-02  0.1098030E+00
         -2   -1    0    0    0  501 -0.00000000000E+00  0.00000000000E+00  0.10352824200E+02  0.10352824200E+02  0.00000000000E+00 0. -1.
          2   -1    0    0  501    0  0.00000000000E+00 -0.00000000000E+00 -0.18362397592E+04  0.18362397592E+04  0.00000000000E+00 0. -1.
         36    2    1    2    0    0  0.71054273576E-14 -0.71054273576E-14 -0.18258869350E+04  0.18465925834E+04  0.27575545264E+03 0.  0.
         25    2    3    3    0    0 -0.23137264734E+02  0.48697974234E+02 -0.10766579833E+04  0.10848435136E+04  0.12159856250E+03 0.  0.
         25    2    3    3    0    0  0.23137264734E+02 -0.48697974234E+02 -0.74922895170E+03  0.76174906975E+03  0.12653377998E+03 0.  0.
          5    1    4    4  502    0 -0.69819029655E+02  0.87776006557E+01 -0.63659150105E+03  0.64048619999E+03  0.47000000000E+01 0. -1.
         -5    1    4    4    0  502  0.46681764921E+02  0.39920373579E+02 -0.44006648221E+03  0.44435731362E+03  0.47000000000E+01 0. -1.
          5    1    5    5  503    0 -0.24696444588E+02 -0.12899186394E+02 -0.34872183251E+02  0.44882764505E+02  0.47000000000E+01 0.  1.
         -5    1    5    5    0  503  0.47833709322E+02 -0.35798787841E+02 -0.71435676845E+03  0.71686630524E+03  0.47000000000E+01 0.  1.
<mgrwt>
<rscale>  0 0.27575545E+03</rscale>
<asrwt>0</asrwt>
<pdfrwt beam="1">  1        2 0.28249839E+00 0.27575545E+03</pdfrwt>
<pdfrwt beam="2">  1       -2 0.15927424E-02 0.27575545E+03</pdfrwt>
<totfact> 0.97875824E+03</totfact>
</mgrwt>
</event>
<event>
 9    1  0.2073852E-002  0.2793083E+03  0.7818608E-02  0.1096067E+00
         -2   -1    0    0    0  501 -0.00000000000E+00  0.00000000000E+00  0.47735886315E+02  0.47735886315E+02  0.00000000000E+00 0.  1.
          2   -1    0    0  501    0  0.00000000000E+00 -0.00000000000E+00 -0.40856654975E+03  0.40856654975E+03  0.00000000000E+00 0.  1.
         36    2    1    2    0    0  0.00000000000E+00  0.00000000000E+00 -0.36083066344E+03  0.45630243607E+03  0.27930833408E+03 0.  0.
         25    2    3    3    0    0  0.52259974300E+02 -0.77511315812E+01 -0.11594842505E+03  0.17768173230E+03  0.12383689179E+03 0.  0.
         25    2    3    3    0    0 -0.52259974300E+02  0.77511315812E+01 -0.24488223839E+03  0.27862070376E+03  0.12194671349E+03 0.  0.
          5    1    4    4  502    0 -0.26971944859E+02  0.34795639610E+02 -0.43922812052E+02  0.62366062597E+02  0.47000000000E+01 0. -1.
         -5    1    4    4    0  502  0.79231919159E+02 -0.42546771192E+02 -0.72025612993E+02  0.11531566970E+03  0.47000000000E+01 0. -1.
          5    1    5    5  503    0 -0.74448848121E+02 -0.34456313848E+02 -0.12578335065E+03  0.15024450024E+03  0.47000000000E+01 0.  1.
         -5    1    5    5    0  503  0.22188873821E+02  0.42207445429E+02 -0.11909888774E+03  0.12837620353E+03  0.47000000000E+01 0.  1.
<mgrwt>
<rscale>  0 0.27930833E+03</rscale>
<asrwt>0</asrwt>
<pdfrwt beam="1">  1        2 0.62856396E-01 0.27930833E+03</pdfrwt>
<pdfrwt beam="2">  1       -2 0.73439821E-02 0.27930833E+03</pdfrwt>
<totfact> 0.83847487E+03</totfact>
</mgrwt>
</event>
<event>
 9    1  0.2073852E-002  0.2773914E+03  0.7818608E-02  0.1097122E+00
          1   -1    0    0  501    0  0.00000000000E+00  0.00000000000E+00  0.75780741757E+03  0.75780741757E+03  0.00000000000E+00 0. -1.
         -1   -1    0    0    0  501 -0.00000000000E+00 -0.00000000000E+00 -0.25384409910E+02  0.25384409910E+02  0.00000000000E+00 0. -1.
         36    2    1    2    0    0  0.00000000000E+00  0.35527136788E-14  0.73242300766E+03  0.78319182748E+03  0.27739137781E+03 0.  0.
         25    2    3    3    0    0  0.17094427005E+02 -0.13095639447E+02  0.34261000760E+03  0.37372317595E+03  0.14772839850E+03 0.  0.
         25    2    3    3    0    0 -0.17094427005E+02  0.13095639447E+02  0.38981300006E+03  0.40946865153E+03  0.12347747312E+03 0.  0.
          5    1    4    4  502    0 -0.44503995345E+02  0.22729558545E+02  0.44178331959E+02  0.66865936380E+02  0.47000000000E+01 0. -1.
         -5    1    4    4    0  502  0.61598422351E+02 -0.35825197992E+02  0.29843167564E+03  0.30685723957E+03  0.47000000000E+01 0. -1.
          5    1    5    5  503    0 -0.62289736867E+02  0.31267291422E+02  0.16134125554E+03  0.17581452037E+03  0.47000000000E+01 0. -1.
         -5    1    5    5    0  503  0.45195309862E+02 -0.18171651974E+02  0.22847174452E+03  0.23365413117E+03  0.47000000000E+01 0. -1.
<mgrwt>
<rscale>  0 0.27739138E+03</rscale>
<asrwt>0</asrwt>
<pdfrwt beam="1">  1        1 0.11658574E+00 0.27739138E+03</pdfrwt>
<pdfrwt beam="2">  1       -1 0.39052944E-02 0.27739138E+03</pdfrwt>
<totfact> 0.63697065E+03</totfact>
</mgrwt>
</event>
<event>
 9    1  0.2073852E-002  0.2744933E+03  0.7818608E-02  0.1098735E+00
          1   -1    0    0  501    0  0.00000000000E+00  0.00000000000E+00  0.17078326372E+03  0.17078326372E+03  0.00000000000E+00 0. -1.
         -1   -1    0    0    0  501 -0.00000000000E+00 -0.00000000000E+00 -0.11029558255E+03  0.11029558255E+03  0.00000000000E+00 0. -1.
         36    2    1    2    0    0  0.14210854715E-13 -0.71054273576E-14  0.60487681172E+02  0.28107884626E+03  0.27449327540E+03 0.  0.
         25    2    3    3    0    0 -0.51325787372E+02  0.18389675984E+02  0.12544479558E+02  0.13723481353E+03  0.12531366025E+03 0.  0.
         25    2    3    3    0    0  0.51325787372E+02 -0.18389675984E+02  0.47943201614E+02  0.14384403273E+03  0.12417744779E+03 0.  0.
          5    1    4    4  502    0 -0.18035537099E+02  0.71452321690E+02  0.68847307963E+01  0.74163362865E+02  0.47000000000E+01 0. -1.
         -5    1    4    4    0  502 -0.33290250273E+02 -0.53062645707E+02  0.56597487617E+01  0.63071450662E+02  0.47000000000E+01 0. -1.
          5    1    5    5  503    0  0.33367507142E+02 -0.65634080421E+02  0.55767361780E+02  0.92484115855E+02  0.47000000000E+01 0. -1.
         -5    1    5    5    0  503  0.17958280230E+02  0.47244404438E+02 -0.78241601664E+01  0.51359916879E+02  0.47000000000E+01 0. -1.
<mgrwt>
<rscale>  0 0.27449328E+03</rscale>
<asrwt>0</asrwt>
<pdfrwt beam="1">  1        1 0.26274348E-01 0.27449328E+03</pdfrwt>
<pdfrwt beam="2">  1       -1 0.16968551E-01 0.27449328E+03</pdfrwt>
<totfact> 0.46981061E+03</totfact>
</mgrwt>
</event>
<event>
 9    1  0.2073852E-002  0.2723190E+03  0.7818608E-02  0.1099960E+00
         -2   -1    0    0    0  501 -0.00000000000E+00  0.00000000000E+00  0.83908731784E+01  0.83908731784E+01  0.00000000000E+00 0.  1.
          2   -1    0    0  501    0  0.00000000000E+00 -0.00000000000E+00 -0.22094739236E+04  0.22094739236E+04  0.00000000000E+00 0.  1.
         36    2    1    2    0    0  0.00000000000E+00 -0.71054273576E-14 -0.22010830504E+04  0.22178647968E+04  0.27231904439E+03 0.  0.
         25    2    3    3    0    0 -0.21265259480E+02 -0.45427261858E+02 -0.11768952945E+04  0.11847304466E+04  0.12644306774E+03 0.  0.
         25    2    3    3    0    0  0.21265259480E+02  0.45427261858E+02 -0.10241877559E+04  0.10331343502E+04  0.12605625279E+03 0.  0.
          5    1    4    4  502    0 -0.72235133051E+02 -0.86685432542E+01 -0.65446202014E+03  0.65851020030E+03  0.47000000000E+01 0. -1.
         -5    1    4    4    0  502  0.50969873571E+02 -0.36758718604E+02 -0.52243327436E+03  0.52622024625E+03  0.47000000000E+01 0. -1.
          5    1    5    5  503    0  0.26823651764E-01 -0.32867483936E+02 -0.61837776845E+03  0.61926846095E+03  0.47000000000E+01 0. -1.
         -5    1    5    5    0  503  0.21238435828E+02  0.78294745794E+02 -0.40580998747E+03  0.41386588927E+03  0.47000000000E+01 0. -1.
<mgrwt>
<rscale>  0 0.27231904E+03</rscale>
<asrwt>0</asrwt>
<pdfrwt beam="1">  1        2 0.33991915E+00 0.27231904E+03</pdfrwt>
<pdfrwt beam="2">  1       -2 0.12909032E-02 0.27231904E+03</pdfrwt>
<totfact> 0.84572383E+03</totfact>
</mgrwt>
</event>
<event>
 9    1  0.2073852E-002  0.2752516E+03  0.7818608E-02  0.1098311E+00
          2   -1    0    0  501    0  0.00000000000E+00  0.00000000000E+00  0.10511035532E+03  0.10511035532E+03  0.00000000000E+00 0.  1.
         -2   -1    0    0    0  501 -0.00000000000E+00 -0.00000000000E+00 -0.18019975029E+03  0.18019975029E+03  0.00000000000E+00 0.  1.
         36    2    1    2    0    0  0.00000000000E+00  0.71054273576E-14 -0.75089394969E+02  0.28531010562E+03  0.27525159242E+03 0.  0.
         25    2    3    3    0    0 -0.62107767872E+02  0.67525209929E+01 -0.13847081092E+02  0.13440886150E+03  0.11819910754E+03 0.  0.
         25    2    3    3    0    0  0.62107767872E+02 -0.67525209929E+01 -0.61242313877E+02  0.15090124412E+03  0.12295362174E+03 0.  0.
          5    1    4    4  502    0 -0.49751035476E+01 -0.27929520895E+02  0.39434207734E+02  0.48805292053E+02  0.47000000000E+01 0. -1.
         -5    1    4    4    0  502 -0.57132664325E+02  0.34682041888E+02 -0.53281288826E+02  0.85603569443E+02  0.47000000000E+01 0. -1.
          5    1    5    5  503    0  0.79217833399E+02 -0.47292372065E+02 -0.50825226018E+02  0.10543873664E+03  0.47000000000E+01 0.  1.
         -5    1    5    5    0  503 -0.17110065526E+02  0.40539851072E+02 -0.10417087859E+02  0.45462507484E+02  0.47000000000E+01 0.  1.
<mgrwt>
<rscale>  0 0.27525159E+03</rscale>
<asrwt>0</asrwt>
<pdfrwt beam="1">  1        2 0.16170824E-01 0.27525159E+03</pdfrwt>
<pdfrwt beam="2">  1       -2 0.27723038E-01 0.27525159E+03</pdfrwt>
<totfact> 0.41824553E+03</totfact>
</mgrwt>
</event>
<event>
 9    1  0.2073852E-002  0.2749345E+03  0.7818608E-02  0.1098488E+00
          2   -1    0    0  501    0  0.00000000000E+00  0.00000000000E+00  0.77166765819E+03  0.77166765819E+03  0.00000000000E+00 0. -1.
         -2   -1    0    0    0  501 -0.00000000000E+00 -0.00000000000E+00 -0.24488837638E+02  0.24488837638E+02  0.00000000000E+00 0. -1.
         36    2    1    2    0    0  0.00000000000E+00  0.00000000000E+00  0.74717882056E+03  0.79615649583E+03  0.27493449396E+03 0.  0.
         25    2    3    3    0    0  0.10768450407E+02  0.23112609531E+02  0.19733614546E+03  0.22966047390E+03  0.11468315799E+03 0.  0.
         25    2    3    3    0    0 -0.10768450407E+02 -0.23112609531E+02  0.54984267510E+03  0.56649602193E+03  0.13394261180E+03 0.  0.
          5    1    4    4  502    0 -0.59968079728E+00  0.69338766404E+02  0.12250633877E+03  0.14084785118E+03  0.47000000000E+01 0. -1.
         -5    1    4    4    0  502  0.11368131204E+02 -0.46226156873E+02  0.74829806689E+02  0.88812622726E+02  0.47000000000E+01 0. -1.
          5    1    5    5  503    0  0.51508176835E+02  0.23775164128E+02  0.27160011045E+03  0.27750146073E+03  0.47000000000E+01 0. -1.
         -5    1    5    5    0  503 -0.62276627242E+02 -0.46887773659E+02  0.27824256465E+03  0.28899456120E+03  0.47000000000E+01 0. -1.
<mgrwt>
<rscale>  0 0.27493449E+03</rscale>
<asrwt>0</asrwt>
<pdfrwt beam="1">  1        2 0.11871808E+00 0.27493449E+03</pdfrwt>
<pdfrwt beam="2">  1       -2 0.37675141E-02 0.27493449E+03</pdfrwt>
<totfact> 0.11135178E+04</totfact>
</mgrwt>
</event>
<event>
 9    1  0.2073852E-002  0.2754047E+03  0.7818608E-02  0.1098226E+00
         -2   -1    0    0    0  501 -0.00000000000E+00  0.00000000000E+00  0.29598252308E+03  0.29598252308E+03  0.00000000000E+00 0.  1.
          2   -1    0    0  501    0  0.00000000000E+00 -0.00000000000E+00 -0.64064401561E+02  0.64064401561E+02  0.00000000000E+00 0.  1.
         36    2    1    2    0    0  0.00000000000E+00  0.35527136788E-14  0.23191812152E+03  0.36004692464E+03  0.27540474371E+03 0.  0.
         25    2    3    3    0    0 -0.56760190452E+02 -0.88098877871E+01  0.85141376793E+02  0.15796572423E+03  0.12001992603E+03 0.  0.
         25    2    3    3    0    0  0.56760190452E+02  0.88098877871E+01  0.14677674473E+03  0.20208120042E+03  0.12646764577E+03 0.  0.
          5    1    4    4  502    0 -0.89269583822E+02  0.17279508174E+02  0.56046789358E+02  0.10691572661E+03  0.47000000000E+01 0.  1.
         -5    1    4    4    0  502  0.32509393370E+02 -0.26089395961E+02  0.29094587434E+02  0.51049997619E+02  0.47000000000E+01 0.  1.
          5    1    5    5  503    0  0.11712620310E+02  0.32125590339E+02  0.14714482418E+03  0.15113877170E+03  0.47000000000E+01 0.  1.
         -5    1    5    5    0  503  0.45047570142E+02 -0.23315702552E+02 -0.36807944865E+00  0.50942428717E+02  0.47000000000E+01 0.  1.
<mgrwt>
<rscale>  0 0.27540474E+03</rscale>
<asrwt>0</asrwt>
<pdfrwt beam="1">  1        2 0.98560620E-02 0.27540474E+03</pdfrwt>
<pdfrwt beam="2">  1       -2 0.45535772E-01 0.27540474E+03</pdfrwt>
<totfact> 0.30080676E+03</totfact>
</mgrwt>
</event>
<event>
 9    1  0.2073852E-002  0.2759908E+03  0.7818608E-02  0.1097899E+00
          1   -1    0    0  501    0  0.00000000000E+00  0.00000000000E+00  0.15509082992E+02  0.15509082992E+02  0.00000000000E+00 0. -1.
         -1   -1    0    0    0  501 -0.00000000000E+00 -0.00000000000E+00 -0.12278439433E+04  0.12278439433E+04  0.00000000000E+00 0. -1.
         36    2    1    2    0    0  0.00000000000E+00  0.35527136788E-14 -0.12123348603E+04  0.12433530263E+04  0.27599082317E+03 0.  0.
         25    2    3    3    0    0  0.17174024087E+02  0.18768875564E+02 -0.87729044664E+03  0.88631452340E+03  0.12356248962E+03 0.  0.
         25    2    3    3    0    0 -0.17174024087E+02 -0.18768875564E+02 -0.33504441369E+03  0.35703850291E+03  0.12072495857E+03 0.  0.
          5    1    4    4  502    0  0.59078728705E+02 -0.21158784833E+02 -0.32956858495E+03  0.33552277500E+03  0.47000000000E+01 0. -1.
         -5    1    4    4    0  502 -0.41904704619E+02  0.39927660397E+02 -0.54772186169E+03  0.55079174840E+03  0.47000000000E+01 0. -1.
          5    1    5    5  503    0 -0.48145161518E+02  0.14048366222E+02 -0.28529921358E+03  0.28971200258E+03  0.47000000000E+01 0.  1.
         -5    1    5    5    0  503  0.30971137431E+02 -0.32817241786E+02 -0.49745200115E+02  0.67326500330E+02  0.47000000000E+01 0.  1.
<mgrwt>
<rscale>  0 0.27599082E+03</rscale>
<asrwt>0</asrwt>
<pdfrwt beam="1">  1        1 0.23860121E-02 0.27599082E+03</pdfrwt>
<pdfrwt beam="2">  1       -1 0.18889912E+00 0.27599082E+03</pdfrwt>
<totfact> 0.93512304E+02</totfact>
</mgrwt>
</event>
<event>
 9    1  0.2073852E-002  0.2775957E+03  0.7818608E-02  0.1097009E+00
          1   -1    0    0  501    0  0.00000000000E+00  0.00000000000E+00  0.14276084114E+03  0.14276084114E+03  0.00000000000E+00 0.  1.
         -1   -1    0    0    0  501 -0.00000000000E+00 -0.00000000000E+00 -0.13494489515E+03  0.13494489515E+03  0.00000000000E+00 0.  1.
         36    2    1    2    0    0  0.35527136788E-14  0.00000000000E+00  0.78159459838E+01  0.27770573629E+03  0.27759572576E+03 0.  0.
         25    2    3    3    0    0 -0.13855832056E+02 -0.52330915527E+02  0.16988386490E+02  0.13797371432E+03  0.12576816674E+03 0.  0.
         25    2    3    3    0    0  0.13855832056E+02  0.52330915527E+02 -0.91724405059E+01  0.13973202198E+03  0.12849278384E+03 0.  0.
          5    1    4    4  502    0  0.50267607083E+01 -0.40174065871E+02 -0.51538417807E+02  0.65707856470E+02  0.47000000000E+01 0. -1.
         -5    1    4    4    0  502 -0.18882592764E+02 -0.12156849656E+02  0.68526804297E+02  0.72265857846E+02  0.47000000000E+01 0. -1.
          5    1    5    5  503    0  0.69052026558E+02  0.35704742190E+02 -0.21081129721E+02  0.80681565533E+02  0.47000000000E+01 0. -1.
         -5    1    5    5    0  503 -0.55196194502E+02  0.16626173337E+02  0.11908689215E+02  0.59050456443E+02  0.47000000000E+01 0. -1.
<mgrwt>
<rscale>  0 0.27759573E+03</rscale>
<asrwt>0</asrwt>
<pdfrwt beam="1">  1        1 0.21963206E-01 0.27759573E+03</pdfrwt>
<pdfrwt beam="2">  1       -1 0.20760753E-01 0.27759573E+03</pdfrwt>
<totfact> 0.42634252E+03</totfact>
</mgrwt>
</event>
<event>
 9    1  0.2073852E-002  0.2745124E+03  0.7818608E-02  0.1098724E+00
          1   -1    0    0  501    0  0.00000000000E+00  0.00000000000E+00  0.24887330571E+04  0.24887330571E+04  0.00000000000E+00 0. -1.
         -1   -1    0    0    0  501 -0.00000000000E+00 -0.00000000000E+00 -0.75698201399E+01  0.75698201399E+01  0.00000000000E+00 0. -1.
         36    2    1    2    0    0  0.00000000000E+00  0.00000000000E+00  0.24811632370E+04  0.24963028772E+04  0.27451237945E+03 0.  0.
         25    2    3    3    0    0 -0.25949027923E+02  0.57870003120E+02  0.13864980520E+04  0.13930309215E+04  0.11889495628E+03 0.  0.
         25    2    3    3    0    0  0.25949027923E+02 -0.57870003120E+02  0.10946651850E+04  0.11032719558E+04  0.12204446706E+03 0.  0.
          5    1    4    4  502    0 -0.36286759964E+01  0.65563942327E+02  0.13298725651E+04  0.13315010053E+04  0.47000000000E+01 0. -1.
         -5    1    4    4    0  502 -0.22320351927E+02 -0.76939392064E+01  0.56625486909E+02  0.61529916125E+02  0.47000000000E+01 0. -1.
          5    1    5    5  503    0 -0.35041015457E+02 -0.86308376318E+01  0.69575777290E+03  0.69670892966E+03  0.47000000000E+01 0.  1.
         -5    1    5    5    0  503  0.60990043380E+02 -0.49239165489E+02  0.39890741206E+03  0.40656302612E+03  0.47000000000E+01 0.  1.
<mgrwt>
<rscale>  0 0.27451238E+03</rscale>
<asrwt>0</asrwt>
<pdfrwt beam="1">  1        1 0.38288136E+00 0.27451238E+03</pdfrwt>
<pdfrwt beam="2">  1       -1 0.11645897E-02 0.27451238E+03</pdfrwt>
<totfact> 0.24332434E+03</totfact>
</mgrwt>
</event>
<event>
 9    1  0.2073852E-002  0.2754855E+03  0.7818608E-02  0.1098181E+00
          3   -1    0    0  501    0  0.00000000000E+00  0.00000000000E+00  0.24642509879E+03  0.24642509879E+03  0.00000000000E+00 0. -1.
         -3   -1    0    0    0  501 -0.00000000000E+00 -0.00000000000E+00 -0.76993219005E+02  0.76993219005E+02  0.00000000000E+00 0. -1.
         36    2    1    2    0    0 -0.14210854715E-13  0.71054273576E-14  0.16943187979E+03  0.32341831780E+03  0.27548547402E+03 0.  0.
         25    2    3    3    0    0  0.35433774775E+02 -0.54708141266E+02  0.85462732896E+02  0.16316859851E+03  0.12276636229E+03 0.  0.
         25    2    3    3    0    0 -0.35433774775E+02  0.54708141266E+02  0.83969146890E+02  0.16024971929E+03  0.11991923026E+03 0.  0.
          5    1    4    4  502    0  0.68856358863E+02 -0.12391556357E+01  0.19354625358E+02  0.71689784386E+02  0.47000000000E+01 0.  1.
         -5    1    4    4    0  502 -0.33422584088E+02 -0.53468985631E+02  0.66108107538E+02  0.91478814125E+02  0.47000000000E+01 0.  1.
          5    1    5    5  503    0  0.10421160759E+02 -0.29899537613E+02  0.47394379417E+02  0.57191783862E+02  0.47000000000E+01 0. -1.
         -5    1    5    5    0  503 -0.45854935534E+02  0.84607678879E+02  0.36574767473E+02  0.10305793542E+03  0.47000000000E+01 0. -1.
<mgrwt>
<rscale>  0 0.27548547E+03</rscale>
<asrwt>0</asrwt>
<pdfrwt beam="1">  1        3 0.37911553E-01 0.27548547E+03</pdfrwt>
<pdfrwt beam="2">  1       -3 0.11845111E-01 0.27548547E+03</pdfrwt>
<totfact> 0.97336192E+02</totfact>
</mgrwt>
</event>
<event>
 9    1  0.2073852E-002  0.2750971E+03  0.7818608E-02  0.1098397E+00
          1   -1    0    0  501    0  0.00000000000E+00  0.00000000000E+00  0.84477362468E+03  0.84477362468E+03  0.00000000000E+00 0. -1.
         -1   -1    0    0    0  501 -0.00000000000E+00 -0.00000000000E+00 -0.22396067940E+02  0.22396067940E+02  0.00000000000E+00 0. -1.
         36    2    1    2    0    0  0.35527136788E-14  0.71054273576E-14  0.82237755674E+03  0.86716969262E+03  0.27509712825E+03 0.  0.
         25    2    3    3    0    0 -0.17286016838E+02 -0.33760011119E+02  0.25441575205E+03  0.28442078295E+03  0.12136417161E+03 0.  0.
         25    2    3    3    0    0  0.17286016838E+02  0.33760011119E+02  0.56796180468E+03  0.58274890967E+03  0.12480839481E+03 0.  0.
          5    1    4    4  502    0 -0.32546525719E+02 -0.65705435929E+02  0.90061485747E+02  0.11623098495E+03  0.47000000000E+01 0. -1.
         -5    1    4    4    0  502  0.15260508882E+02  0.31945424810E+02  0.16435426631E+03  0.16818979800E+03  0.47000000000E+01 0. -1.
          5    1    5    5  503    0 -0.15013090470E+02  0.95226372996E+01  0.51804565847E+03  0.51837193960E+03  0.47000000000E+01 0.  1.
         -5    1    5    5    0  503  0.32299107307E+02  0.24237373819E+02  0.49916146210E+02  0.64376970067E+02  0.47000000000E+01 0.  1.
<mgrwt>
<rscale>  0 0.27509713E+03</rscale>
<asrwt>0</asrwt>
<pdfrwt beam="1">  1        1 0.12996515E+00 0.27509713E+03</pdfrwt>
<pdfrwt beam="2">  1       -1 0.34455496E-02 0.27509713E+03</pdfrwt>
<totfact> 0.64868747E+03</totfact>
</mgrwt>
</event>
<event>
 9    1  0.2073852E-002  0.2746344E+03  0.7818608E-02  0.1098656E+00
         -2   -1    0    0    0  501 -0.00000000000E+00  0.00000000000E+00  0.18231059840E+02  0.18231059840E+02  0.00000000000E+00 0.  1.
          2   -1    0    0  501    0  0.00000000000E+00 -0.00000000000E+00 -0.10342797934E+04  0.10342797934E+04  0.00000000000E+00 0.  1.
         36    2    1    2    0    0  0.00000000000E+00 -0.17763568394E-14 -0.10160487336E+04  0.10525108533E+04  0.27463442468E+03 0.  0.
         25    2    3    3    0    0  0.16289788150E+02  0.63093975047E+01 -0.29434944592E+03  0.31918304924E+03  0.12219270400E+03 0.  0.
         25    2    3    3    0    0 -0.16289788150E+02 -0.63093975047E+01 -0.72169928769E+03  0.73332780405E+03  0.12889779148E+03 0.  0.
          5    1    4    4  502    0  0.70159937170E+01  0.19552309833E+02  0.28669654892E+01  0.21490148412E+02  0.47000000000E+01 0. -1.
         -5    1    4    4    0  502  0.92737944332E+01 -0.13242912329E+02 -0.29721641141E+03  0.29769290083E+03  0.47000000000E+01 0. -1.
          5    1    5    5  503    0  0.21395832022E+02  0.11184289690E+02 -0.64896878404E+03  0.64943471006E+03  0.47000000000E+01 0. -1.
         -5    1    5    5    0  503 -0.37685620172E+02 -0.17493687195E+02 -0.72730503643E+02  0.83893093993E+02  0.47000000000E+01 0. -1.
<mgrwt>
<rscale>  0 0.27463442E+03</rscale>
<asrwt>0</asrwt>
<pdfrwt beam="1">  1        2 0.15912002E+00 0.27463442E+03</pdfrwt>
<pdfrwt beam="2">  1       -2 0.28047776E-02 0.27463442E+03</pdfrwt>
<totfact> 0.11688086E+04</totfact>
</mgrwt>
</event>
<event>
 9    1  0.2073852E-002  0.2726033E+03  0.7818608E-02  0.1099799E+00
         -2   -1    0    0    0  501 -0.00000000000E+00  0.00000000000E+00  0.26563804093E+02  0.26563804093E+02  0.00000000000E+00 0.  1.
          2   -1    0    0  501    0  0.00000000000E+00 -0.00000000000E+00 -0.69937786790E+03  0.69937786790E+03  0.00000000000E+00 0.  1.
         36    2    1    2    0    0  0.00000000000E+00  0.00000000000E+00 -0.67281406381E+03  0.72594167200E+03  0.27260327709E+03 0.  0.
         25    2    3    3    0    0  0.94633423997E+01  0.34158984405E+02 -0.19644604497E+03  0.23684026381E+03  0.12745929119E+03 0.  0.
         25    2    3    3    0    0 -0.94633423997E+01 -0.34158984405E+02 -0.47636801884E+03  0.48910140819E+03  0.10505858867E+03 0.  0.
          5    1    4    4  502    0  0.59008867341E+02 -0.11051080078E+02 -0.12489873458E+03  0.13865769612E+03  0.47000000000E+01 0. -1.
         -5    1    4    4    0  502 -0.49545524941E+02  0.45210064483E+02 -0.71547310395E+02  0.98182567684E+02  0.47000000000E+01 0. -1.
          5    1    5    5  503    0  0.39899725586E+02  0.25399941980E+01 -0.10150222860E+03  0.10919355330E+03  0.47000000000E+01 0.  1.
         -5    1    5    5    0  503 -0.49363067985E+02 -0.36698978603E+02 -0.37486579024E+03  0.37990785488E+03  0.47000000000E+01 0.  1.
<mgrwt>
<rscale>  0 0.27260328E+03</rscale>
<asrwt>0</asrwt>
<pdfrwt beam="1">  1        2 0.10759660E+00 0.27260328E+03</pdfrwt>
<pdfrwt beam="2">  1       -2 0.40867388E-02 0.27260328E+03</pdfrwt>
<totfact> 0.11121522E+04</totfact>
</mgrwt>
</event>
<event>
 9    1  0.2073852E-002  0.2750278E+03  0.7818608E-02  0.1098436E+00
          1   -1    0    0  501    0  0.00000000000E+00  0.00000000000E+00  0.55541560802E+03  0.55541560802E+03  0.00000000000E+00 0.  1.
         -1   -1    0    0    0  501 -0.00000000000E+00 -0.00000000000E+00 -0.34046716382E+02  0.34046716382E+02  0.00000000000E+00 0.  1.
         36    2    1    2    0    0  0.00000000000E+00 -0.71054273576E-14  0.52136889163E+03  0.58946232440E+03  0.27502783627E+03 0.  0.
         25    2    3    3    0    0  0.31921156116E+02 -0.32974178635E+02  0.33762933921E+03  0.36263842235E+03  0.12412412340E+03 0.  0.
         25    2    3    3    0    0 -0.31921156116E+02  0.32974178635E+02  0.18373955243E+03  0.22682390205E+03  0.12483029580E+03 0.  0.
          5    1    4    4  502    0  0.61358221391E+02 -0.19875439237E+02  0.31823533874E+03  0.32473941129E+03  0.47000000000E+01 0.  1.
         -5    1    4    4    0  502 -0.29437065274E+02 -0.13098739398E+02  0.19394000461E+02  0.37899011064E+02  0.47000000000E+01 0.  1.
          5    1    5    5  503    0 -0.10657035630E+02  0.60548551597E+02  0.28986919124E+02  0.68132451807E+02  0.47000000000E+01 0. -1.
         -5    1    5    5    0  503 -0.21264120487E+02 -0.27574372962E+02  0.15475263331E+03  0.15869145024E+03  0.47000000000E+01 0. -1.
<mgrwt>
<rscale>  0 0.27502784E+03</rscale>
<asrwt>0</asrwt>
<pdfrwt beam="1">  1        1 0.85448549E-01 0.27502784E+03</pdfrwt>
<pdfrwt beam="2">  1       -1 0.52379568E-02 0.27502784E+03</pdfrwt>
<totfact> 0.63973888E+03</totfact>
</mgrwt>
</event>
<event>
 9    1  0.2073852E-002  0.2748611E+03  0.7818608E-02  0.1098529E+00
          2   -1    0    0  501    0  0.00000000000E+00  0.00000000000E+00  0.30511062647E+04  0.30511062647E+04  0.00000000000E+00 0. -1.
         -2   -1    0    0    0  501 -0.00000000000E+00 -0.00000000000E+00 -0.61902652958E+01  0.61902652958E+01  0.00000000000E+00 0. -1.
         36    2    1    2    0    0 -0.35527136788E-14 -0.71054273576E-14  0.30449159994E+04  0.30572965300E+04  0.27486110838E+03 0.  0.
         25    2    3    3    0    0  0.28696190697E+02  0.41800875538E+02  0.12869886402E+04  0.12942083133E+04  0.12674625690E+03 0.  0.
         25    2    3    3    0    0 -0.28696190697E+02 -0.41800875538E+02  0.17579273592E+04  0.17630882167E+04  0.12490266241E+03 0.  0.
          5    1    4    4  502    0  0.43190419253E+01  0.78008893483E+02  0.10678953022E+04  0.10707597807E+04  0.47000000000E+01 0. -1.
         -5    1    4    4    0  502  0.24377148771E+02 -0.36208017944E+02  0.21909333803E+03  0.22344853259E+03  0.47000000000E+01 0. -1.
          5    1    5    5  503    0  0.17815948714E+01 -0.73445051800E+02  0.14648654731E+04  0.14667141146E+04  0.47000000000E+01 0.  1.
         -5    1    5    5    0  503 -0.30477785568E+02  0.31644176262E+02  0.29306188616E+03  0.29637410215E+03  0.47000000000E+01 0.  1.
<mgrwt>
<rscale>  0 0.27486111E+03</rscale>
<asrwt>0</asrwt>
<pdfrwt beam="1">  1        2 0.46939976E+00 0.27486111E+03</pdfrwt>
<pdfrwt beam="2">  1       -2 0.95235094E-03 0.27486111E+03</pdfrwt>
<totfact> 0.44461645E+03</totfact>
</mgrwt>
</event>
<event>
 9    1  0.2073852E-002  0.2744139E+03  0.7818608E-02  0.1098780E+00
         -3   -1    0    0    0  501 -0.00000000000E+00  0.00000000000E+00  0.29807923047E+03  0.29807923047E+03  0.00000000000E+00 0.  1.
          3   -1    0    0  501    0  0.00000000000E+00 -0.00000000000E+00 -0.63156847935E+02  0.63156847935E+02  0.00000000000E+00 0.  1.
         36    2    1    2    0    0  0.71054273576E-14 -0.71054273576E-14  0.23492238254E+03  0.36123607841E+03  0.27441388180E+03 0.  0.
         25    2    3    3    0    0  0.53830498420E+02 -0.20932852507E+02  0.10754139504E+03  0.17469462885E+03  0.12496861537E+03 0.  0.
         25    2    3    3    0    0 -0.53830498420E+02  0.20932852507E+02  0.12738098750E+03  0.18654144956E+03  0.12343374560E+03 0.  0.
          5    1    4    4  502    0 -0.62106480968E+01  0.19800235218E+02  0.99263863654E+02  0.10151859973E+03  0.47000000000E+01 0.  1.
         -5    1    4    4    0  502  0.60041146517E+02 -0.40733087725E+02  0.82775313838E+01  0.73176029111E+02  0.47000000000E+01 0.  1.
          5    1    5    5  503    0 -0.55935326223E+02  0.43434115662E+02  0.14232713869E+03  0.15904209359E+03  0.47000000000E+01 0.  1.
         -5    1    5    5    0  503  0.21048278033E+01 -0.22501263155E+02 -0.14946151194E+02  0.27499355977E+02  0.47000000000E+01 0.  1.
<mgrwt>
<rscale>  0 0.27441388E+03</rscale>
<asrwt>0</asrwt>
<pdfrwt beam="1">  1        3 0.97164383E-02 0.27441388E+03</pdfrwt>
<pdfrwt beam="2">  1       -3 0.45858342E-01 0.27441388E+03</pdfrwt>
<totfact> 0.93420797E+02</totfact>
</mgrwt>
</event>
<event>
 9    1  0.2073852E-002  0.2773220E+03  0.7818608E-02  0.1097161E+00
          2   -1    0    0  501    0  0.00000000000E+00  0.00000000000E+00  0.14389707339E+03  0.14389707339E+03  0.00000000000E+00 0.  1.
         -2   -1    0    0    0  501 -0.00000000000E+00 -0.00000000000E+00 -0.13361541195E+03  0.13361541195E+03  0.00000000000E+00 0.  1.
         36    2    1    2    0    0 -0.14210854715E-13 -0.71054273576E-14  0.10281661442E+02  0.27751248534E+03  0.27732195542E+03 0.  0.
         25    2    3    3    0    0  0.59359598804E+02  0.18118717111E+02  0.50430090627E+01  0.13854254311E+03  0.12376087602E+03 0.  0.
         25    2    3    3    0    0 -0.59359598804E+02 -0.18118717111E+02  0.52386523793E+01  0.13896994222E+03  0.12423104074E+03 0.  0.
          5    1    4    4  502    0 -0.36287311349E+02 -0.56689589689E+01  0.13724723363E+02  0.39488784384E+02  0.47000000000E+01 0. -1.
         -5    1    4    4    0  502  0.95646910154E+02  0.23787676080E+02 -0.86817143002E+01  0.99053758729E+02  0.47000000000E+01 0. -1.
          5    1    5    5  503    0 -0.17897903208E+02  0.34856566016E+02 -0.41231154976E+02  0.57073752937E+02  0.47000000000E+01 0. -1.
         -5    1    5    5    0  503 -0.41461695596E+02 -0.52975283127E+02  0.46469807356E+02  0.81896189287E+02  0.47000000000E+01 0. -1.
<mgrwt>
<rscale>  0 0.27732196E+03</rscale>
<asrwt>0</asrwt>
<pdfrwt beam="1">  1        2 0.22138011E-01 0.27732196E+03</pdfrwt>
<pdfrwt beam="2">  1       -2 0.20556217E-01 0.27732196E+03</pdfrwt>
<totfact> 0.49205833E+03</totfact>
</mgrwt>
</event>
<event>
 9    1  0.2073852E-002  0.2748226E+03  0.7818608E-02  0.1098551E+00
          2   -1    0    0  501    0  0.00000000000E+00  0.00000000000E+00  0.80790311847E+03  0.80790311847E+03  0.00000000000E+00 0. -1.
         -2   -1    0    0    0  501 -0.00000000000E+00 -0.00000000000E+00 -0.23371455917E+02  0.23371455917E+02  0.00000000000E+00 0. -1.
         36    2    1    2    0    0  0.00000000000E+00 -0.10658141036E-13  0.78453166255E+03  0.83127457439E+03  0.27482264913E+03 0.  0.
         25    2    3    3    0    0 -0.44291356589E+02 -0.27315812810E+02  0.45420519213E+03  0.47437021911E+03  0.12655777463E+03 0.  0.
         25    2    3    3    0    0  0.44291356589E+02  0.27315812810E+02  0.33032647042E+03  0.35690435528E+03  0.12472876115E+03 0.  0.
          5    1    4    4  502    0 -0.34047688151E+02 -0.67814032892E+02  0.39192376336E+03  0.39922965122E+03  0.47000000000E+01 0. -1.
         -5    1    4    4    0  502 -0.10243668439E+02  0.40498220083E+02  0.62281428773E+02  0.75140567891E+02  0.47000000000E+01 0. -1.
          5    1    5    5  503    0 -0.17357997800E+01 -0.20382743353E+02  0.10781497538E+01  0.21017174747E+02  0.47000000000E+01 0.  1.
         -5    1    5    5    0  503  0.46027156369E+02  0.47698556163E+02  0.32924832066E+03  0.33588718053E+03  0.47000000000E+01 0.  1.
<mgrwt>
<rscale>  0 0.27482265E+03</rscale>
<asrwt>0</asrwt>
<pdfrwt beam="1">  1        2 0.12429277E+00 0.27482265E+03</pdfrwt>
<pdfrwt beam="2">  1       -2 0.35956092E-02 0.27482265E+03</pdfrwt>
<totfact> 0.11268287E+04</totfact>
</mgrwt>
</event>
<event>
 9    1  0.2073852E-002  0.2742738E+03  0.7818608E-02  0.1098858E+00
          1   -1    0    0  501    0  0.00000000000E+00  0.00000000000E+00  0.84843991226E+03  0.84843991226E+03  0.00000000000E+00 0. -1.
         -1   -1    0    0    0  501 -0.00000000000E+00 -0.00000000000E+00 -0.22166012789E+02  0.22166012789E+02  0.00000000000E+00 0. -1.
         36    2    1    2    0    0 -0.71054273576E-14  0.00000000000E+00  0.82627389947E+03  0.87060592505E+03  0.27427380441E+03 0.  0.
         25    2    3    3    0    0  0.61465816247E+02  0.40589531949E+02  0.30014580696E+03  0.33194404519E+03  0.12113540783E+03 0.  0.
         25    2    3    3    0    0 -0.61465816247E+02 -0.40589531949E+02  0.52612809251E+03  0.53866187986E+03  0.88996035942E+02 0.  0.
          5    1    4    4  502    0  0.26196415553E+02  0.71091748115E+02  0.95468373825E+02  0.12196962425E+03  0.47000000000E+01 0.  1.
         -5    1    4    4    0  502  0.35269400693E+02 -0.30502216166E+02  0.20467743314E+03  0.20997442095E+03  0.47000000000E+01 0.  1.
          5    1    5    5  503    0 -0.25732098693E+02 -0.65936473438E+02  0.34896556170E+03  0.35610225032E+03  0.47000000000E+01 0. -1.
         -5    1    5    5    0  503 -0.35733717554E+02  0.25346941488E+02  0.17716253081E+03  0.18255962954E+03  0.47000000000E+01 0. -1.
<mgrwt>
<rscale>  0 0.27427380E+03</rscale>
<asrwt>0</asrwt>
<pdfrwt beam="1">  1        1 0.13052919E+00 0.27427380E+03</pdfrwt>
<pdfrwt beam="2">  1       -1 0.34101565E-02 0.27427380E+03</pdfrwt>
<totfact> 0.65414182E+03</totfact>
</mgrwt>
</event>
<event>
 9    1  0.2073852E-002  0.2754835E+03  0.7818608E-02  0.1098182E+00
          2   -1    0    0  501    0  0.00000000000E+00  0.00000000000E+00  0.22890182713E+02  0.22890182713E+02  0.00000000000E+00 0. -1.
         -2   -1    0    0    0  501 -0.00000000000E+00 -0.00000000000E+00 -0.82886139291E+03  0.82886139291E+03  0.00000000000E+00 0. -1.
         36    2    1    2    0    0  0.71054273576E-14  0.71054273576E-14 -0.80597121020E+03  0.85175157562E+03  0.27548349299E+03 0.  0.
         25    2    3    3    0    0 -0.41595621686E+02 -0.28136916605E+02 -0.40155490194E+03  0.42551249322E+03  0.13150156195E+03 0.  0.
         25    2    3    3    0    0  0.41595621686E+02  0.28136916605E+02 -0.40441630826E+03  0.42623908240E+03  0.12492126786E+03 0.  0.
          5    1    4    4  502    0  0.23799017882E+02 -0.62226824738E+02 -0.19778967308E+03  0.20876162422E+03  0.47000000000E+01 0.  1.
         -5    1    4    4    0  502 -0.65394639569E+02  0.34089908134E+02 -0.20376522886E+03  0.21675086900E+03  0.47000000000E+01 0.  1.
          5    1    5    5  503    0 -0.15370440713E+02 -0.35739021001E+02 -0.21203686779E+03  0.21562757563E+03  0.47000000000E+01 0.  1.
         -5    1    5    5    0  503  0.56966062399E+02  0.63875937605E+02 -0.19237944046E+03  0.21061150677E+03  0.47000000000E+01 0.  1.
<mgrwt>
<rscale>  0 0.27548349E+03</rscale>
<asrwt>0</asrwt>
<pdfrwt beam="1">  1        2 0.35215667E-02 0.27548349E+03</pdfrwt>
<pdfrwt beam="2">  1       -2 0.12751713E+00 0.27548349E+03</pdfrwt>
<totfact> 0.12044551E+03</totfact>
</mgrwt>
</event>
<event>
 9    1  0.2073852E-002  0.2748671E+03  0.7818608E-02  0.1098526E+00
         -2   -1    0    0    0  501 -0.00000000000E+00  0.00000000000E+00  0.38419688796E+02  0.38419688796E+02  0.00000000000E+00 0.  1.
          2   -1    0    0  501    0  0.00000000000E+00 -0.00000000000E+00 -0.49162251056E+03  0.49162251056E+03  0.00000000000E+00 0.  1.
         36    2    1    2    0    0  0.00000000000E+00  0.00000000000E+00 -0.45320282176E+03  0.53004219935E+03  0.27486712325E+03 0.  0.
         25    2    3    3    0    0  0.35729706416E+02 -0.52278527845E+02 -0.21115834759E+03  0.25143854464E+03  0.12092906011E+03 0.  0.
         25    2    3    3    0    0 -0.35729706416E+02  0.52278527845E+02 -0.24204447418E+03  0.27860365472E+03  0.12257574209E+03 0.  0.
          5    1    4    4  502    0  0.22441396163E+02  0.13451269900E+02  0.32109428399E+01  0.26775979489E+02  0.47000000000E+01 0. -1.
         -5    1    4    4    0  502  0.13288310253E+02 -0.65729797744E+02 -0.21436929043E+03  0.22466256515E+03  0.47000000000E+01 0. -1.
          5    1    5    5  503    0 -0.75727075913E+02  0.23690884494E+02 -0.19421969726E+03  0.20985525687E+03  0.47000000000E+01 0. -1.
         -5    1    5    5    0  503  0.39997369497E+02  0.28587643350E+02 -0.47824776920E+02  0.68748397846E+02  0.47000000000E+01 0. -1.
<mgrwt>
<rscale>  0 0.27486712E+03</rscale>
<asrwt>0</asrwt>
<pdfrwt beam="1">  1        2 0.75634227E-01 0.27486712E+03</pdfrwt>
<pdfrwt beam="2">  1       -2 0.59107218E-02 0.27486712E+03</pdfrwt>
<totfact> 0.95546233E+03</totfact>
</mgrwt>
</event>
<event>
 9    1  0.2073852E-002  0.2758095E+03  0.7818608E-02  0.1098000E+00
          1   -1    0    0  501    0  0.00000000000E+00  0.00000000000E+00  0.46595629944E+03  0.46595629944E+03  0.00000000000E+00 0. -1.
         -1   -1    0    0    0  501 -0.00000000000E+00 -0.00000000000E+00 -0.40814388379E+02  0.40814388379E+02  0.00000000000E+00 0. -1.
         36    2    1    2    0    0 -0.35527136788E-14  0.00000000000E+00  0.42514191106E+03  0.50677068782E+03  0.27580950943E+03 0.  0.
         25    2    3    3    0    0  0.12838886947E+02  0.44928875514E+02  0.17277246101E+03  0.22219514270E+03  0.13166972803E+03 0.  0.
         25    2    3    3    0    0 -0.12838886947E+02 -0.44928875514E+02  0.25236945005E+03  0.28457554512E+03  0.12292054626E+03 0.  0.
          5    1    4    4  502    0 -0.15117222338E+02 -0.21614200218E+02  0.14043115499E+03  0.14296399320E+03  0.47000000000E+01 0. -1.
         -5    1    4    4    0  502  0.27956109285E+02  0.66543075731E+02  0.32341306028E+02  0.79231149492E+02  0.47000000000E+01 0. -1.
          5    1    5    5  503    0 -0.61823936988E+02 -0.51484654929E+02  0.13644772919E+03  0.15847063349E+03  0.47000000000E+01 0. -1.
         -5    1    5    5    0  503  0.48985050041E+02  0.65557794149E+01  0.11592172086E+03  0.12610491163E+03  0.47000000000E+01 0. -1.
<mgrwt>
<rscale>  0 0.27580951E+03</rscale>
<asrwt>0</asrwt>
<pdfrwt beam="1">  1        1 0.71685581E-01 0.27580951E+03</pdfrwt>
<pdfrwt beam="2">  1       -1 0.62791370E-02 0.27580951E+03</pdfrwt>
<totfact> 0.61553296E+03</totfact>
</mgrwt>
</event>
<event>
 9    1  0.2073852E-002  0.2755547E+03  0.7818608E-02  0.1098142E+00
          1   -1    0    0  501    0  0.00000000000E+00  0.00000000000E+00  0.14050908071E+04  0.14050908071E+04  0.00000000000E+00 0.  1.
         -1   -1    0    0    0  501 -0.00000000000E+00 -0.00000000000E+00 -0.13509871389E+02  0.13509871389E+02  0.00000000000E+00 0.  1.
         36    2    1    2    0    0  0.35527136788E-14  0.00000000000E+00  0.13915809357E+04  0.14186006785E+04  0.27555468491E+03 0.  0.
         25    2    3    3    0    0 -0.23169320899E+02 -0.53861466618E+02  0.55129464984E+03  0.56797977824E+03  0.12343971209E+03 0.  0.
         25    2    3    3    0    0  0.23169320899E+02  0.53861466618E+02  0.84028628589E+03  0.85062090027E+03  0.11847784060E+03 0.  0.
          5    1    4    4  502    0 -0.63390195706E+02  0.14571570491E+01  0.33833260758E+03  0.34425496884E+03  0.47000000000E+01 0. -1.
         -5    1    4    4    0  502  0.40220874807E+02 -0.55318623667E+02  0.21296204226E+03  0.22372480940E+03  0.47000000000E+01 0. -1.
          5    1    5    5  503    0  0.41254120521E+02  0.75678665998E+02  0.76800664005E+03  0.77284244973E+03  0.47000000000E+01 0. -1.
         -5    1    5    5    0  503 -0.18084799622E+02 -0.21817199380E+02  0.72279645835E+02  0.77778450539E+02  0.47000000000E+01 0. -1.
<mgrwt>
<rscale>  0 0.27555468E+03</rscale>
<asrwt>0</asrwt>
<pdfrwt beam="1">  1        1 0.21616770E+00 0.27555468E+03</pdfrwt>
<pdfrwt beam="2">  1       -1 0.20784429E-02 0.27555468E+03</pdfrwt>
<totfact> 0.53667744E+03</totfact>
</mgrwt>
</event>
<event>
 9    1  0.2073852E-002  0.2746453E+03  0.7818608E-02  0.1098650E+00
         -2   -1    0    0    0  501 -0.00000000000E+00  0.00000000000E+00  0.97700595905E+01  0.97700595905E+01  0.00000000000E+00 0.  1.
          2   -1    0    0  501    0  0.00000000000E+00 -0.00000000000E+00 -0.19301326057E+04  0.19301326057E+04  0.00000000000E+00 0.  1.
         36    2    1    2    0    0  0.00000000000E+00  0.14210854715E-13 -0.19203625461E+04  0.19399026653E+04  0.27464530271E+03 0.  0.
         25    2    3    3    0    0  0.13604219123E+02  0.57736253831E+02 -0.98298892688E+03  0.99257386216E+03  0.12416558173E+03 0.  0.
         25    2    3    3    0    0 -0.13604219123E+02 -0.57736253831E+02 -0.93737361922E+03  0.94732880313E+03  0.12346663287E+03 0.  0.
          5    1    4    4  502    0  0.20489952743E+02  0.36522800743E+01 -0.24355869879E+02  0.32380174655E+02  0.47000000000E+01 0. -1.
         -5    1    4    4    0  502 -0.68857336200E+01  0.54083973757E+02 -0.95863305700E+03  0.96019368750E+03  0.47000000000E+01 0. -1.
          5    1    5    5  503    0 -0.26784085497E+02  0.13960969020E+02 -0.65324561271E+03  0.65396040890E+03  0.47000000000E+01 0. -1.
         -5    1    5    5    0  503  0.13179866374E+02 -0.71697222852E+02 -0.28412800652E+03  0.29336839422E+03  0.47000000000E+01 0. -1.
<mgrwt>
<rscale>  0 0.27464530E+03</rscale>
<asrwt>0</asrwt>
<pdfrwt beam="1">  1        2 0.29694326E+00 0.27464530E+03</pdfrwt>
<pdfrwt beam="2">  1       -2 0.15030872E-02 0.27464530E+03</pdfrwt>
<totfact> 0.95103535E+03</totfact>
</mgrwt>
</event>
<event>
 8    1  0.2073852E-002  0.2945924E+03  0.7818608E-02  0.1087975E+00
         -2   -1    0    0    0  501 -0.00000000000E+00  0.00000000000E+00  0.16284810947E+02  0.16284810947E+02  0.00000000000E+00 0. -1.
          2   -1    0    0  501    0  0.00000000000E+00 -0.00000000000E+00 -0.13322947668E+04  0.13322947668E+04  0.00000000000E+00 0. -1.
         25    2    1    2    0    0 -0.69831086904E+02 -0.30382209763E+02 -0.66670071112E+03  0.68279149381E+03  0.12615437546E+03 0.  0.
         25    2    1    2    0    0  0.69831086904E+02  0.30382209763E+02 -0.64930924468E+03  0.66578808388E+03  0.12598340384E+03 0.  0.
          5    1    3    3  502    0 -0.86347512354E+02  0.18483773922E+02 -0.31056675758E+03  0.32291073643E+03  0.47000000000E+01 0.  1.
         -5    1    3    3    0  502  0.16516425450E+02 -0.48865983686E+02 -0.35613395354E+03  0.35988075738E+03  0.47000000000E+01 0.  1.
          5    1    4    4  503    0  0.80328394766E+02 -0.14864222740E+02 -0.23463262973E+03  0.24849176456E+03  0.47000000000E+01 0.  1.
         -5    1    4    4    0  503 -0.10497307862E+02  0.45246432503E+02 -0.41467661496E+03  0.41729631932E+03  0.47000000000E+01 0.  1.
<mgrwt>
<rscale>  0 0.29459239E+03</rscale>
<asrwt>0</asrwt>
<pdfrwt beam="1">  1        2 0.20496851E+00 0.29459239E+03</pdfrwt>
<pdfrwt beam="2">  1       -2 0.25053545E-02 0.29459239E+03</pdfrwt>
<totfact> 0.93383739E+03</totfact>
</mgrwt>
</event>
<event>
 9    1  0.2073852E-002  0.2731258E+03  0.7818608E-02  0.1099504E+00
         -1   -1    0    0    0  501 -0.00000000000E+00  0.00000000000E+00  0.11429164048E+03  0.11429164048E+03  0.00000000000E+00 0. -1.
          1   -1    0    0  501    0  0.00000000000E+00 -0.00000000000E+00 -0.16317401302E+03  0.16317401302E+03  0.00000000000E+00 0. -1.
         36    2    1    2    0    0  0.00000000000E+00  0.00000000000E+00 -0.48882372537E+02  0.27746565351E+03  0.27312579983E+03 0.  0.
         25    2    3    3    0    0 -0.46333342567E+02 -0.28130021742E+02 -0.33749307269E+02  0.14111984497E+03  0.12584799620E+03 0.  0.
         25    2    3    3    0    0  0.46333342567E+02  0.28130021742E+02 -0.15133065268E+02  0.13634580854E+03  0.12418974630E+03 0.  0.
          5    1    4    4  502    0 -0.43053022006E+02  0.44233969825E+02 -0.29034821120E+02  0.68376294341E+02  0.47000000000E+01 0. -1.
         -5    1    4    4    0  502 -0.32803205609E+01 -0.72363991566E+02 -0.47144861490E+01  0.72743550628E+02  0.47000000000E+01 0. -1.
          5    1    5    5  503    0  0.54247706819E+02  0.19846273457E+02  0.45987135828E+02  0.73983747722E+02  0.47000000000E+01 0. -1.
         -5    1    5    5    0  503 -0.79143642527E+01  0.82837482850E+01 -0.61120201096E+02  0.62362060816E+02  0.47000000000E+01 0. -1.
<mgrwt>
<rscale>  0 0.27312580E+03</rscale>
<asrwt>0</asrwt>
<pdfrwt beam="1">  1        1 0.25103694E-01 0.27312580E+03</pdfrwt>
<pdfrwt beam="2">  1       -1 0.17583329E-01 0.27312580E+03</pdfrwt>
<totfact> 0.47012802E+03</totfact>
</mgrwt>
</event>
<event>
 9    1  0.2073852E-002  0.2751156E+03  0.7818608E-02  0.1098387E+00
         -1   -1    0    0    0  501 -0.00000000000E+00  0.00000000000E+00  0.16925481663E+03  0.16925481663E+03  0.00000000000E+00 0. -1.
          1   -1    0    0  501    0  0.00000000000E+00 -0.00000000000E+00 -0.11179680325E+03  0.11179680325E+03  0.00000000000E+00 0. -1.
         36    2    1    2    0    0 -0.71054273576E-14  0.00000000000E+00  0.57458013374E+02  0.28105161988E+03  0.27511559341E+03 0.  0.
         25    2    3    3    0    0 -0.23717867872E+02  0.44795998784E+02  0.10460601724E+02  0.13297805650E+03  0.12249294085E+03 0.  0.
         25    2    3    3    0    0  0.23717867872E+02 -0.44795998784E+02  0.46997411651E+02  0.14807356339E+03  0.13094962661E+03 0.  0.
          5    1    4    4  502    0 -0.52714800059E+02  0.33536783698E+02  0.51614631326E+02  0.81177128386E+02  0.47000000000E+01 0. -1.
         -5    1    4    4    0  502  0.28996932187E+02  0.11259215085E+02 -0.41154029602E+02  0.51800928111E+02  0.47000000000E+01 0. -1.
          5    1    5    5  503    0 -0.44502257099E+02 -0.53873419712E+02  0.13242084452E+02  0.71275795605E+02  0.47000000000E+01 0. -1.
         -5    1    5    5    0  503  0.68220124972E+02  0.90774209284E+01  0.33755327199E+02  0.76797767781E+02  0.47000000000E+01 0. -1.
<mgrwt>
<rscale>  0 0.27511559E+03</rscale>
<asrwt>0</asrwt>
<pdfrwt beam="1">  1        1 0.17199508E-01 0.27511559E+03</pdfrwt>
<pdfrwt beam="2">  1       -1 0.26039202E-01 0.27511559E+03</pdfrwt>
<totfact> 0.40209598E+03</totfact>
</mgrwt>
</event>
<event>
 9    1  0.2073852E-002  0.2745018E+03  0.7818608E-02  0.1098730E+00
         -1   -1    0    0    0  501 -0.00000000000E+00  0.00000000000E+00  0.13833071675E+03  0.13833071675E+03  0.00000000000E+00 0.  1.
          1   -1    0    0  501    0  0.00000000000E+00 -0.00000000000E+00 -0.13617955164E+03  0.13617955164E+03  0.00000000000E+00 0.  1.
         36    2    1    2    0    0  0.17763568394E-14  0.35527136788E-14  0.21511651113E+01  0.27451026839E+03  0.27450183960E+03 0.  0.
         25    2    3    3    0    0 -0.11457227255E+01  0.21101745189E+02 -0.66214591986E+02  0.14287965035E+03  0.12483439414E+03 0.  0.
         25    2    3    3    0    0  0.11457227255E+01 -0.21101745189E+02  0.68365757097E+02  0.13163061805E+03  0.11048143072E+03 0.  0.
          5    1    4    4  502    0 -0.51092092158E+02  0.42662437105E+01  0.76147877197E+01  0.52044958531E+02  0.47000000000E+01 0. -1.
         -5    1    4    4    0  502  0.49946369433E+02  0.16835501479E+02 -0.73829379706E+02  0.90834691816E+02  0.47000000000E+01 0. -1.
          5    1    5    5  503    0 -0.26224510018E+01  0.45385327632E+02  0.26516864014E+02  0.52838804781E+02  0.47000000000E+01 0.  1.
         -5    1    5    5    0  503  0.37681737273E+01 -0.66487072821E+02  0.41848893083E+02  0.78791813267E+02  0.47000000000E+01 0.  1.
<mgrwt>
<rscale>  0 0.27450184E+03</rscale>
<asrwt>0</asrwt>
<pdfrwt beam="1">  1        1 0.20950700E-01 0.27450184E+03</pdfrwt>
<pdfrwt beam="2">  1       -1 0.21281649E-01 0.27450184E+03</pdfrwt>
<totfact> 0.43484591E+03</totfact>
</mgrwt>
</event>
<event>
 9    1  0.2073852E-002  0.2768449E+03  0.7818608E-02  0.1097425E+00
         -2   -1    0    0    0  501 -0.00000000000E+00  0.00000000000E+00  0.10866877706E+02  0.10866877706E+02  0.00000000000E+00 0.  1.
          2   -1    0    0  501    0  0.00000000000E+00 -0.00000000000E+00 -0.17632267707E+04  0.17632267707E+04  0.00000000000E+00 0.  1.
         36    2    1    2    0    0  0.00000000000E+00 -0.71054273576E-14 -0.17523598930E+04  0.17740936484E+04  0.27684486402E+03 0.  0.
         25    2    3    3    0    0 -0.40068042192E+01 -0.52250738647E+02 -0.11328161588E+04  0.11404213224E+04  0.12059083200E+03 0.  0.
         25    2    3    3    0    0  0.40068042192E+01  0.52250738647E+02 -0.61954373422E+03  0.63367232604E+03  0.12231101342E+03 0.  0.
          5    1    4    4  502    0  0.31035161032E+02 -0.79335696960E+02 -0.82494438170E+03  0.82934471539E+03  0.47000000000E+01 0. -1.
         -5    1    4    4    0  502 -0.35041965252E+02  0.27084958313E+02 -0.30787177706E+03  0.31107660697E+03  0.47000000000E+01 0. -1.
          5    1    5    5  503    0 -0.36893125625E+02  0.22246762941E+02 -0.74006351465E+02  0.85761595349E+02  0.47000000000E+01 0. -1.
         -5    1    5    5    0  503  0.40899929844E+02  0.30003975706E+02 -0.54553738275E+03  0.54791073069E+03  0.47000000000E+01 0. -1.
<mgrwt>
<rscale>  0 0.27684486E+03</rscale>
<asrwt>0</asrwt>
<pdfrwt beam="1">  1        2 0.27126541E+00 0.27684486E+03</pdfrwt>
<pdfrwt beam="2">  1       -2 0.16718289E-02 0.27684486E+03</pdfrwt>
<totfact> 0.99587986E+03</totfact>
</mgrwt>
</event>
<event>
 9    1  0.2073852E-002  0.2745542E+03  0.7818608E-02  0.1098701E+00
         -1   -1    0    0    0  501 -0.00000000000E+00  0.00000000000E+00  0.82924369072E+02  0.82924369072E+02  0.00000000000E+00 0.  1.
          1   -1    0    0  501    0  0.00000000000E+00 -0.00000000000E+00 -0.22725536415E+03  0.22725536415E+03  0.00000000000E+00 0.  1.
         36    2    1    2    0    0 -0.71054273576E-14 -0.14210854715E-13 -0.14433099508E+03  0.31017973322E+03  0.27455424011E+03 0.  0.
         25    2    3    3    0    0 -0.12767214725E+02 -0.51058130317E+02 -0.94299492205E+02  0.16481874978E+03  0.12451060841E+03 0.  0.
         25    2    3    3    0    0  0.12767214725E+02  0.51058130317E+02 -0.50031502872E+02  0.14536098344E+03  0.12592350767E+03 0.  0.
          5    1    4    4  502    0  0.72880555287E+01 -0.84803896735E+02 -0.32043068842E+02  0.91069560862E+02  0.47000000000E+01 0.  1.
         -5    1    4    4    0  502 -0.20055270254E+02  0.33745766418E+02 -0.62256423363E+02  0.73749188918E+02  0.47000000000E+01 0.  1.
          5    1    5    5  503    0  0.36607063860E+02  0.21114986046E+02  0.32992062538E+02  0.53819011052E+02  0.47000000000E+01 0. -1.
         -5    1    5    5    0  503 -0.23839849134E+02  0.29943144271E+02 -0.83023565410E+02  0.91541972389E+02  0.47000000000E+01 0. -1.
<mgrwt>
<rscale>  0 0.27455424E+03</rscale>
<asrwt>0</asrwt>
<pdfrwt beam="1">  1        1 0.34962363E-01 0.27455424E+03</pdfrwt>
<pdfrwt beam="2">  1       -1 0.12757595E-01 0.27455424E+03</pdfrwt>
<totfact> 0.51483547E+03</totfact>
</mgrwt>
</event>
<event>
 9    1  0.2073852E-002  0.2757056E+03  0.7818608E-02  0.1098058E+00
          2   -1    0    0  501    0  0.00000000000E+00  0.00000000000E+00  0.88095067183E+03  0.88095067183E+03  0.00000000000E+00 0.  1.
         -2   -1    0    0    0  501 -0.00000000000E+00 -0.00000000000E+00 -0.21571467516E+02  0.21571467516E+02  0.00000000000E+00 0.  1.
         36    2    1    2    0    0 -0.35527136788E-14  0.00000000000E+00  0.85937920431E+03  0.90252213934E+03  0.27570563143E+03 0.  0.
         25    2    3    3    0    0  0.24477187429E+02  0.57350674396E+02  0.48481992761E+03  0.50367602835E+03  0.12145347573E+03 0.  0.
         25    2    3    3    0    0 -0.24477187429E+02 -0.57350674396E+02  0.37455927670E+03  0.39884611099E+03  0.12204644990E+03 0.  0.
          5    1    4    4  502    0  0.43046364855E+02  0.99753203260E+01  0.41381744222E+03  0.41619642241E+03  0.47000000000E+01 0.  1.
         -5    1    4    4    0  502 -0.18569177427E+02  0.47375354070E+02  0.71002485396E+02  0.87479605943E+02  0.47000000000E+01 0.  1.
          5    1    5    5  503    0  0.34214188014E+02 -0.68241692249E+02  0.22972571747E+03  0.24212297390E+03  0.47000000000E+01 0.  1.
         -5    1    5    5    0  503 -0.58691375442E+02  0.10891017853E+02  0.14483355923E+03  0.15672313709E+03  0.47000000000E+01 0.  1.
<mgrwt>
<rscale>  0 0.27570563E+03</rscale>
<asrwt>0</asrwt>
<pdfrwt beam="1">  1        2 0.13553084E+00 0.27570563E+03</pdfrwt>
<pdfrwt beam="2">  1       -2 0.33186880E-02 0.27570563E+03</pdfrwt>
<totfact> 0.11351372E+04</totfact>
</mgrwt>
</event>
<event>
 9    1  0.2073852E-002  0.2768656E+03  0.7818608E-02  0.1097413E+00
         -2   -1    0    0    0  501 -0.00000000000E+00  0.00000000000E+00  0.90043331845E+03  0.90043331845E+03  0.00000000000E+00 0. -1.
          2   -1    0    0  501    0  0.00000000000E+00 -0.00000000000E+00 -0.21282687531E+02  0.21282687531E+02  0.00000000000E+00 0. -1.
         36    2    1    2    0    0  0.00000000000E+00  0.71054273576E-14  0.87915063092E+03  0.92171600599E+03  0.27686560609E+03 0.  0.
         25    2    3    3    0    0  0.21945613175E+02 -0.12442081263E+02  0.38382568292E+03  0.40481867767E+03  0.12617286397E+03 0.  0.
         25    2    3    3    0    0 -0.21945613175E+02  0.12442081263E+02  0.49532494801E+03  0.51689732831E+03  0.14560092230E+03 0.  0.
          5    1    4    4  502    0  0.36527420513E+02  0.46994559293E+02  0.12110417793E+03  0.13502241653E+03  0.47000000000E+01 0.  1.
         -5    1    4    4    0  502 -0.14581807339E+02 -0.59436640557E+02  0.26272150498E+03  0.26979626114E+03  0.47000000000E+01 0.  1.
          5    1    5    5  503    0 -0.72881195014E+02 -0.32220868807E+02  0.26169698859E+03  0.27360054242E+03  0.47000000000E+01 0.  1.
         -5    1    5    5    0  503  0.50935581839E+02  0.44662950070E+02  0.23362795942E+03  0.24329678590E+03  0.47000000000E+01 0.  1.
<mgrwt>
<rscale>  0 0.27686561E+03</rscale>
<asrwt>0</asrwt>
<pdfrwt beam="1">  1        2 0.32742603E-02 0.27686561E+03</pdfrwt>
<pdfrwt beam="2">  1       -2 0.13852817E+00 0.27686561E+03</pdfrwt>
<totfact> 0.10814979E+03</totfact>
</mgrwt>
</event>
<event>
 9    1  0.2073852E-002  0.2771344E+03  0.7818608E-02  0.1097264E+00
         -2   -1    0    0    0  501 -0.00000000000E+00  0.00000000000E+00  0.29900869687E+02  0.29900869687E+02  0.00000000000E+00 0. -1.
          2   -1    0    0  501    0  0.00000000000E+00 -0.00000000000E+00 -0.64215078603E+03  0.64215078603E+03  0.00000000000E+00 0. -1.
         36    2    1    2    0    0  0.00000000000E+00  0.00000000000E+00 -0.61224991634E+03  0.67205165572E+03  0.27713438598E+03 0.  0.
         25    2    3    3    0    0 -0.24467567585E+02 -0.27770140224E+02 -0.23331897244E+03  0.27098222889E+03  0.13275459662E+03 0.  0.
         25    2    3    3    0    0  0.24467567585E+02  0.27770140224E+02 -0.37893094390E+03  0.40106942683E+03  0.12608799442E+03 0.  0.
          5    1    4    4  502    0 -0.45112113985E+02 -0.13828779692E+02 -0.12942084828E+02  0.49152065426E+02  0.47000000000E+01 0. -1.
         -5    1    4    4    0  502  0.20644546399E+02 -0.13941360533E+02 -0.22037688761E+03  0.22183016346E+03  0.47000000000E+01 0. -1.
          5    1    5    5  503    0  0.13315979699E+02  0.57435426922E+02 -0.75292974672E+02  0.95745838636E+02  0.47000000000E+01 0. -1.
         -5    1    5    5    0  503  0.11151587886E+02 -0.29665286698E+02 -0.30363796923E+03  0.30532358819E+03  0.47000000000E+01 0. -1.
<mgrwt>
<rscale>  0 0.27713439E+03</rscale>
<asrwt>0</asrwt>
<pdfrwt beam="1">  1        2 0.98792428E-01 0.27713439E+03</pdfrwt>
<pdfrwt beam="2">  1       -2 0.46001338E-02 0.27713439E+03</pdfrwt>
<totfact> 0.10309606E+04</totfact>
</mgrwt>
</event>
<event>
 9    1  0.2073852E-002  0.2727125E+03  0.7818608E-02  0.1099737E+00
          1   -1    0    0  501    0  0.00000000000E+00  0.00000000000E+00  0.10474276409E+04  0.10474276409E+04  0.00000000000E+00 0.  1.
         -1   -1    0    0    0  501 -0.00000000000E+00 -0.00000000000E+00 -0.17751138417E+02  0.17751138417E+02  0.00000000000E+00 0.  1.
         36    2    1    2    0    0  0.00000000000E+00  0.17763568394E-14  0.10296765025E+04  0.10651787794E+04  0.27271254490E+03 0.  0.
         25    2    3    3    0    0 -0.25126795907E+02  0.82340753056E+01  0.53285592575E+03  0.54782666397E+03  0.12441647916E+03 0.  0.
         25    2    3    3    0    0  0.25126795907E+02 -0.82340753056E+01  0.49682057679E+03  0.51735211539E+03  0.14185686418E+03 0.  0.
          5    1    4    4  502    0  0.14735878357E+02 -0.84113096420E+01  0.47571320764E+03  0.47603890825E+03  0.47000000000E+01 0.  1.
         -5    1    4    4    0  502 -0.39862674264E+02  0.16645384948E+02  0.57142718100E+02  0.71787755721E+02  0.47000000000E+01 0.  1.
          5    1    5    5  503    0 -0.37511901081E+02  0.14602098857E+02  0.44776346582E+02  0.60393503185E+02  0.47000000000E+01 0.  1.
         -5    1    5    5    0  503  0.62638696988E+02 -0.22836174163E+02  0.45204423020E+03  0.45695861221E+03  0.47000000000E+01 0.  1.
<mgrwt>
<rscale>  0 0.27271254E+03</rscale>
<asrwt>0</asrwt>
<pdfrwt beam="1">  1        1 0.16114267E+00 0.27271254E+03</pdfrwt>
<pdfrwt beam="2">  1       -1 0.27309452E-02 0.27271254E+03</pdfrwt>
<totfact> 0.63845204E+03</totfact>
</mgrwt>
</event>
<event>
 9    1  0.2073852E-002  0.2747971E+03  0.7818608E-02  0.1098565E+00
         -1   -1    0    0    0  501 -0.00000000000E+00  0.00000000000E+00  0.93545326452E+03  0.93545326452E+03  0.00000000000E+00 0. -1.
          1   -1    0    0  501    0  0.00000000000E+00 -0.00000000000E+00 -0.20180977159E+02  0.20180977159E+02  0.00000000000E+00 0. -1.
         36    2    1    2    0    0 -0.88817841970E-15  0.00000000000E+00  0.91527228736E+03  0.95563424168E+03  0.27479709579E+03 0.  0.
         25    2    3    3    0    0 -0.74883821700E+01  0.36580216571E+02  0.59927767270E+03  0.61363818053E+03  0.12658554221E+03 0.  0.
         25    2    3    3    0    0  0.74883821700E+01 -0.36580216571E+02  0.31599461466E+03  0.34199606114E+03  0.12535757350E+03 0.  0.
          5    1    4    4  502    0 -0.26725754537E+02  0.71849342468E+02  0.50835911188E+03  0.51412806829E+03  0.47000000000E+01 0. -1.
         -5    1    4    4    0  502  0.19237372367E+02 -0.35269125897E+02  0.90918560819E+02  0.99510112243E+02  0.47000000000E+01 0. -1.
          5    1    5    5  503    0  0.13705225205E+01 -0.42896148223E+02  0.23164669127E+02  0.48996425993E+02  0.47000000000E+01 0.  1.
         -5    1    5    5    0  503  0.61178596495E+01  0.63159316519E+01  0.29282994553E+03  0.29299963515E+03  0.47000000000E+01 0.  1.
<mgrwt>
<rscale>  0 0.27479710E+03</rscale>
<asrwt>0</asrwt>
<pdfrwt beam="1">  1        1 0.31047664E-02 0.27479710E+03</pdfrwt>
<pdfrwt beam="2">  1       -1 0.14391585E+00 0.27479710E+03</pdfrwt>
<totfact> 0.13671123E+03</totfact>
</mgrwt>
</event>
<event>
 9    1  0.2073852E-002  0.2749313E+03  0.7818608E-02  0.1098490E+00
          2   -1    0    0  501    0  0.00000000000E+00  0.00000000000E+00  0.37646405186E+03  0.37646405186E+03  0.00000000000E+00 0.  1.
         -2   -1    0    0    0  501 -0.00000000000E+00 -0.00000000000E+00 -0.50195524376E+02  0.50195524376E+02  0.00000000000E+00 0.  1.
         36    2    1    2    0    0  0.00000000000E+00 -0.71054273576E-14  0.32626852749E+03  0.42665957624E+03  0.27493134046E+03 0.  0.
         25    2    3    3    0    0  0.46516332511E+02 -0.35638846312E+02  0.13743660144E+03  0.19473141242E+03  0.12489037998E+03 0.  0.
         25    2    3    3    0    0 -0.46516332511E+02  0.35638846312E+02  0.18883192605E+03  0.23192816382E+03  0.12124058858E+03 0.  0.
          5    1    4    4  502    0  0.82068216962E+02 -0.52663525290E+02  0.10589072808E+03  0.14402630115E+03  0.47000000000E+01 0. -1.
         -5    1    4    4    0  502 -0.35551884452E+02  0.17024678978E+02  0.31545873360E+02  0.50705111265E+02  0.47000000000E+01 0. -1.
          5    1    5    5  503    0  0.80707684783E+01 -0.33016633752E+02  0.15583968403E+02  0.37685348338E+02  0.47000000000E+01 0.  1.
         -5    1    5    5    0  503 -0.54587100989E+02  0.68655480064E+02  0.17324795765E+03  0.19424281548E+03  0.47000000000E+01 0.  1.
<mgrwt>
<rscale>  0 0.27493134E+03</rscale>
<asrwt>0</asrwt>
<pdfrwt beam="1">  1        2 0.57917545E-01 0.27493134E+03</pdfrwt>
<pdfrwt beam="2">  1       -2 0.77223886E-02 0.27493134E+03</pdfrwt>
<totfact> 0.84693915E+03</totfact>
</mgrwt>
</event>
<event>
 9    1  0.2073852E-002  0.2750867E+03  0.7818608E-02  0.1098403E+00
          2   -1    0    0  501    0  0.00000000000E+00  0.00000000000E+00  0.19886564814E+04  0.19886564814E+04  0.00000000000E+00 0. -1.
         -2   -1    0    0    0  501 -0.00000000000E+00 -0.00000000000E+00 -0.95130440497E+01  0.95130440497E+01  0.00000000000E+00 0. -1.
         36    2    1    2    0    0 -0.71054273576E-14  0.00000000000E+00  0.19791434373E+04  0.19981695254E+04  0.27508672601E+03 0.  0.
         25    2    3    3    0    0 -0.55042657929E+02 -0.16852340287E+02  0.11388730396E+04  0.11470827237E+04  0.12431121847E+03 0.  0.
         25    2    3    3    0    0  0.55042657929E+02  0.16852340287E+02  0.84027039773E+03  0.85108680176E+03  0.12239569956E+03 0.  0.
          5    1    4    4  502    0 -0.73925181721E+02 -0.31350900902E+02  0.41053945375E+03  0.41834500662E+03  0.47000000000E+01 0.  1.
         -5    1    4    4    0  502  0.18882523792E+02  0.14498560615E+02  0.72833358585E+03  0.72873771704E+03  0.47000000000E+01 0.  1.
          5    1    5    5  503    0  0.18852951485E+02 -0.33443437218E+02  0.64519231007E+03  0.64635060474E+03  0.47000000000E+01 0. -1.
         -5    1    5    5    0  503  0.36189706443E+02  0.50295777505E+02  0.19507808765E+03  0.20473619702E+03  0.47000000000E+01 0. -1.
<mgrwt>
<rscale>  0 0.27508673E+03</rscale>
<asrwt>0</asrwt>
<pdfrwt beam="1">  1        2 0.30594682E+00 0.27508673E+03</pdfrwt>
<pdfrwt beam="2">  1       -2 0.14635468E-02 0.27508673E+03</pdfrwt>
<totfact> 0.92125883E+03</totfact>
</mgrwt>
</event>
<event>
 9    1  0.2073852E-002  0.2745845E+03  0.7818608E-02  0.1098684E+00
         -2   -1    0    0    0  501 -0.00000000000E+00  0.00000000000E+00  0.13871118924E+02  0.13871118924E+02  0.00000000000E+00 0. -1.
          2   -1    0    0  501    0  0.00000000000E+00 -0.00000000000E+00 -0.13588779213E+04  0.13588779213E+04  0.00000000000E+00 0. -1.
         36    2    1    2    0    0 -0.35527136788E-14 -0.17763568394E-14 -0.13450068024E+04  0.13727490403E+04  0.27458446606E+03 0.  0.
         25    2    3    3    0    0  0.17031227704E+02  0.82356380818E+00 -0.94181151495E+03  0.94917846932E+03  0.11679082133E+03 0.  0.
         25    2    3    3    0    0 -0.17031227704E+02 -0.82356380818E+00 -0.40319528747E+03  0.42357057095E+03  0.12866564330E+03 0.  0.
          5    1    4    4  502    0  0.41198875476E+02 -0.82481898609E+01 -0.89090626014E+03  0.89190887110E+03  0.47000000000E+01 0.  1.
         -5    1    4    4    0  502 -0.24167647772E+02  0.90717536691E+01 -0.50905254809E+02  0.57269598223E+02  0.47000000000E+01 0.  1.
          5    1    5    5  503    0 -0.15388920760E+01  0.18484661985E+02 -0.39721184944E+03  0.39767247107E+03  0.47000000000E+01 0. -1.
         -5    1    5    5    0  503 -0.15492335628E+02 -0.19308225793E+02 -0.59834380304E+01  0.25898099875E+02  0.47000000000E+01 0. -1.
<mgrwt>
<rscale>  0 0.27458447E+03</rscale>
<asrwt>0</asrwt>
<pdfrwt beam="1">  1        2 0.20905820E+00 0.27458447E+03</pdfrwt>
<pdfrwt beam="2">  1       -2 0.21340177E-02 0.27458447E+03</pdfrwt>
<totfact> 0.11428766E+04</totfact>
</mgrwt>
</event>
<event>
 9    1  0.2073852E-002  0.2751850E+03  0.7818608E-02  0.1098348E+00
         -2   -1    0    0    0  501 -0.00000000000E+00  0.00000000000E+00  0.24023031812E+02  0.24023031812E+02  0.00000000000E+00 0. -1.
          2   -1    0    0  501    0  0.00000000000E+00 -0.00000000000E+00 -0.78806420720E+03  0.78806420720E+03  0.00000000000E+00 0. -1.
         36    2    1    2    0    0 -0.71054273576E-14  0.26645352591E-14 -0.76404117539E+03  0.81208723901E+03  0.27518496703E+03 0.  0.
         25    2    3    3    0    0  0.24379479453E+02  0.78479547651E+01 -0.19574182889E+03  0.22994929740E+03  0.11792313761E+03 0.  0.
         25    2    3    3    0    0 -0.24379479453E+02 -0.78479547651E+01 -0.56829934650E+03  0.58213794162E+03  0.12354953025E+03 0.  0.
          5    1    4    4  502    0  0.41004284959E+02 -0.11968858533E+02 -0.12392052598E+02  0.44724243171E+02  0.47000000000E+01 0. -1.
         -5    1    4    4    0  502 -0.16624805506E+02  0.19816813298E+02 -0.18334977629E+03  0.18522505423E+03  0.47000000000E+01 0. -1.
          5    1    5    5  503    0  0.35736160375E+02 -0.37880782674E+00 -0.42451716782E+03  0.42604475402E+03  0.47000000000E+01 0.  1.
         -5    1    5    5    0  503 -0.60115639828E+02 -0.74691469384E+01 -0.14378217868E+03  0.15609318760E+03  0.47000000000E+01 0.  1.
<mgrwt>
<rscale>  0 0.27518497E+03</rscale>
<asrwt>0</asrwt>
<pdfrwt beam="1">  1        2 0.12124064E+00 0.27518497E+03</pdfrwt>
<pdfrwt beam="2">  1       -2 0.36958513E-02 0.27518497E+03</pdfrwt>
<totfact> 0.11161230E+04</totfact>
</mgrwt>
</event>
<event>
 9    1  0.2073852E-002  0.2752515E+03  0.7818608E-02  0.1098311E+00
          1   -1    0    0  501    0  0.00000000000E+00  0.00000000000E+00  0.72322930581E+02  0.72322930581E+02  0.00000000000E+00 0.  1.
         -1   -1    0    0    0  501 -0.00000000000E+00 -0.00000000000E+00 -0.26189272409E+03  0.26189272409E+03  0.00000000000E+00 0.  1.
         36    2    1    2    0    0  0.71054273576E-14 -0.71054273576E-14 -0.18956979351E+03  0.33421565467E+03  0.27525151628E+03 0.  0.
         25    2    3    3    0    0  0.28984190789E+02 -0.14058789355E+02 -0.47643480937E+02  0.14085234698E+03  0.12857585116E+03 0.  0.
         25    2    3    3    0    0 -0.28984190789E+02  0.14058789355E+02 -0.14192631257E+03  0.19336330768E+03  0.12731283394E+03 0.  0.
          5    1    4    4  502    0 -0.20297475882E+02  0.17886708534E+02 -0.72030535182E+02  0.77087027884E+02  0.47000000000E+01 0. -1.
         -5    1    4    4    0  502  0.49281666670E+02 -0.31945497889E+02  0.24387054246E+02  0.63765319100E+02  0.47000000000E+01 0. -1.
          5    1    5    5  503    0 -0.53275523783E+02  0.55989015530E+02 -0.11218930020E+03  0.13631427061E+03  0.47000000000E+01 0.  1.
         -5    1    5    5    0  503  0.24291332995E+02 -0.41930226175E+02 -0.29737012372E+02  0.57049037069E+02  0.47000000000E+01 0.  1.
<mgrwt>
<rscale>  0 0.27525152E+03</rscale>
<asrwt>0</asrwt>
<pdfrwt beam="1">  1        1 0.11126605E-01 0.27525152E+03</pdfrwt>
<pdfrwt beam="2">  1       -1 0.40291188E-01 0.27525152E+03</pdfrwt>
<totfact> 0.33696665E+03</totfact>
</mgrwt>
</event>
<event>
 9    1  0.2073852E-002  0.2745573E+03  0.7818608E-02  0.1098699E+00
          2   -1    0    0  501    0  0.00000000000E+00  0.00000000000E+00  0.19719434190E+03  0.19719434190E+03  0.00000000000E+00 0. -1.
         -2   -1    0    0    0  501 -0.00000000000E+00 -0.00000000000E+00 -0.95567807449E+02  0.95567807449E+02  0.00000000000E+00 0. -1.
         36    2    1    2    0    0  0.00000000000E+00 -0.71054273576E-14  0.10162653445E+03  0.29276214934E+03  0.27455732295E+03 0.  0.
         25    2    3    3    0    0 -0.12327657183E+02 -0.28770728291E+02  0.80697875377E+02  0.15545727573E+03  0.12913207018E+03 0.  0.
         25    2    3    3    0    0  0.12327657183E+02  0.28770728291E+02  0.20928659069E+02  0.13730487361E+03  0.13204125722E+03 0.  0.
          5    1    4    4  502    0 -0.29300553044E+02  0.46686077406E+02  0.36064042523E+02  0.66036485335E+02  0.47000000000E+01 0. -1.
         -5    1    4    4    0  502  0.16972895861E+02 -0.75456805697E+02  0.44633832853E+02  0.89420790396E+02  0.47000000000E+01 0. -1.
          5    1    5    5  503    0  0.35230004300E+02 -0.34267045204E+02  0.44091434254E+02  0.66193112667E+02  0.47000000000E+01 0.  1.
         -5    1    5    5    0  503 -0.22902347117E+02  0.63037773495E+02 -0.23162775184E+02  0.71111760946E+02  0.47000000000E+01 0.  1.
<mgrwt>
<rscale>  0 0.27455732E+03</rscale>
<asrwt>0</asrwt>
<pdfrwt beam="1">  1        2 0.30337591E-01 0.27455732E+03</pdfrwt>
<pdfrwt beam="2">  1       -2 0.14702740E-01 0.27455732E+03</pdfrwt>
<totfact> 0.60834880E+03</totfact>
</mgrwt>
</event>
<event>
 9    1  0.2073852E-002  0.2745348E+03  0.7818608E-02  0.1098712E+00
          1   -1    0    0  501    0  0.00000000000E+00  0.00000000000E+00  0.61127324465E+02  0.61127324465E+02  0.00000000000E+00 0. -1.
         -1   -1    0    0    0  501 -0.00000000000E+00 -0.00000000000E+00 -0.30824746199E+03  0.30824746199E+03  0.00000000000E+00 0. -1.
         36    2    1    2    0    0  0.00000000000E+00 -0.71054273576E-14 -0.24712013752E+03  0.36937478645E+03  0.27453482566E+03 0.  0.
         25    2    3    3    0    0  0.46809637539E+02 -0.28000272552E+02 -0.16151431536E+03  0.20820846622E+03  0.11953549226E+03 0.  0.
         25    2    3    3    0    0 -0.46809637539E+02  0.28000272552E+02 -0.85605822168E+02  0.16116632023E+03  0.12518413861E+03 0.  0.
          5    1    4    4  502    0  0.12742778957E+02 -0.70158058505E+02 -0.12042090275E+03  0.14002790939E+03  0.47000000000E+01 0.  1.
         -5    1    4    4    0  502  0.34066858582E+02  0.42157785953E+02 -0.41093412608E+02  0.68180556832E+02  0.47000000000E+01 0.  1.
          5    1    5    5  503    0 -0.66288480838E+02 -0.26005337822E+02 -0.73226520683E+02  0.10224800056E+03  0.47000000000E+01 0. -1.
         -5    1    5    5    0  503  0.19478843298E+02  0.54005610374E+02 -0.12379301485E+02  0.58918319675E+02  0.47000000000E+01 0. -1.
<mgrwt>
<rscale>  0 0.27453483E+03</rscale>
<asrwt>0</asrwt>
<pdfrwt beam="1">  1        1 0.94042038E-02 0.27453483E+03</pdfrwt>
<pdfrwt beam="2">  1       -1 0.47422686E-01 0.27453483E+03</pdfrwt>
<totfact> 0.31475662E+03</totfact>
</mgrwt>
</event>
<event>
 8    1  0.2073852E-002  0.2976555E+03  0.7818608E-02  0.1086419E+00
          2   -1    0    0  501    0  0.00000000000E+00  0.00000000000E+00  0.22318670071E+02  0.22318670071E+02  0.00000000000E+00 0.  1.
         -2   -1    0    0    0  501 -0.00000000000E+00 -0.00000000000E+00 -0.99242915965E+03  0.99242915965E+03  0.00000000000E+00 0.  1.
         25    2    1    2    0    0 -0.21930459729E+02  0.20539531013E+02 -0.75343285503E+03  0.76238687453E+03  0.11256048156E+03 0.  0.
         25    2    1    2    0    0  0.21930459729E+02 -0.20539531013E+02 -0.21667763455E+03  0.25236095520E+03  0.12583336996E+03 0.  0.
          5    1    3    3  502    0 -0.14924496876E+00  0.49543218211E+02 -0.66260845305E+03  0.66447468334E+03  0.47000000000E+01 0.  1.
         -5    1    3    3    0  502 -0.21781214761E+02 -0.29003687198E+02 -0.90824401982E+02  0.97912191186E+02  0.47000000000E+01 0.  1.
          5    1    4    4  503    0 -0.15343883543E+02  0.14819898522E+01  0.11670285418E+02  0.19897653577E+02  0.47000000000E+01 0.  1.
         -5    1    4    4    0  503  0.37274343273E+02 -0.22021520865E+02 -0.22834791996E+03  0.23246330162E+03  0.47000000000E+01 0.  1.
<mgrwt>
<rscale>  0 0.29765550E+03</rscale>
<asrwt>0</asrwt>
<pdfrwt beam="1">  1        2 0.34336418E-02 0.29765550E+03</pdfrwt>
<pdfrwt beam="2">  1       -2 0.15268140E+00 0.29765550E+03</pdfrwt>
<totfact> 0.79114811E+02</totfact>
</mgrwt>
</event>
<event>
 9    1  0.2073852E-002  0.2757639E+03  0.7818608E-02  0.1098025E+00
         -2   -1    0    0    0  501 -0.00000000000E+00  0.00000000000E+00  0.66222434218E+03  0.66222434218E+03  0.00000000000E+00 0.  1.
          2   -1    0    0  501    0  0.00000000000E+00 -0.00000000000E+00 -0.28708450357E+02  0.28708450357E+02  0.00000000000E+00 0.  1.
         36    2    1    2    0    0  0.00000000000E+00  0.00000000000E+00  0.63351589183E+03  0.69093279254E+03  0.27576391825E+03 0.  0.
         25    2    3    3    0    0  0.19472308135E+02 -0.89514405775E+01  0.47109885973E+03  0.48726063327E+03  0.12259482054E+03 0.  0.
         25    2    3    3    0    0 -0.19472308135E+02  0.89514405775E+01  0.16241703210E+03  0.20367215927E+03  0.12101139233E+03 0.  0.
          5    1    4    4  502    0  0.21863896995E+01  0.13938601738E+02  0.45251925865E+03  0.45276355239E+03  0.47000000000E+01 0. -1.
         -5    1    4    4    0  502  0.17285918435E+02 -0.22890042316E+02  0.18579601078E+02  0.34497080885E+02  0.47000000000E+01 0. -1.
          5    1    5    5  503    0 -0.66651103598E+02 -0.15736352643E+02  0.10265701010E+03  0.12349313393E+03  0.47000000000E+01 0. -1.
         -5    1    5    5    0  503  0.47178795463E+02  0.24687793220E+02  0.59760022003E+02  0.80179025345E+02  0.47000000000E+01 0. -1.
<mgrwt>
<rscale>  0 0.27576392E+03</rscale>
<asrwt>0</asrwt>
<pdfrwt beam="1">  1        2 0.44166852E-02 0.27576392E+03</pdfrwt>
<pdfrwt beam="2">  1       -2 0.10188066E+00 0.27576392E+03</pdfrwt>
<totfact> 0.15221280E+03</totfact>
</mgrwt>
</event>
<event>
 9    1  0.2073852E-002  0.2748055E+03  0.7818608E-02  0.1098560E+00
          2   -1    0    0  501    0  0.00000000000E+00  0.00000000000E+00  0.22133826090E+03  0.22133826090E+03  0.00000000000E+00 0.  1.
         -2   -1    0    0    0  501 -0.00000000000E+00 -0.00000000000E+00 -0.85297088064E+02  0.85297088064E+02  0.00000000000E+00 0.  1.
         36    2    1    2    0    0  0.71054273576E-14  0.17763568394E-14  0.13604117283E+03  0.30663534896E+03  0.27480545214E+03 0.  0.
         25    2    3    3    0    0 -0.51928773412E+02 -0.67005182793E+01  0.26046261670E+02  0.13814302220E+03  0.12515427432E+03 0.  0.
         25    2    3    3    0    0  0.51928773412E+02  0.67005182793E+01  0.10999491116E+03  0.16849232676E+03  0.11640141427E+03 0.  0.
          5    1    4    4  502    0 -0.50669999923E+02  0.47715599534E+01  0.73251817383E+02  0.89320408791E+02  0.47000000000E+01 0. -1.
         -5    1    4    4    0  502 -0.12587734895E+01 -0.11472078233E+02 -0.47205555713E+02  0.48822613407E+02  0.47000000000E+01 0. -1.
          5    1    5    5  503    0  0.45020067081E+02  0.55704512448E+02  0.38605833936E+02  0.81500304055E+02  0.47000000000E+01 0.  1.
         -5    1    5    5    0  503  0.69087063310E+01 -0.49003994169E+02  0.71389077225E+02  0.86992022707E+02  0.47000000000E+01 0.  1.
<mgrwt>
<rscale>  0 0.27480545E+03</rscale>
<asrwt>0</asrwt>
<pdfrwt beam="1">  1        2 0.34052040E-01 0.27480545E+03</pdfrwt>
<pdfrwt beam="2">  1       -2 0.13122629E-01 0.27480545E+03</pdfrwt>
<totfact> 0.64612557E+03</totfact>
</mgrwt>
</event>
<event>
 9    1  0.2073852E-002  0.2750178E+03  0.7818608E-02  0.1098442E+00
         -2   -1    0    0    0  501 -0.00000000000E+00  0.00000000000E+00  0.42793722790E+02  0.42793722790E+02  0.00000000000E+00 0.  1.
          2   -1    0    0  501    0  0.00000000000E+00 -0.00000000000E+00 -0.44185683751E+03  0.44185683751E+03  0.00000000000E+00 0.  1.
         36    2    1    2    0    0  0.00000000000E+00  0.00000000000E+00 -0.39906311472E+03  0.48465056030E+03  0.27501781046E+03 0.  0.
         25    2    3    3    0    0 -0.50012105913E+02  0.24094860021E+02 -0.16005510240E+03  0.20901631073E+03  0.12242715928E+03 0.  0.
         25    2    3    3    0    0  0.50012105913E+02 -0.24094860021E+02 -0.23900801232E+03  0.27563424957E+03  0.12556925008E+03 0.  0.
          5    1    4    4  502    0 -0.28884569747E+01 -0.47287223690E+02 -0.70675547682E+02  0.85214715561E+02  0.47000000000E+01 0. -1.
         -5    1    4    4    0  502 -0.47123648939E+02  0.71382083712E+02 -0.89379554717E+02  0.12380159517E+03  0.47000000000E+01 0. -1.
          5    1    5    5  503    0  0.31747217839E+02 -0.28912226010E+02 -0.81513035476E+01  0.43958348501E+02  0.47000000000E+01 0.  1.
         -5    1    5    5    0  503  0.18264888074E+02  0.48173659891E+01 -0.23085670877E+03  0.23167590107E+03  0.47000000000E+01 0.  1.
<mgrwt>
<rscale>  0 0.27501781E+03</rscale>
<asrwt>0</asrwt>
<pdfrwt beam="1">  1        2 0.67977976E-01 0.27501781E+03</pdfrwt>
<pdfrwt beam="2">  1       -2 0.65836496E-02 0.27501781E+03</pdfrwt>
<totfact> 0.91097971E+03</totfact>
</mgrwt>
</event>
<event>
 9    1  0.2073852E-002  0.2735520E+03  0.7818608E-02  0.1099264E+00
         -1   -1    0    0    0  501 -0.00000000000E+00  0.00000000000E+00  0.92169804276E+01  0.92169804276E+01  0.00000000000E+00 0.  1.
          1   -1    0    0  501    0  0.00000000000E+00 -0.00000000000E+00 -0.20296959360E+04  0.20296959360E+04  0.00000000000E+00 0.  1.
         36    2    1    2    0    0 -0.71054273576E-14  0.17763568394E-14 -0.20204789556E+04  0.20389129164E+04  0.27355195277E+03 0.  0.
         25    2    3    3    0    0 -0.15579346809E+01 -0.56083944098E+01 -0.14530255686E+04  0.14584540466E+04  0.12558272928E+03 0.  0.
         25    2    3    3    0    0  0.15579346809E+01  0.56083944098E+01 -0.56745338697E+03  0.58045886979E+03  0.12204618751E+03 0.  0.
          5    1    4    4  502    0  0.53665887909E+02  0.28079988641E+02 -0.73304888711E+03  0.73556187652E+03  0.47000000000E+01 0. -1.
         -5    1    4    4    0  502 -0.55223822590E+02 -0.33688383051E+02 -0.71997668147E+03  0.72289217010E+03  0.47000000000E+01 0. -1.
          5    1    5    5  503    0 -0.44219667308E+02  0.13855531751E+02 -0.47073626584E+03  0.47303496352E+03  0.47000000000E+01 0. -1.
         -5    1    5    5    0  503  0.45777601989E+02 -0.82471373417E+01 -0.96717121129E+02  0.10742390627E+03  0.47000000000E+01 0. -1.
<mgrwt>
<rscale>  0 0.27355195E+03</rscale>
<asrwt>0</asrwt>
<pdfrwt beam="1">  1        1 0.31226086E+00 0.27355195E+03</pdfrwt>
<pdfrwt beam="2">  1       -1 0.14179972E-02 0.27355195E+03</pdfrwt>
<totfact> 0.36556608E+03</totfact>
</mgrwt>
</event>
<event>
 9    1  0.2073852E-002  0.2754831E+03  0.7818608E-02  0.1098182E+00
          3   -1    0    0  501    0  0.00000000000E+00  0.00000000000E+00  0.54179705934E+02  0.54179705934E+02  0.00000000000E+00 0.  1.
         -3   -1    0    0    0  501 -0.00000000000E+00 -0.00000000000E+00 -0.35018167010E+03  0.35018167010E+03  0.00000000000E+00 0.  1.
         36    2    1    2    0    0 -0.14210854715E-13 -0.71054273576E-14 -0.29600196417E+03  0.40436137603E+03  0.27548313857E+03 0.  0.
         25    2    3    3    0    0 -0.46847942126E+02 -0.21157790600E+02 -0.10739981582E+03  0.17281459561E+03  0.12525087718E+03 0.  0.
         25    2    3    3    0    0  0.46847942126E+02  0.21157790600E+02 -0.18860214835E+03  0.23154678042E+03  0.12409979604E+03 0.  0.
          5    1    4    4  502    0  0.38281003805E+02  0.12061875609E+02 -0.15938595907E+02  0.43440222548E+02  0.47000000000E+01 0.  1.
         -5    1    4    4    0  502 -0.85128945930E+02 -0.33219666208E+02 -0.91461219909E+02  0.12937437306E+03  0.47000000000E+01 0.  1.
          5    1    5    5  503    0 -0.26440305321E+02  0.48619340730E+02 -0.86831367118E+02  0.10307621624E+03  0.47000000000E+01 0. -1.
         -5    1    5    5    0  503  0.73288247447E+02 -0.27461550131E+02 -0.10177078123E+03  0.12847056419E+03  0.47000000000E+01 0. -1.
<mgrwt>
<rscale>  0 0.27548314E+03</rscale>
<asrwt>0</asrwt>
<pdfrwt beam="1">  1        3 0.83353394E-02 0.27548314E+03</pdfrwt>
<pdfrwt beam="2">  1       -3 0.53874103E-01 0.27548314E+03</pdfrwt>
<totfact> 0.87083566E+02</totfact>
</mgrwt>
</event>
<event>
 9    1  0.2073852E-002  0.2741830E+03  0.7818608E-02  0.1098909E+00
         -3   -1    0    0    0  501 -0.00000000000E+00  0.00000000000E+00  0.20904353043E+03  0.20904353043E+03  0.00000000000E+00 0. -1.
          3   -1    0    0  501    0  0.00000000000E+00 -0.00000000000E+00 -0.89905104926E+02  0.89905104926E+02  0.00000000000E+00 0. -1.
         36    2    1    2    0    0  0.00000000000E+00  0.00000000000E+00  0.11913842550E+03  0.29894863535E+03  0.27418300850E+03 0.  0.
         25    2    3    3    0    0  0.94790664209E+01 -0.48050915796E+02  0.28547343308E+02  0.13690210807E+03  0.12461337478E+03 0.  0.
         25    2    3    3    0    0 -0.94790664209E+01  0.48050915796E+02  0.90591082195E+02  0.16204652729E+03  0.12511430623E+03 0.  0.
          5    1    4    4  502    0  0.54447893365E+02 -0.28285640611E+02 -0.22859017621E+02  0.65645070213E+02  0.47000000000E+01 0.  1.
         -5    1    4    4    0  502 -0.44968826944E+02 -0.19765275185E+02  0.51406360929E+02  0.71257037854E+02  0.47000000000E+01 0.  1.
          5    1    5    5  503    0  0.25167800651E+02  0.16926344594E+02 -0.23545724860E+02  0.38683465332E+02  0.47000000000E+01 0.  1.
         -5    1    5    5    0  503 -0.34646867071E+02  0.31124571202E+02  0.11413680706E+03  0.12336306196E+03  0.47000000000E+01 0.  1.
<mgrwt>
<rscale>  0 0.27418301E+03</rscale>
<asrwt>0</asrwt>
<pdfrwt beam="1">  1        3 0.13831555E-01 0.27418301E+03</pdfrwt>
<pdfrwt beam="2">  1       -3 0.32160543E-01 0.27418301E+03</pdfrwt>
<totfact> 0.10223159E+03</totfact>
</mgrwt>
</event>
<event>
 9    1  0.2073852E-002  0.2748867E+03  0.7818608E-02  0.1098515E+00
          2   -1    0    0  501    0  0.00000000000E+00  0.00000000000E+00  0.87963511084E+03  0.87963511084E+03  0.00000000000E+00 0. -1.
         -2   -1    0    0    0  501 -0.00000000000E+00 -0.00000000000E+00 -0.21475584399E+02  0.21475584399E+02  0.00000000000E+00 0. -1.
         36    2    1    2    0    0  0.00000000000E+00  0.00000000000E+00  0.85815952644E+03  0.90111069523E+03  0.27488672622E+03 0.  0.
         25    2    3    3    0    0 -0.49831148692E+02  0.53080292162E+01  0.40905833672E+03  0.43049077629E+03  0.12442775845E+03 0.  0.
         25    2    3    3    0    0  0.49831148692E+02 -0.53080292162E+01  0.44910118972E+03  0.47061991895E+03  0.13145307509E+03 0.  0.
          5    1    4    4  502    0 -0.52312557075E+01 -0.54697375074E+02  0.22741762030E+03  0.23400861715E+03  0.47000000000E+01 0.  1.
         -5    1    4    4    0  502 -0.44599892984E+02  0.60005404291E+02  0.18164071642E+03  0.19648215914E+03  0.47000000000E+01 0.  1.
          5    1    5    5  503    0  0.39872965693E+01 -0.45747663471E+02  0.55117850727E+02  0.71894469299E+02  0.47000000000E+01 0. -1.
         -5    1    5    5    0  503  0.45843852122E+02  0.40439634255E+02  0.39398333899E+03  0.39872544965E+03  0.47000000000E+01 0. -1.
<mgrwt>
<rscale>  0 0.27488673E+03</rscale>
<asrwt>0</asrwt>
<pdfrwt beam="1">  1        2 0.13532845E+00 0.27488673E+03</pdfrwt>
<pdfrwt beam="2">  1       -2 0.33039368E-02 0.27488673E+03</pdfrwt>
<totfact> 0.11448654E+04</totfact>
</mgrwt>
</event>
<event>
 9    1  0.2073852E-002  0.2747319E+03  0.7818608E-02  0.1098602E+00
         -2   -1    0    0    0  501 -0.00000000000E+00  0.00000000000E+00  0.10140961180E+03  0.10140961180E+03  0.00000000000E+00 0.  1.
          2   -1    0    0  501    0  0.00000000000E+00 -0.00000000000E+00 -0.18607116048E+03  0.18607116048E+03  0.00000000000E+00 0.  1.
         36    2    1    2    0    0 -0.71054273576E-14 -0.71054273576E-14 -0.84661548681E+02  0.28748077228E+03  0.27473189951E+03 0.  0.
         25    2    3    3    0    0  0.29705893387E+02 -0.25954384389E+02 -0.83978831039E+02  0.15665318542E+03  0.12622086304E+03 0.  0.
         25    2    3    3    0    0 -0.29705893387E+02  0.25954384389E+02 -0.68271764218E+00  0.13082758687E+03  0.12473700819E+03 0.  0.
          5    1    4    4  502    0 -0.82754955823E+01 -0.71563702580E+02 -0.52824011511E+02  0.89455651282E+02  0.47000000000E+01 0.  1.
         -5    1    4    4    0  502  0.37981388969E+02  0.45609318192E+02 -0.31154819528E+02  0.67197534134E+02  0.47000000000E+01 0.  1.
          5    1    5    5  503    0  0.34786372065E+02  0.50333803445E+02  0.44812461476E+01  0.61528489480E+02  0.47000000000E+01 0. -1.
         -5    1    5    5    0  503 -0.64492265452E+02 -0.24379419056E+02 -0.51639637898E+01  0.69299097387E+02  0.47000000000E+01 0. -1.
<mgrwt>
<rscale>  0 0.27473190E+03</rscale>
<asrwt>0</asrwt>
<pdfrwt beam="1">  1        2 0.28626332E-01 0.27473190E+03</pdfrwt>
<pdfrwt beam="2">  1       -2 0.15601479E-01 0.27473190E+03</pdfrwt>
<totfact> 0.58784482E+03</totfact>
</mgrwt>
</event>
<event>
 8    1  0.2073852E-002  0.3636707E+03  0.7818608E-02  0.1057140E+00
         -2   -1    0    0    0  501 -0.00000000000E+00  0.00000000000E+00  0.40324235625E+02  0.40324235625E+02  0.00000000000E+00 0. -1.
          2   -1    0    0  501    0  0.00000000000E+00 -0.00000000000E+00 -0.81995583215E+03  0.81995583215E+03  0.00000000000E+00 0. -1.
         25    2    1    2    0    0  0.35451858630E+02  0.11218377219E+03 -0.23800044042E+03  0.29234447953E+03  0.12238893760E+03 0.  0.
         25    2    1    2    0    0 -0.35451858630E+02 -0.11218377219E+03 -0.54163115610E+03  0.56793558824E+03  0.12387287883E+03 0.  0.
          5    1    3    3  502    0  0.22850640652E+02  0.28602077539E+02  0.28790305804E+01  0.37021742731E+02  0.47000000000E+01 0. -1.
         -5    1    3    3    0  502  0.12601217977E+02  0.83581694656E+02 -0.24087947100E+03  0.25532273680E+03  0.47000000000E+01 0. -1.
          5    1    4    4  503    0  0.39060432895E+02 -0.57025422491E+02 -0.32418273286E+03  0.33150286652E+03  0.47000000000E+01 0.  1.
         -5    1    4    4    0  503 -0.74512291524E+02 -0.55158349704E+02 -0.21744842324E+03  0.23643272172E+03  0.47000000000E+01 0.  1.
<mgrwt>
<rscale>  0 0.36367069E+03</rscale>
<asrwt>0</asrwt>
<pdfrwt beam="1">  1        2 0.12614705E+00 0.36367069E+03</pdfrwt>
<pdfrwt beam="2">  1       -2 0.62037287E-02 0.36367069E+03</pdfrwt>
<totfact> 0.48528468E+03</totfact>
</mgrwt>
</event>
<event>
 9    1  0.2073852E-002  0.2753305E+03  0.7818608E-02  0.1098267E+00
         -1   -1    0    0    0  501 -0.00000000000E+00  0.00000000000E+00  0.91285848524E+03  0.91285848524E+03  0.00000000000E+00 0. -1.
          1   -1    0    0  501    0  0.00000000000E+00 -0.00000000000E+00 -0.20760856686E+02  0.20760856686E+02  0.00000000000E+00 0. -1.
         36    2    1    2    0    0  0.00000000000E+00 -0.14210854715E-13  0.89209762855E+03  0.93361934192E+03  0.27533052273E+03 0.  0.
         25    2    3    3    0    0 -0.92537706711E+01  0.68260139079E+02  0.36407807309E+03  0.39142875914E+03  0.12616874142E+03 0.  0.
         25    2    3    3    0    0  0.92537706711E+01 -0.68260139079E+02  0.52801955546E+03  0.54219058279E+03  0.10208280101E+03 0.  0.
          5    1    4    4  502    0 -0.59578002361E+02  0.44887953449E+02  0.12238550150E+03  0.14340421091E+03  0.47000000000E+01 0.  1.
         -5    1    4    4    0  502  0.50324231690E+02  0.23372185630E+02  0.24169257160E+03  0.24802454823E+03  0.47000000000E+01 0.  1.
          5    1    5    5  503    0  0.36849366361E+02  0.77773009601E+01  0.10926259189E+03  0.11566661661E+03  0.47000000000E+01 0.  1.
         -5    1    5    5    0  503 -0.27595595690E+02 -0.76037440039E+02  0.41875696357E+03  0.42652396618E+03  0.47000000000E+01 0.  1.
<mgrwt>
<rscale>  0 0.27533052E+03</rscale>
<asrwt>0</asrwt>
<pdfrwt beam="1">  1        1 0.31939787E-02 0.27533052E+03</pdfrwt>
<pdfrwt beam="2">  1       -1 0.14043974E+00 0.27533052E+03</pdfrwt>
<totfact> 0.13987975E+03</totfact>
</mgrwt>
</event>
<event>
 9    1  0.2073852E-002  0.2747335E+03  0.7818608E-02  0.1098601E+00
          2   -1    0    0  501    0  0.00000000000E+00  0.00000000000E+00  0.13765598182E+03  0.13765598182E+03  0.00000000000E+00 0. -1.
         -2   -1    0    0    0  501 -0.00000000000E+00 -0.00000000000E+00 -0.13707811414E+03  0.13707811414E+03  0.00000000000E+00 0. -1.
         36    2    1    2    0    0  0.71054273576E-14  0.53290705182E-14  0.57786767221E+00  0.27473409596E+03  0.27473348822E+03 0.  0.
         25    2    3    3    0    0  0.19988064025E+02  0.13658898138E+02 -0.46691660857E+02  0.13688460976E+03  0.12637720124E+03 0.  0.
         25    2    3    3    0    0 -0.19988064025E+02 -0.13658898138E+02  0.47269528529E+02  0.13784948620E+03  0.12720842864E+03 0.  0.
          5    1    4    4  502    0 -0.25057153535E+02  0.18955384013E+02 -0.76209458904E+02  0.82565968490E+02  0.47000000000E+01 0. -1.
         -5    1    4    4    0  502  0.45045217560E+02 -0.52964858749E+01  0.29517798047E+02  0.54318641268E+02  0.47000000000E+01 0. -1.
          5    1    5    5  503    0  0.25948256638E+02 -0.46345939126E+02  0.59573797010E+02  0.79952394500E+02  0.47000000000E+01 0.  1.
         -5    1    5    5    0  503 -0.45936320663E+02  0.32687040988E+02 -0.12304268481E+02  0.57897091701E+02  0.47000000000E+01 0.  1.
<mgrwt>
<rscale>  0 0.27473349E+03</rscale>
<asrwt>0</asrwt>
<pdfrwt beam="1">  1        2 0.21177843E-01 0.27473349E+03</pdfrwt>
<pdfrwt beam="2">  1       -2 0.21088941E-01 0.27473349E+03</pdfrwt>
<totfact> 0.49501705E+03</totfact>
</mgrwt>
</event>
<event>
 9    1  0.2073852E-002  0.2745471E+03  0.7818608E-02  0.1098705E+00
         -2   -1    0    0    0  501 -0.00000000000E+00  0.00000000000E+00  0.10554950248E+03  0.10554950248E+03  0.00000000000E+00 0.  1.
          2   -1    0    0  501    0  0.00000000000E+00 -0.00000000000E+00 -0.17853259360E+03  0.17853259360E+03  0.00000000000E+00 0.  1.
         36    2    1    2    0    0  0.71054273576E-14  0.71054273576E-14 -0.72983091127E+02  0.28408209608E+03  0.27454709200E+03 0.  0.
         25    2    3    3    0    0 -0.37769968339E+02 -0.36378470245E+02 -0.10017476018E+02  0.13603875870E+03  0.12512485939E+03 0.  0.
         25    2    3    3    0    0  0.37769968339E+02  0.36378470245E+02 -0.62965615109E+02  0.14804333738E+03  0.12329719158E+03 0.  0.
          5    1    4    4  502    0 -0.20392495428E+02 -0.55925192708E+02 -0.56686706127E+02  0.82334401684E+02  0.47000000000E+01 0. -1.
         -5    1    4    4    0  502 -0.17377472911E+02  0.19546722462E+02  0.46669230109E+02  0.53704357018E+02  0.47000000000E+01 0. -1.
          5    1    5    5  503    0  0.24209372760E+01  0.72570058069E+02 -0.80138519228E+01  0.73202363951E+02  0.47000000000E+01 0. -1.
         -5    1    5    5    0  503  0.35349031063E+02 -0.36191587824E+02 -0.54951763186E+02  0.74840973427E+02  0.47000000000E+01 0. -1.
<mgrwt>
<rscale>  0 0.27454709E+03</rscale>
<asrwt>0</asrwt>
<pdfrwt beam="1">  1        2 0.27466553E-01 0.27454709E+03</pdfrwt>
<pdfrwt beam="2">  1       -2 0.16238385E-01 0.27454709E+03</pdfrwt>
<totfact> 0.57568276E+03</totfact>
</mgrwt>
</event>
<event>
 9    1  0.2073852E-002  0.2753276E+03  0.7818608E-02  0.1098269E+00
         -2   -1    0    0    0  501 -0.00000000000E+00  0.00000000000E+00  0.29476622782E+03  0.29476622782E+03  0.00000000000E+00 0. -1.
          2   -1    0    0  501    0  0.00000000000E+00 -0.00000000000E+00 -0.64292718208E+02  0.64292718208E+02  0.00000000000E+00 0. -1.
         36    2    1    2    0    0  0.00000000000E+00  0.00000000000E+00  0.23047350962E+03  0.35905894603E+03  0.27532760140E+03 0.  0.
         25    2    3    3    0    0 -0.19919564016E+02 -0.25148212468E+02  0.92837530801E+02  0.16879453934E+03  0.13727187536E+03 0.  0.
         25    2    3    3    0    0  0.19919564016E+02  0.25148212468E+02  0.13763597881E+03  0.19026440669E+03  0.12738783368E+03 0.  0.
          5    1    4    4  502    0  0.23538771423E+02 -0.63477296792E+01 -0.28892448119E+02  0.38095025797E+02  0.47000000000E+01 0.  1.
         -5    1    4    4    0  502 -0.43458335440E+02 -0.18800482789E+02  0.12172997892E+03  0.13069951354E+03  0.47000000000E+01 0.  1.
          5    1    5    5  503    0  0.42936260400E+02  0.52775151982E+02  0.26167001906E+02  0.73044788402E+02  0.47000000000E+01 0. -1.
         -5    1    5    5    0  503 -0.23016696384E+02 -0.27626939514E+02  0.11146897691E+03  0.11721961829E+03  0.47000000000E+01 0. -1.
<mgrwt>
<rscale>  0 0.27532760E+03</rscale>
<asrwt>0</asrwt>
<pdfrwt beam="1">  1        2 0.98911876E-02 0.27532760E+03</pdfrwt>
<pdfrwt beam="2">  1       -2 0.45348650E-01 0.27532760E+03</pdfrwt>
<totfact> 0.30189941E+03</totfact>
</mgrwt>
</event>
<event>
 9    1  0.2073852E-002  0.2746357E+03  0.7818608E-02  0.1098655E+00
         -1   -1    0    0    0  501 -0.00000000000E+00  0.00000000000E+00  0.11922508533E+03  0.11922508533E+03  0.00000000000E+00 0.  1.
          1   -1    0    0  501    0  0.00000000000E+00 -0.00000000000E+00 -0.15815629095E+03  0.15815629095E+03  0.00000000000E+00 0.  1.
         36    2    1    2    0    0 -0.35527136788E-14  0.00000000000E+00 -0.38931205617E+02  0.27738137628E+03  0.27463573900E+03 0.  0.
         25    2    3    3    0    0  0.24400282365E+02  0.13491793708E+02 -0.70222456799E+02  0.14659923777E+03  0.12562937872E+03 0.  0.
         25    2    3    3    0    0 -0.24400282365E+02 -0.13491793708E+02  0.31291251182E+02  0.13078213851E+03  0.12388471688E+03 0.  0.
          5    1    4    4  502    0  0.18251186747E+02  0.57174388622E+02  0.37789075509E+01  0.60319040727E+02  0.47000000000E+01 0. -1.
         -5    1    4    4    0  502  0.61490956178E+01 -0.43682594914E+02 -0.74001364350E+02  0.86280197039E+02  0.47000000000E+01 0. -1.
          5    1    5    5  503    0  0.29359222797E+02 -0.41162700710E+02 -0.16690668729E+02  0.53450915012E+02  0.47000000000E+01 0.  1.
         -5    1    5    5    0  503 -0.53759505161E+02  0.27670907003E+02  0.47981919911E+02  0.77331223499E+02  0.47000000000E+01 0.  1.
<mgrwt>
<rscale>  0 0.27463574E+03</rscale>
<asrwt>0</asrwt>
<pdfrwt beam="1">  1        1 0.24331737E-01 0.27463574E+03</pdfrwt>
<pdfrwt beam="2">  1       -1 0.18342321E-01 0.27463574E+03</pdfrwt>
<totfact> 0.45711437E+03</totfact>
</mgrwt>
</event>
<event>
 9    1  0.2073852E-002  0.2768053E+03  0.7818608E-02  0.1097447E+00
          1   -1    0    0  501    0  0.00000000000E+00  0.00000000000E+00  0.14256043642E+04  0.14256043642E+04  0.00000000000E+00 0.  1.
         -1   -1    0    0    0  501 -0.00000000000E+00 -0.00000000000E+00 -0.13436609908E+02  0.13436609908E+02  0.00000000000E+00 0.  1.
         36    2    1    2    0    0  0.71054273576E-14  0.00000000000E+00  0.14121677543E+04  0.14390409741E+04  0.27680527252E+03 0.  0.
         25    2    3    3    0    0  0.58953738552E+02 -0.95653381216E+01  0.72988286584E+03  0.74190486591E+03  0.11885618716E+03 0.  0.
         25    2    3    3    0    0 -0.58953738552E+02  0.95653381216E+01  0.68228488842E+03  0.69713610817E+03  0.13007323078E+03 0.  0.
          5    1    4    4  502    0  0.73940291622E+02  0.19272830940E+02  0.66289865431E+03  0.66730452166E+03  0.47000000000E+01 0.  1.
         -5    1    4    4    0  502 -0.14986553070E+02 -0.28838169062E+02  0.66984211528E+02  0.74600344247E+02  0.47000000000E+01 0.  1.
          5    1    5    5  503    0  0.24423876212E+02  0.35175757474E+02  0.38150033491E+03  0.38392506454E+03  0.47000000000E+01 0. -1.
         -5    1    5    5    0  503 -0.83377614764E+02 -0.25610419353E+02  0.30078455351E+03  0.31321104363E+03  0.47000000000E+01 0. -1.
<mgrwt>
<rscale>  0 0.27680527E+03</rscale>
<asrwt>0</asrwt>
<pdfrwt beam="1">  1        1 0.21932363E+00 0.27680527E+03</pdfrwt>
<pdfrwt beam="2">  1       -1 0.20671719E-02 0.27680527E+03</pdfrwt>
<totfact> 0.52412997E+03</totfact>
</mgrwt>
</event>
<event>
 9    1  0.2073852E-002  0.2729729E+03  0.7818608E-02  0.1099590E+00
          1   -1    0    0  501    0  0.00000000000E+00  0.00000000000E+00  0.13948605552E+04  0.13948605552E+04  0.00000000000E+00 0. -1.
         -1   -1    0    0    0  501 -0.00000000000E+00 -0.00000000000E+00 -0.13355138420E+02  0.13355138420E+02  0.00000000000E+00 0. -1.
         36    2    1    2    0    0  0.00000000000E+00 -0.35527136788E-14  0.13815054168E+04  0.14082156936E+04  0.27297293486E+03 0.  0.
         25    2    3    3    0    0 -0.22595807505E+02  0.31340226301E+00  0.92258185522E+03  0.93160556193E+03  0.12736159038E+03 0.  0.
         25    2    3    3    0    0  0.22595807505E+02 -0.31340226301E+00  0.45892356158E+03  0.47661013171E+03  0.12663219786E+03 0.  0.
          5    1    4    4  502    0 -0.69102481651E+02  0.23107011226E+02  0.65164695202E+03  0.65572473418E+03  0.47000000000E+01 0.  1.
         -5    1    4    4    0  502  0.46506674146E+02 -0.22793608963E+02  0.27093490320E+03  0.27588082775E+03  0.47000000000E+01 0.  1.
          5    1    5    5  503    0 -0.23193896365E+02 -0.48556193443E+02  0.12625326040E+03  0.13732310989E+03  0.47000000000E+01 0.  1.
         -5    1    5    5    0  503  0.45789703870E+02  0.48242791180E+02  0.33267030118E+03  0.33928702181E+03  0.47000000000E+01 0.  1.
<mgrwt>
<rscale>  0 0.27297293E+03</rscale>
<asrwt>0</asrwt>
<pdfrwt beam="1">  1        1 0.21459382E+00 0.27297293E+03</pdfrwt>
<pdfrwt beam="2">  1       -1 0.20546378E-02 0.27297293E+03</pdfrwt>
<totfact> 0.55444695E+03</totfact>
</mgrwt>
</event>
<event>
 9    1  0.2073852E-002  0.2735120E+03  0.7818608E-02  0.1099286E+00
         -2   -1    0    0    0  501 -0.00000000000E+00  0.00000000000E+00  0.14941362293E+02  0.14941362293E+02  0.00000000000E+00 0.  1.
          2   -1    0    0  501    0  0.00000000000E+00 -0.00000000000E+00 -0.12517065650E+04  0.12517065650E+04  0.00000000000E+00 0.  1.
         36    2    1    2    0    0  0.00000000000E+00  0.71054273576E-14 -0.12367652027E+04  0.12666479273E+04  0.27351198345E+03 0.  0.
         25    2    3    3    0    0 -0.31764389699E+01  0.54640944012E+02 -0.55762792962E+03  0.57400876785E+03  0.12466529247E+03 0.  0.
         25    2    3    3    0    0  0.31764389699E+01 -0.54640944012E+02 -0.67913727312E+03  0.69263915948E+03  0.12460275669E+03 0.  0.
          5    1    4    4  502    0 -0.20717491999E+02 -0.36996641995E+02 -0.16641664319E+03  0.17179800675E+03  0.47000000000E+01 0.  1.
         -5    1    4    4    0  502  0.17541053029E+02  0.91637586007E+02 -0.39121128644E+03  0.40221076110E+03  0.47000000000E+01 0.  1.
          5    1    5    5  503    0 -0.55384244036E+02 -0.53427749310E+02 -0.40539469235E+03  0.41266073895E+03  0.47000000000E+01 0.  1.
         -5    1    5    5    0  503  0.58560683006E+02 -0.12131947022E+01 -0.27374258077E+03  0.27997842053E+03  0.47000000000E+01 0.  1.
<mgrwt>
<rscale>  0 0.27351198E+03</rscale>
<asrwt>0</asrwt>
<pdfrwt beam="1">  1        2 0.19257027E+00 0.27351198E+03</pdfrwt>
<pdfrwt beam="2">  1       -2 0.22986708E-02 0.27351198E+03</pdfrwt>
<totfact> 0.11739230E+04</totfact>
</mgrwt>
</event>
<event>
 9    1  0.2073852E-002  0.2754754E+03  0.7818608E-02  0.1098186E+00
          2   -1    0    0  501    0  0.00000000000E+00  0.00000000000E+00  0.10350007366E+03  0.10350007366E+03  0.00000000000E+00 0. -1.
         -2   -1    0    0    0  501 -0.00000000000E+00 -0.00000000000E+00 -0.18330109755E+03  0.18330109755E+03  0.00000000000E+00 0. -1.
         36    2    1    2    0    0  0.14210854715E-13  0.35527136788E-14 -0.79801023893E+02  0.28680117121E+03  0.27547542248E+03 0.  0.
         25    2    3    3    0    0 -0.54749146054E+02  0.17469181617E+02 -0.22717545314E+02  0.13819734332E+03  0.12361139727E+03 0.  0.
         25    2    3    3    0    0  0.54749146054E+02 -0.17469181617E+02 -0.57083478578E+02  0.14860382788E+03  0.12458704923E+03 0.  0.
          5    1    4    4  502    0 -0.22310034821E+01  0.52720503362E+02  0.25239169878E+02  0.58681637225E+02  0.47000000000E+01 0.  1.
         -5    1    4    4    0  502 -0.52518142572E+02 -0.35251321745E+02 -0.47956715193E+02  0.79515706097E+02  0.47000000000E+01 0.  1.
          5    1    5    5  503    0 -0.14998994057E+02 -0.27227151058E+02  0.25129457113E+02  0.40247573743E+02  0.47000000000E+01 0. -1.
         -5    1    5    5    0  503  0.69748140112E+02  0.97579694410E+01 -0.82212935691E+02  0.10835625414E+03  0.47000000000E+01 0. -1.
<mgrwt>
<rscale>  0 0.27547542E+03</rscale>
<asrwt>0</asrwt>
<pdfrwt beam="1">  1        2 0.15923088E-01 0.27547542E+03</pdfrwt>
<pdfrwt beam="2">  1       -2 0.28200169E-01 0.27547542E+03</pdfrwt>
<totfact> 0.41306586E+03</totfact>
</mgrwt>
</event>
<event>
 9    1  0.2073852E-002  0.2714495E+03  0.7818608E-02  0.1100453E+00
         -2   -1    0    0    0  501 -0.00000000000E+00  0.00000000000E+00  0.66936061881E+02  0.66936061881E+02  0.00000000000E+00 0.  1.
          2   -1    0    0  501    0  0.00000000000E+00 -0.00000000000E+00 -0.27520592996E+03  0.27520592996E+03  0.00000000000E+00 0.  1.
         36    2    1    2    0    0  0.14210854715E-13  0.00000000000E+00 -0.20826986808E+03  0.34214199184E+03  0.27144945134E+03 0.  0.
         25    2    3    3    0    0 -0.32002532094E+02  0.45374023427E+01 -0.52954549424E+02  0.14132747330E+03  0.12698236226E+03 0.  0.
         25    2    3    3    0    0  0.32002532094E+02 -0.45374023427E+01 -0.15531531865E+03  0.20081451854E+03  0.12312137331E+03 0.  0.
          5    1    4    4  502    0 -0.73674507276E+02  0.25480699702E+02 -0.53121794852E+02  0.94452179266E+02  0.47000000000E+01 0.  1.
         -5    1    4    4    0  502  0.41671975182E+02 -0.20943297359E+02  0.16724542877E+00  0.46875294035E+02  0.47000000000E+01 0.  1.
          5    1    5    5  503    0  0.30968134805E+02 -0.32933268885E+01 -0.17638070181E+03  0.17917062635E+03  0.47000000000E+01 0. -1.
         -5    1    5    5    0  503  0.10343972888E+01 -0.12440754542E+01  0.21065383157E+02  0.21643892188E+02  0.47000000000E+01 0. -1.
<mgrwt>
<rscale>  0 0.27144945E+03</rscale>
<asrwt>0</asrwt>
<pdfrwt beam="1">  1        2 0.42339374E-01 0.27144945E+03</pdfrwt>
<pdfrwt beam="2">  1       -2 0.10297856E-01 0.27144945E+03</pdfrwt>
<totfact> 0.75396068E+03</totfact>
</mgrwt>
</event>
<event>
 9    1  0.2073852E-002  0.2752247E+03  0.7818608E-02  0.1098326E+00
          2   -1    0    0  501    0  0.00000000000E+00  0.00000000000E+00  0.10504829325E+03  0.10504829325E+03  0.00000000000E+00 0. -1.
         -2   -1    0    0    0  501 -0.00000000000E+00 -0.00000000000E+00 -0.18027102081E+03  0.18027102081E+03  0.00000000000E+00 0. -1.
         36    2    1    2    0    0  0.71054273576E-14 -0.35527136788E-14 -0.75222727559E+02  0.28531931407E+03  0.27522473043E+03 0.  0.
         25    2    3    3    0    0  0.40429681940E+02 -0.16961246479E+02 -0.47008359118E+01  0.13512611212E+03  0.12772910887E+03 0.  0.
         25    2    3    3    0    0 -0.40429681940E+02  0.16961246479E+02 -0.70521891647E+02  0.15019320195E+03  0.12514958109E+03 0.  0.
          5    1    4    4  502    0  0.34876694182E+02  0.52766433118E+02 -0.12307784943E+02  0.64608450154E+02  0.47000000000E+01 0. -1.
         -5    1    4    4    0  502  0.55529877586E+01 -0.69727679598E+02  0.76069490310E+01  0.70517661963E+02  0.47000000000E+01 0. -1.
          5    1    5    5  503    0 -0.83549773578E+02  0.20308338844E+02 -0.61355614682E+02  0.10573360272E+03  0.47000000000E+01 0.  1.
         -5    1    5    5    0  503  0.43120091638E+02 -0.33470923652E+01 -0.91662769653E+01  0.44459599228E+02  0.47000000000E+01 0.  1.
<mgrwt>
<rscale>  0 0.27522473E+03</rscale>
<asrwt>0</asrwt>
<pdfrwt beam="1">  1        2 0.16161276E-01 0.27522473E+03</pdfrwt>
<pdfrwt beam="2">  1       -2 0.27734003E-01 0.27522473E+03</pdfrwt>
<totfact> 0.41823782E+03</totfact>
</mgrwt>
</event>
<event>
 9    1  0.2073852E-002  0.2740088E+03  0.7818608E-02  0.1099007E+00
         -2   -1    0    0    0  501 -0.00000000000E+00  0.00000000000E+00  0.66916908023E+01  0.66916908023E+01  0.00000000000E+00 0. -1.
          2   -1    0    0  501    0  0.00000000000E+00 -0.00000000000E+00 -0.28050010296E+04  0.28050010296E+04  0.00000000000E+00 0. -1.
         36    2    1    2    0    0  0.00000000000E+00  0.00000000000E+00 -0.27983093388E+04  0.28116927204E+04  0.27400875599E+03 0.  0.
         25    2    3    3    0    0 -0.44923594729E+02  0.37613962658E+02 -0.16307790268E+04  0.16361100032E+04  0.11824875733E+03 0.  0.
         25    2    3    3    0    0  0.44923594729E+02 -0.37613962658E+02 -0.11675303120E+04  0.11755827172E+04  0.12423669392E+03 0.  0.
          5    1    4    4  502    0 -0.53820892419E+02  0.64133173677E+02 -0.71638594816E+03  0.72127710982E+03  0.47000000000E+01 0. -1.
         -5    1    4    4    0  502  0.88972976895E+01 -0.26519211019E+02 -0.91439307866E+03  0.91483289335E+03  0.47000000000E+01 0. -1.
          5    1    5    5  503    0  0.32447691056E+01 -0.11969822018E+02 -0.10198196540E+04  0.10199058887E+04  0.47000000000E+01 0. -1.
         -5    1    5    5    0  503  0.41678825624E+02 -0.25644140640E+02 -0.14771065799E+03  0.15567682852E+03  0.47000000000E+01 0. -1.
<mgrwt>
<rscale>  0 0.27400876E+03</rscale>
<asrwt>0</asrwt>
<pdfrwt beam="1">  1        2 0.43153965E+00 0.27400876E+03</pdfrwt>
<pdfrwt beam="2">  1       -2 0.10294884E-02 0.27400876E+03</pdfrwt>
<totfact> 0.55321475E+03</totfact>
</mgrwt>
</event>
<event>
 9    1  0.2073852E-002  0.2748877E+03  0.7818608E-02  0.1098514E+00
          1   -1    0    0  501    0  0.00000000000E+00  0.00000000000E+00  0.16023820514E+02  0.16023820514E+02  0.00000000000E+00 0. -1.
         -1   -1    0    0    0  501 -0.00000000000E+00 -0.00000000000E+00 -0.11789201764E+04  0.11789201764E+04  0.00000000000E+00 0. -1.
         36    2    1    2    0    0 -0.71054273576E-14  0.00000000000E+00 -0.11628963559E+04  0.11949439969E+04  0.27488765201E+03 0.  0.
         25    2    3    3    0    0 -0.18395786656E+02  0.25287206241E+02 -0.77468074512E+03  0.78503670857E+03  0.12318493892E+03 0.  0.
         25    2    3    3    0    0  0.18395786656E+02 -0.25287206241E+02 -0.38821561078E+03  0.40990728836E+03  0.12780757736E+03 0.  0.
          5    1    4    4  502    0 -0.20830304198E+02 -0.13361404229E+02 -0.29314917976E+02  0.38650784104E+02  0.47000000000E+01 0. -1.
         -5    1    4    4    0  502  0.24345175419E+01  0.38648610470E+02 -0.74536582715E+03  0.74638592447E+03  0.47000000000E+01 0. -1.
          5    1    5    5  503    0  0.42725677754E+02 -0.17071172537E+02 -0.41284202164E+02  0.61995030605E+02  0.47000000000E+01 0. -1.
         -5    1    5    5    0  503 -0.24329891098E+02 -0.82160337042E+01 -0.34693140862E+03  0.34791225775E+03  0.47000000000E+01 0. -1.
<mgrwt>
<rscale>  0 0.27488765E+03</rscale>
<asrwt>0</asrwt>
<pdfrwt beam="1">  1        1 0.24652042E-02 0.27488765E+03</pdfrwt>
<pdfrwt beam="2">  1       -1 0.18137226E+00 0.27488765E+03</pdfrwt>
<totfact> 0.10061737E+03</totfact>
</mgrwt>
</event>
<event>
 9    1  0.2073852E-002  0.2744226E+03  0.7818608E-02  0.1098775E+00
         -2   -1    0    0    0  501 -0.00000000000E+00  0.00000000000E+00  0.24370250421E+03  0.24370250421E+03  0.00000000000E+00 0. -1.
          2   -1    0    0  501    0  0.00000000000E+00 -0.00000000000E+00 -0.77253801618E+02  0.77253801618E+02  0.00000000000E+00 0. -1.
         36    2    1    2    0    0  0.00000000000E+00  0.00000000000E+00  0.16644870259E+03  0.32095630583E+03  0.27442262963E+03 0.  0.
         25    2    3    3    0    0  0.23347134412E+02 -0.48765178069E+02  0.88756338379E+02  0.16091431486E+03  0.12285193465E+03 0.  0.
         25    2    3    3    0    0 -0.23347134412E+02  0.48765178069E+02  0.77692364211E+02  0.16004199096E+03  0.12905116868E+03 0.  0.
          5    1    4    4  502    0  0.55728580795E+02 -0.60871695366E+02  0.94504128204E+02  0.12555539917E+03  0.47000000000E+01 0. -1.
         -5    1    4    4    0  502 -0.32381446383E+02  0.12106517297E+02 -0.57477898247E+01  0.35358915690E+02  0.47000000000E+01 0. -1.
          5    1    5    5  503    0  0.22805299203E+02  0.70729105783E+02  0.10062639573E+02  0.75140101090E+02  0.47000000000E+01 0. -1.
         -5    1    5    5    0  503 -0.46152433614E+02 -0.21963927714E+02  0.67629724639E+02  0.84901889872E+02  0.47000000000E+01 0. -1.
<mgrwt>
<rscale>  0 0.27442263E+03</rscale>
<asrwt>0</asrwt>
<pdfrwt beam="1">  1        2 0.11885200E-01 0.27442263E+03</pdfrwt>
<pdfrwt beam="2">  1       -2 0.37492693E-01 0.27442263E+03</pdfrwt>
<totfact> 0.34701022E+03</totfact>
</mgrwt>
</event>
<event>
 9    1  0.2073852E-002  0.2751342E+03  0.7818608E-02  0.1098377E+00
          2   -1    0    0  501    0  0.00000000000E+00  0.00000000000E+00  0.10613934764E+04  0.10613934764E+04  0.00000000000E+00 0. -1.
         -2   -1    0    0    0  501 -0.00000000000E+00 -0.00000000000E+00 -0.17830051872E+02  0.17830051872E+02  0.00000000000E+00 0. -1.
         36    2    1    2    0    0 -0.35527136788E-14  0.00000000000E+00  0.10435634245E+04  0.10792235283E+04  0.27513415448E+03 0.  0.
         25    2    3    3    0    0 -0.18796927265E+02  0.54165452354E+02  0.45935603832E+03  0.47921691023E+03  0.12390987208E+03 0.  0.
         25    2    3    3    0    0  0.18796927265E+02 -0.54165452354E+02  0.58420738619E+03  0.60000661803E+03  0.12418716076E+03 0.  0.
          5    1    4    4  502    0 -0.32595758068E+02  0.87664640549E+02  0.38689490779E+03  0.39806699476E+03  0.47000000000E+01 0.  1.
         -5    1    4    4    0  502  0.13798830804E+02 -0.33499188195E+02  0.72461130537E+02  0.81149915466E+02  0.47000000000E+01 0.  1.
          5    1    5    5  503    0  0.18502168439E+02 -0.88802664005E+02  0.50940457995E+03  0.51743923261E+03  0.47000000000E+01 0.  1.
         -5    1    5    5    0  503  0.29475882514E+00  0.34637211651E+02  0.74802806242E+02  0.82567385422E+02  0.47000000000E+01 0.  1.
<mgrwt>
<rscale>  0 0.27513415E+03</rscale>
<asrwt>0</asrwt>
<pdfrwt beam="1">  1        2 0.16329125E+00 0.27513415E+03</pdfrwt>
<pdfrwt beam="2">  1       -2 0.27430857E-02 0.27513415E+03</pdfrwt>
<totfact> 0.11637163E+04</totfact>
</mgrwt>
</event>
<event>
 9    1  0.2073852E-002  0.2749484E+03  0.7818608E-02  0.1098480E+00
         -2   -1    0    0    0  501 -0.00000000000E+00  0.00000000000E+00  0.12574148287E+02  0.12574148287E+02  0.00000000000E+00 0.  1.
          2   -1    0    0  501    0  0.00000000000E+00 -0.00000000000E+00 -0.15030170337E+04  0.15030170337E+04  0.00000000000E+00 0.  1.
         36    2    1    2    0    0  0.71054273576E-14  0.71054273576E-14 -0.14904428855E+04  0.15155911820E+04  0.27494842469E+03 0.  0.
         25    2    3    3    0    0  0.29608517982E+02  0.49260390530E+02 -0.72766273846E+03  0.74062661983E+03  0.12542519147E+03 0.  0.
         25    2    3    3    0    0 -0.29608517982E+02 -0.49260390530E+02 -0.76278014700E+03  0.77496456220E+03  0.12423071114E+03 0.  0.
          5    1    4    4  502    0  0.32708504027E+02  0.48294779854E+02 -0.73144076587E+03  0.73377783829E+03  0.47000000000E+01 0. -1.
         -5    1    4    4    0  502 -0.30999860444E+01  0.96561067511E+00  0.37780274119E+01  0.68487815396E+01  0.47000000000E+01 0. -1.
          5    1    5    5  503    0 -0.67146340335E+02 -0.11807414130E+01 -0.53083050939E+03  0.53508237204E+03  0.47000000000E+01 0. -1.
         -5    1    5    5    0  503  0.37537822353E+02 -0.48079649116E+02 -0.23194963761E+03  0.23988219016E+03  0.47000000000E+01 0. -1.
<mgrwt>
<rscale>  0 0.27494842E+03</rscale>
<asrwt>0</asrwt>
<pdfrwt beam="1">  1        2 0.23123326E+00 0.27494842E+03</pdfrwt>
<pdfrwt beam="2">  1       -2 0.19344855E-02 0.27494842E+03</pdfrwt>
<totfact> 0.11036756E+04</totfact>
</mgrwt>
</event>
<event>
 9    1  0.2073852E-002  0.2751751E+03  0.7818608E-02  0.1098354E+00
         -2   -1    0    0    0  501 -0.00000000000E+00  0.00000000000E+00  0.11857731809E+03  0.11857731809E+03  0.00000000000E+00 0. -1.
          2   -1    0    0  501    0  0.00000000000E+00 -0.00000000000E+00 -0.15964544740E+03  0.15964544740E+03  0.00000000000E+00 0. -1.
         36    2    1    2    0    0 -0.71054273576E-14 -0.17763568394E-14 -0.41068129310E+02  0.27822276549E+03  0.27517506427E+03 0.  0.
         25    2    3    3    0    0  0.30545201507E+01  0.15709322902E+02 -0.52348685277E+02  0.13705291126E+03  0.12564633984E+03 0.  0.
         25    2    3    3    0    0 -0.30545201507E+01 -0.15709322902E+02  0.11280555967E+02  0.14116985424E+03  0.13980545012E+03 0.  0.
          5    1    4    4  502    0 -0.74102309757E+01  0.67172028233E+02 -0.81099603356E+01  0.68226493070E+02  0.47000000000E+01 0.  1.
         -5    1    4    4    0  502  0.10464751126E+02 -0.51462705331E+02 -0.44238724941E+02  0.68826418188E+02  0.47000000000E+01 0.  1.
          5    1    5    5  503    0  0.64807769903E+02 -0.27841920615E+02 -0.23906552564E+01  0.70732063563E+02  0.47000000000E+01 0. -1.
         -5    1    5    5    0  503 -0.67862290054E+02  0.12132597713E+02  0.13671211223E+02  0.70437790673E+02  0.47000000000E+01 0. -1.
<mgrwt>
<rscale>  0 0.27517506E+03</rscale>
<asrwt>0</asrwt>
<pdfrwt beam="1">  1        2 0.24560838E-01 0.27517506E+03</pdfrwt>
<pdfrwt beam="2">  1       -2 0.18242664E-01 0.27517506E+03</pdfrwt>
<totfact> 0.53635917E+03</totfact>
</mgrwt>
</event>
<event>
 9    1  0.2073852E-002  0.2798173E+03  0.7818608E-02  0.1095789E+00
         -2   -1    0    0    0  501 -0.00000000000E+00  0.00000000000E+00  0.52061707739E+02  0.52061707739E+02  0.00000000000E+00 0. -1.
          2   -1    0    0  501    0  0.00000000000E+00 -0.00000000000E+00 -0.37598526731E+03  0.37598526731E+03  0.00000000000E+00 0. -1.
         36    2    1    2    0    0 -0.71054273576E-14  0.00000000000E+00 -0.32392355957E+03  0.42804697505E+03  0.27981733399E+03 0.  0.
         25    2    3    3    0    0  0.43012622602E+02 -0.29972761896E+02 -0.11333348078E+03  0.17831817263E+03  0.12729666400E+03 0.  0.
         25    2    3    3    0    0 -0.43012622602E+02  0.29972761896E+02 -0.21059007879E+03  0.24972880242E+03  0.12356310661E+03 0.  0.
          5    1    4    4  502    0  0.56511289545E+02  0.35421680429E+02 -0.77629233281E+02  0.10245296067E+03  0.47000000000E+01 0. -1.
         -5    1    4    4    0  502 -0.13498666943E+02 -0.65394442324E+02 -0.35704247503E+02  0.75865211961E+02  0.47000000000E+01 0. -1.
          5    1    5    5  503    0 -0.84651577240E+02  0.28030616796E+02 -0.11712580840E+03  0.14728255158E+03  0.47000000000E+01 0.  1.
         -5    1    5    5    0  503  0.41638954639E+02  0.19421450999E+01 -0.93464270390E+02  0.10244625084E+03  0.47000000000E+01 0.  1.
<mgrwt>
<rscale>  0 0.27981733E+03</rscale>
<asrwt>0</asrwt>
<pdfrwt beam="1">  1        2 0.57843887E-01 0.27981733E+03</pdfrwt>
<pdfrwt beam="2">  1       -2 0.80094936E-02 0.27981733E+03</pdfrwt>
<totfact> 0.80167491E+03</totfact>
</mgrwt>
</event>
<event>
 9    1  0.2073852E-002  0.2781585E+03  0.7818608E-02  0.1096699E+00
         -2   -1    0    0    0  501 -0.00000000000E+00  0.00000000000E+00  0.94286439412E+01  0.94286439412E+01  0.00000000000E+00 0. -1.
          2   -1    0    0  501    0  0.00000000000E+00 -0.00000000000E+00 -0.20515186292E+04  0.20515186292E+04  0.00000000000E+00 0. -1.
         36    2    1    2    0    0 -0.71054273576E-14  0.00000000000E+00 -0.20420899853E+04  0.20609472732E+04  0.27815850657E+03 0.  0.
         25    2    3    3    0    0 -0.41557008594E+02  0.87041156587E+01 -0.75236687355E+03  0.76432823591E+03  0.12782407131E+03 0.  0.
         25    2    3    3    0    0  0.41557008594E+02 -0.87041156587E+01 -0.12897231117E+04  0.12966190373E+04  0.12661941491E+03 0.  0.
          5    1    4    4  502    0 -0.78027908293E+02 -0.25220740032E+01 -0.28985744063E+03  0.30022348546E+03  0.47000000000E+01 0. -1.
         -5    1    4    4    0  502  0.36470899699E+02  0.11226189662E+02 -0.46250943291E+03  0.46410475045E+03  0.47000000000E+01 0. -1.
          5    1    5    5  503    0 -0.45596899524E+02 -0.55840935042E+01 -0.43206844403E+03  0.43452904353E+03  0.47000000000E+01 0.  1.
         -5    1    5    5    0  503  0.87153908118E+02 -0.31200221545E+01 -0.85765466770E+03  0.86208999372E+03  0.47000000000E+01 0.  1.
<mgrwt>
<rscale>  0 0.27815851E+03</rscale>
<asrwt>0</asrwt>
<pdfrwt beam="1">  1        2 0.31561833E+00 0.27815851E+03</pdfrwt>
<pdfrwt beam="2">  1       -2 0.14505602E-02 0.27815851E+03</pdfrwt>
<totfact> 0.86491474E+03</totfact>
</mgrwt>
</event>
<event>
 9    1  0.2073852E-002  0.2609583E+03  0.7818608E-02  0.1106569E+00
         -1   -1    0    0    0  501 -0.00000000000E+00  0.00000000000E+00  0.84002281000E+01  0.84002281000E+01  0.00000000000E+00 0.  1.
          1   -1    0    0  501    0  0.00000000000E+00 -0.00000000000E+00 -0.20267079571E+04  0.20267079571E+04  0.00000000000E+00 0.  1.
         36    2    1    2    0    0 -0.14210854715E-13  0.35527136788E-14 -0.20183077290E+04  0.20351081852E+04  0.26095830419E+03 0.  0.
         25    2    3    3    0    0 -0.35129472855E+02 -0.12128952583E+02 -0.10696966306E+04  0.10777706372E+04  0.12632289424E+03 0.  0.
         25    2    3    3    0    0  0.35129472855E+02  0.12128952583E+02 -0.94861109841E+03  0.95733754798E+03  0.12349483142E+03 0.  0.
          5    1    4    4  502    0  0.40528604448E+02  0.24389821847E+02 -0.38667267264E+03  0.38958346597E+03  0.47000000000E+01 0.  1.
         -5    1    4    4    0  502 -0.75658077303E+02 -0.36518774431E+02 -0.68302395793E+03  0.68818717124E+03  0.47000000000E+01 0.  1.
          5    1    5    5  503    0  0.79324891238E+02 -0.20678735516E+01 -0.49618714183E+03  0.50251416317E+03  0.47000000000E+01 0.  1.
         -5    1    5    5    0  503 -0.44195418383E+02  0.14196826135E+02 -0.45242395659E+03  0.45482338481E+03  0.47000000000E+01 0.  1.
<mgrwt>
<rscale>  0 0.26095830E+03</rscale>
<asrwt>0</asrwt>
<pdfrwt beam="1">  1        1 0.31180110E+00 0.26095830E+03</pdfrwt>
<pdfrwt beam="2">  1       -1 0.12923433E-02 0.26095830E+03</pdfrwt>
<totfact> 0.42020962E+03</totfact>
</mgrwt>
</event>
<event>
 9    1  0.2073852E-002  0.2774905E+03  0.7818608E-02  0.1097068E+00
          2   -1    0    0  501    0  0.00000000000E+00  0.00000000000E+00  0.20715673363E+04  0.20715673363E+04  0.00000000000E+00 0. -1.
         -2   -1    0    0    0  501 -0.00000000000E+00 -0.00000000000E+00 -0.92925968573E+01  0.92925968573E+01  0.00000000000E+00 0. -1.
         36    2    1    2    0    0 -0.14210854715E-13  0.00000000000E+00  0.20622747394E+04  0.20808599331E+04  0.27749046916E+03 0.  0.
         25    2    3    3    0    0  0.18280642600E+02 -0.23692834495E+02  0.14289528133E+04  0.14344846935E+04  0.12224835768E+03 0.  0.
         25    2    3    3    0    0 -0.18280642600E+02  0.23692834495E+02  0.63332192610E+03  0.64637523961E+03  0.12573287559E+03 0.  0.
          5    1    4    4  502    0  0.68462343190E+02 -0.26571164170E+02  0.72541107672E+03  0.72913403393E+03  0.47000000000E+01 0.  1.
         -5    1    4    4    0  502 -0.50181700591E+02  0.28783296749E+01  0.70354173658E+03  0.70535065958E+03  0.47000000000E+01 0.  1.
          5    1    5    5  503    0  0.51063054479E+02 -0.95083731127E+01  0.24558910349E+03  0.25106561383E+03  0.47000000000E+01 0.  1.
         -5    1    5    5    0  503 -0.69343697079E+02  0.33201207608E+02  0.38773282260E+03  0.39530962578E+03  0.47000000000E+01 0.  1.
<mgrwt>
<rscale>  0 0.27749047E+03</rscale>
<asrwt>0</asrwt>
<pdfrwt beam="1">  1        2 0.31870230E+00 0.27749047E+03</pdfrwt>
<pdfrwt beam="2">  1       -2 0.14296319E-02 0.27749047E+03</pdfrwt>
<totfact> 0.86221791E+03</totfact>
</mgrwt>
</event>
<event>
 9    1  0.2073852E-002  0.2750313E+03  0.7818608E-02  0.1098434E+00
          2   -1    0    0  501    0  0.00000000000E+00  0.00000000000E+00  0.11624701786E+04  0.11624701786E+04  0.00000000000E+00 0. -1.
         -2   -1    0    0    0  501 -0.00000000000E+00 -0.00000000000E+00 -0.16267561146E+02  0.16267561146E+02  0.00000000000E+00 0. -1.
         36    2    1    2    0    0 -0.35527136788E-14  0.00000000000E+00  0.11462026175E+04  0.11787377397E+04  0.27503130521E+03 0.  0.
         25    2    3    3    0    0 -0.64641163700E+01  0.54527862598E+02  0.67991025362E+03  0.69297460872E+03  0.12215065599E+03 0.  0.
         25    2    3    3    0    0  0.64641163700E+01 -0.54527862598E+02  0.46629236383E+03  0.48576313102E+03  0.12458803430E+03 0.  0.
          5    1    4    4  502    0 -0.51951023637E+02 -0.92082837525E+00  0.42283117051E+03  0.42603761047E+03  0.47000000000E+01 0. -1.
         -5    1    4    4    0  502  0.45486907267E+02  0.55448690973E+02  0.25707908311E+03  0.26693699826E+03  0.47000000000E+01 0. -1.
          5    1    5    5  503    0  0.34698212979E+02 -0.40424983882E+01  0.38083493441E+03  0.38246260608E+03  0.47000000000E+01 0. -1.
         -5    1    5    5    0  503 -0.28234096609E+02 -0.50485364210E+02  0.85457429420E+02  0.10330052494E+03  0.47000000000E+01 0. -1.
<mgrwt>
<rscale>  0 0.27503131E+03</rscale>
<asrwt>0</asrwt>
<pdfrwt beam="1">  1        2 0.17884150E+00 0.27503131E+03</pdfrwt>
<pdfrwt beam="2">  1       -2 0.25027026E-02 0.27503131E+03</pdfrwt>
<totfact> 0.11634045E+04</totfact>
</mgrwt>
</event>
<event>
 9    1  0.2073852E-002  0.2746930E+03  0.7818608E-02  0.1098623E+00
         -2   -1    0    0    0  501 -0.00000000000E+00  0.00000000000E+00  0.97419821298E+01  0.97419821298E+01  0.00000000000E+00 0. -1.
          2   -1    0    0  501    0  0.00000000000E+00 -0.00000000000E+00 -0.19363684807E+04  0.19363684807E+04  0.00000000000E+00 0. -1.
         36    2    1    2    0    0  0.35527136788E-14  0.00000000000E+00 -0.19266264986E+04  0.19461104628E+04  0.27469304422E+03 0.  0.
         25    2    3    3    0    0  0.22216501886E+02  0.45538865768E+02 -0.87572134430E+03  0.88629766272E+03  0.12676084899E+03 0.  0.
         25    2    3    3    0    0 -0.22216501886E+02 -0.45538865768E+02 -0.10509051543E+04  0.10598128001E+04  0.12741336956E+03 0.  0.
          5    1    4    4  502    0  0.58336886698E+02 -0.13503655526E+02 -0.26906302498E+03  0.27568558626E+03  0.47000000000E+01 0. -1.
         -5    1    4    4    0  502 -0.36120384812E+02  0.59042521294E+02 -0.60665831932E+03  0.61061207646E+03  0.47000000000E+01 0. -1.
          5    1    5    5  503    0 -0.40650048764E+02 -0.35620181377E+02 -0.16585592723E+03  0.17450358845E+03  0.47000000000E+01 0. -1.
         -5    1    5    5    0  503  0.18433546878E+02 -0.99186843911E+01 -0.88504922704E+03  0.88530921165E+03  0.47000000000E+01 0. -1.
<mgrwt>
<rscale>  0 0.27469304E+03</rscale>
<asrwt>0</asrwt>
<pdfrwt beam="1">  1        2 0.29790266E+00 0.27469304E+03</pdfrwt>
<pdfrwt beam="2">  1       -2 0.14987674E-02 0.27469304E+03</pdfrwt>
<totfact> 0.94787431E+03</totfact>
</mgrwt>
</event>
<event>
 9    1  0.2073852E-002  0.2751644E+03  0.7818608E-02  0.1098360E+00
          2   -1    0    0  501    0  0.00000000000E+00  0.00000000000E+00  0.30067029749E+04  0.30067029749E+04  0.00000000000E+00 0.  1.
         -2   -1    0    0    0  501 -0.00000000000E+00 -0.00000000000E+00 -0.62955538914E+01  0.62955538914E+01  0.00000000000E+00 0.  1.
         36    2    1    2    0    0 -0.35527136788E-14  0.00000000000E+00  0.30004074210E+04  0.30129985288E+04  0.27516439169E+03 0.  0.
         25    2    3    3    0    0  0.17305196468E+02  0.40221073566E+02  0.20030136624E+04  0.20072582986E+04  0.12290215997E+03 0.  0.
         25    2    3    3    0    0 -0.17305196468E+02 -0.40221073566E+02  0.99739375859E+03  0.10057402302E+04  0.12166304428E+03 0.  0.
          5    1    4    4  502    0 -0.15439691118E+02  0.51304074951E+01  0.37426805618E+02  0.41079933321E+02  0.47000000000E+01 0. -1.
         -5    1    4    4    0  502  0.32744887586E+02  0.35090666071E+02  0.19655868568E+04  0.19661783653E+04  0.47000000000E+01 0. -1.
          5    1    5    5  503    0  0.90715522663E+01 -0.65071065029E+02  0.88727560363E+03  0.88971715920E+03  0.47000000000E+01 0. -1.
         -5    1    5    5    0  503 -0.26376748734E+02  0.24849991463E+02  0.11011815496E+03  0.11602307098E+03  0.47000000000E+01 0. -1.
<mgrwt>
<rscale>  0 0.27516439E+03</rscale>
<asrwt>0</asrwt>
<pdfrwt beam="1">  1        2 0.46256854E+00 0.27516439E+03</pdfrwt>
<pdfrwt beam="2">  1       -2 0.96854915E-03 0.27516439E+03</pdfrwt>
<totfact> 0.46111754E+03</totfact>
</mgrwt>
</event>
<event>
 9    1  0.2073852E-002  0.2746433E+03  0.7818608E-02  0.1098651E+00
          3   -1    0    0  501    0  0.00000000000E+00  0.00000000000E+00  0.87995743138E+02  0.87995743138E+02  0.00000000000E+00 0. -1.
         -3   -1    0    0    0  501 -0.00000000000E+00 -0.00000000000E+00 -0.21429714100E+03  0.21429714100E+03  0.00000000000E+00 0. -1.
         36    2    1    2    0    0  0.00000000000E+00  0.71054273576E-14 -0.12630139787E+03  0.30229288414E+03  0.27464330449E+03 0.  0.
         25    2    3    3    0    0  0.92201522201E+01  0.33575639227E+02 -0.14472832204E+02  0.13064502627E+03  0.12508527196E+03 0.  0.
         25    2    3    3    0    0 -0.92201522201E+01 -0.33575639227E+02 -0.11182856566E+03  0.17164785787E+03  0.12547917858E+03 0.  0.
          5    1    4    4  502    0  0.34812401472E+01 -0.39766925221E+02 -0.35883686598E+02  0.53881873931E+02  0.47000000000E+01 0. -1.
         -5    1    4    4    0  502  0.57389120729E+01  0.73342564448E+02  0.21410854394E+02  0.76763152342E+02  0.47000000000E+01 0. -1.
          5    1    5    5  503    0 -0.64459184231E+02  0.12863464086E+01 -0.52389631101E+02  0.83206998298E+02  0.47000000000E+01 0.  1.
         -5    1    5    5    0  503  0.55239032011E+02 -0.34861985636E+02 -0.59438934560E+02  0.88440859571E+02  0.47000000000E+01 0.  1.
<mgrwt>
<rscale>  0 0.27464330E+03</rscale>
<asrwt>0</asrwt>
<pdfrwt beam="1">  1        3 0.13537807E-01 0.27464330E+03</pdfrwt>
<pdfrwt beam="2">  1       -3 0.32968791E-01 0.27464330E+03</pdfrwt>
<totfact> 0.10122072E+03</totfact>
</mgrwt>
</event>
<event>
 9    1  0.2073852E-002  0.2749348E+03  0.7818608E-02  0.1098488E+00
         -2   -1    0    0    0  501 -0.00000000000E+00  0.00000000000E+00  0.22253173863E+03  0.22253173863E+03  0.00000000000E+00 0. -1.
          2   -1    0    0  501    0  0.00000000000E+00 -0.00000000000E+00 -0.84919528527E+02  0.84919528527E+02  0.00000000000E+00 0. -1.
         36    2    1    2    0    0  0.00000000000E+00 -0.71054273576E-14  0.13761221011E+03  0.30745126716E+03  0.27493483102E+03 0.  0.
         25    2    3    3    0    0 -0.10486499779E+02  0.35684498582E+02  0.11961178031E+03  0.17698891422E+03  0.12503898453E+03 0.  0.
         25    2    3    3    0    0  0.10486499779E+02 -0.35684498582E+02  0.18000429799E+02  0.13046235294E+03  0.12374594920E+03 0.  0.
          5    1    4    4  502    0 -0.10650678708E+02  0.72834425543E+02  0.11843377429E+03  0.13952397427E+03  0.47000000000E+01 0. -1.
         -5    1    4    4    0  502  0.16417892938E+00 -0.37149926961E+02  0.11780060137E+01  0.37464939958E+02  0.47000000000E+01 0. -1.
          5    1    5    5  503    0 -0.24428394319E+02 -0.17250720426E+02 -0.46029107156E+02  0.55091764446E+02  0.47000000000E+01 0.  1.
         -5    1    5    5    0  503  0.34914894098E+02 -0.18433778156E+02  0.64029536955E+02  0.75370588492E+02  0.47000000000E+01 0.  1.
<mgrwt>
<rscale>  0 0.27493483E+03</rscale>
<asrwt>0</asrwt>
<pdfrwt beam="1">  1        2 0.13064543E-01 0.27493483E+03</pdfrwt>
<pdfrwt beam="2">  1       -2 0.34235652E-01 0.27493483E+03</pdfrwt>
<totfact> 0.36682072E+03</totfact>
</mgrwt>
</event>
<event>
 9    1  0.2073852E-002  0.2752564E+03  0.7818608E-02  0.1098308E+00
          2   -1    0    0  501    0  0.00000000000E+00  0.00000000000E+00  0.25782215663E+03  0.25782215663E+03  0.00000000000E+00 0. -1.
         -2   -1    0    0    0  501 -0.00000000000E+00 -0.00000000000E+00 -0.73467403547E+02  0.73467403547E+02  0.00000000000E+00 0. -1.
         36    2    1    2    0    0  0.00000000000E+00  0.71054273576E-14  0.18435475309E+03  0.33128956018E+03  0.27525642172E+03 0.  0.
         25    2    3    3    0    0 -0.22880038547E+02 -0.31522366087E+02  0.41023221952E+02  0.13559127067E+03  0.12322715697E+03 0.  0.
         25    2    3    3    0    0  0.22880038547E+02  0.31522366087E+02  0.14333153113E+03  0.19569828951E+03  0.12742345535E+03 0.  0.
          5    1    4    4  502    0 -0.15641696597E+02 -0.20608995265E+02  0.85257374105E+02  0.89220531255E+02  0.47000000000E+01 0. -1.
         -5    1    4    4    0  502 -0.72383419506E+01 -0.10913370822E+02 -0.44234152153E+02  0.46370739411E+02  0.47000000000E+01 0. -1.
          5    1    5    5  503    0  0.24703592288E+02 -0.27959186136E+02 -0.29357401117E+01  0.37718591322E+02  0.47000000000E+01 0.  1.
         -5    1    5    5    0  503 -0.18235537403E+01  0.59481552223E+02  0.14626727125E+03  0.15797969819E+03  0.47000000000E+01 0.  1.
<mgrwt>
<rscale>  0 0.27525642E+03</rscale>
<asrwt>0</asrwt>
<pdfrwt beam="1">  1        2 0.39664947E-01 0.27525642E+03</pdfrwt>
<pdfrwt beam="2">  1       -2 0.11302678E-01 0.27525642E+03</pdfrwt>
<totfact> 0.69730458E+03</totfact>
</mgrwt>
</event>
<event>
 9    1  0.2073852E-002  0.2749541E+03  0.7818608E-02  0.1098477E+00
          2   -1    0    0  501    0  0.00000000000E+00  0.00000000000E+00  0.18148984681E+03  0.18148984681E+03  0.00000000000E+00 0. -1.
         -2   -1    0    0    0  501 -0.00000000000E+00 -0.00000000000E+00 -0.10413769695E+03  0.10413769695E+03  0.00000000000E+00 0. -1.
         36    2    1    2    0    0  0.71054273576E-14  0.00000000000E+00  0.77352149865E+02  0.28562754376E+03  0.27495406646E+03 0.  0.
         25    2    3    3    0    0  0.10742316293E+02  0.51049505720E+02  0.17629020579E+02  0.13696016398E+03  0.12540277014E+03 0.  0.
         25    2    3    3    0    0 -0.10742316293E+02 -0.51049505720E+02  0.59723129287E+02  0.14866737977E+03  0.12575248802E+03 0.  0.
          5    1    4    4  502    0 -0.36315149380E+02  0.35483524888E+02 -0.37035820370E+02  0.63020731537E+02  0.47000000000E+01 0.  1.
         -5    1    4    4    0  502  0.47057465673E+02  0.15565980832E+02  0.54664840948E+02  0.73939432448E+02  0.47000000000E+01 0.  1.
          5    1    5    5  503    0  0.53334520155E+02 -0.56004651538E+01  0.78307981185E+01  0.54399886482E+02  0.47000000000E+01 0. -1.
         -5    1    5    5    0  503 -0.64076836448E+02 -0.45449040566E+02  0.51892331168E+02  0.94267493292E+02  0.47000000000E+01 0. -1.
<mgrwt>
<rscale>  0 0.27495407E+03</rscale>
<asrwt>0</asrwt>
<pdfrwt beam="1">  1        2 0.27921515E-01 0.27495407E+03</pdfrwt>
<pdfrwt beam="2">  1       -2 0.16021184E-01 0.27495407E+03</pdfrwt>
<totfact> 0.57817727E+03</totfact>
</mgrwt>
</event>
<event>
 9    1  0.2073852E-002  0.2740752E+03  0.7818608E-02  0.1098970E+00
         -2   -1    0    0    0  501 -0.00000000000E+00  0.00000000000E+00  0.74291276427E+01  0.74291276427E+01  0.00000000000E+00 0.  1.
          2   -1    0    0  501    0  0.00000000000E+00 -0.00000000000E+00 -0.25277938459E+04  0.25277938459E+04  0.00000000000E+00 0.  1.
         36    2    1    2    0    0 -0.71054273576E-14 -0.71054273576E-14 -0.25203647183E+04  0.25352229736E+04  0.27407519505E+03 0.  0.
         25    2    3    3    0    0 -0.33746444910E+02  0.38226994122E+01 -0.16548931396E+04  0.16601164490E+04  0.12712940276E+03 0.  0.
         25    2    3    3    0    0  0.33746444910E+02 -0.38226994122E+01 -0.86547157865E+03  0.87510652457E+03  0.12496775714E+03 0.  0.
          5    1    4    4  502    0 -0.56086080511E+02 -0.42850778913E+02 -0.12344452877E+04  0.12364704186E+04  0.47000000000E+01 0. -1.
         -5    1    4    4    0  502  0.22339635601E+02  0.46673478325E+02 -0.42044785189E+03  0.42364603038E+03  0.47000000000E+01 0. -1.
          5    1    5    5  503    0 -0.22937295859E+01 -0.43102555541E+02 -0.11821904093E+03  0.12594015693E+03  0.47000000000E+01 0.  1.
         -5    1    5    5    0  503  0.36040174496E+02  0.39279856129E+02 -0.74725253772E+03  0.74916636764E+03  0.47000000000E+01 0.  1.
<mgrwt>
<rscale>  0 0.27407520E+03</rscale>
<asrwt>0</asrwt>
<pdfrwt beam="1">  1        2 0.38889123E+00 0.27407520E+03</pdfrwt>
<pdfrwt beam="2">  1       -2 0.11429431E-02 0.27407520E+03</pdfrwt>
<totfact> 0.67965697E+03</totfact>
</mgrwt>
</event>
<event>
 8    1  0.2073852E-002  0.2378033E+03  0.7818608E-02  0.1121265E+00
          1   -1    0    0  501    0  0.00000000000E+00  0.00000000000E+00  0.15371871002E+03  0.15371871002E+03  0.00000000000E+00 0. -1.
         -1   -1    0    0    0  501 -0.00000000000E+00 -0.00000000000E+00 -0.91970622903E+02  0.91970622903E+02  0.00000000000E+00 0. -1.
         25    2    1    2    0    0  0.20715408154E+02 -0.25659396586E+01  0.38725209099E+02  0.11621994425E+03  0.10757193612E+03 0.  0.
         25    2    1    2    0    0 -0.20715408154E+02  0.25659396586E+01  0.23022878023E+02  0.12946938868E+03  0.12568435667E+03 0.  0.
          5    1    3    3  502    0  0.31421838769E+02  0.41541362419E+02  0.46440345157E+02  0.69941492703E+02  0.47000000000E+01 0. -1.
         -5    1    3    3    0  502 -0.10706430614E+02 -0.44107302077E+02 -0.77151360581E+01  0.46278451545E+02  0.47000000000E+01 0. -1.
          5    1    4    4  503    0  0.38110089550E+02 -0.39017972869E+02  0.15442361295E+02  0.56880028610E+02  0.47000000000E+01 0. -1.
         -5    1    4    4    0  503 -0.58825497704E+02  0.41583912528E+02  0.75805167281E+01  0.72589360068E+02  0.47000000000E+01 0. -1.
<mgrwt>
<rscale>  0 0.23780333E+03</rscale>
<asrwt>0</asrwt>
<pdfrwt beam="1">  1        1 0.23649032E-01 0.23780333E+03</pdfrwt>
<pdfrwt beam="2">  1       -1 0.14149327E-01 0.23780333E+03</pdfrwt>
<totfact> 0.71289374E+03</totfact>
</mgrwt>
</event>
<event>
 9    1  0.2073852E-002  0.2749590E+03  0.7818608E-02  0.1098475E+00
         -1   -1    0    0    0  501 -0.00000000000E+00  0.00000000000E+00  0.70547733452E+02  0.70547733452E+02  0.00000000000E+00 0.  1.
          1   -1    0    0  501    0  0.00000000000E+00 -0.00000000000E+00 -0.26791238829E+03  0.26791238829E+03  0.00000000000E+00 0.  1.
         36    2    1    2    0    0  0.00000000000E+00  0.71054273576E-14 -0.19736465484E+03  0.33846012174E+03  0.27495899154E+03 0.  0.
         25    2    3    3    0    0  0.52115783377E+02  0.76877005604E+01 -0.13303977395E+03  0.18916272996E+03  0.12372469978E+03 0.  0.
         25    2    3    3    0    0 -0.52115783377E+02 -0.76877005604E+01 -0.64324880892E+02  0.14929739178E+03  0.12400348896E+03 0.  0.
          5    1    4    4  502    0 -0.11248434309E+02 -0.45854053867E+02 -0.71309940936E+02  0.85652315828E+02  0.47000000000E+01 0.  1.
         -5    1    4    4    0  502  0.63364217686E+02  0.53541754427E+02 -0.61729833013E+02  0.10351041413E+03  0.47000000000E+01 0.  1.
          5    1    5    5  503    0  0.60103868985E+01  0.37537271615E+02  0.14831943165E+02  0.41076125048E+02  0.47000000000E+01 0.  1.
         -5    1    5    5    0  503 -0.58126170275E+02 -0.45224972175E+02 -0.79156824057E+02  0.10822126674E+03  0.47000000000E+01 0.  1.
<mgrwt>
<rscale>  0 0.27495899E+03</rscale>
<asrwt>0</asrwt>
<pdfrwt beam="1">  1        1 0.41217291E-01 0.27495899E+03</pdfrwt>
<pdfrwt beam="2">  1       -1 0.10853497E-01 0.27495899E+03</pdfrwt>
<totfact> 0.53886633E+03</totfact>
</mgrwt>
</event>
<event>
 9    1  0.2073852E-002  0.2752806E+03  0.7818608E-02  0.1098295E+00
         -2   -1    0    0    0  501 -0.00000000000E+00  0.00000000000E+00  0.35473786466E+02  0.35473786466E+02  0.00000000000E+00 0.  1.
          2   -1    0    0  501    0  0.00000000000E+00 -0.00000000000E+00 -0.53405227362E+03  0.53405227362E+03  0.00000000000E+00 0.  1.
         36    2    1    2    0    0  0.00000000000E+00  0.00000000000E+00 -0.49857848715E+03  0.56952606009E+03  0.27528063002E+03 0.  0.
         25    2    3    3    0    0 -0.48731121709E+02 -0.12972007492E+02 -0.31176373817E+03  0.33993069276E+03  0.12575075444E+03 0.  0.
         25    2    3    3    0    0  0.48731121709E+02  0.12972007492E+02 -0.18681474898E+03  0.22959536733E+03  0.12357704907E+03 0.  0.
          5    1    4    4  502    0 -0.12051139732E+02  0.56637278501E+01  0.88426609721E+01  0.16661045437E+02  0.47000000000E+01 0. -1.
         -5    1    4    4    0  502 -0.36679981978E+02 -0.18635735342E+02 -0.32060639914E+03  0.32326964732E+03  0.47000000000E+01 0. -1.
          5    1    5    5  503    0  0.71274237803E+02  0.51387516942E+02 -0.11247080982E+03  0.14280219512E+03  0.47000000000E+01 0.  1.
         -5    1    5    5    0  503 -0.22543116094E+02 -0.38415509450E+02 -0.74343939169E+02  0.86793172201E+02  0.47000000000E+01 0.  1.
<mgrwt>
<rscale>  0 0.27528063E+03</rscale>
<asrwt>0</asrwt>
<pdfrwt beam="1">  1        2 0.82161881E-01 0.27528063E+03</pdfrwt>
<pdfrwt beam="2">  1       -2 0.54575061E-02 0.27528063E+03</pdfrwt>
<totfact> 0.98362699E+03</totfact>
</mgrwt>
</event>
<event>
 9    1  0.2073852E-002  0.2751635E+03  0.7818608E-02  0.1098360E+00
         -1   -1    0    0    0  501 -0.00000000000E+00  0.00000000000E+00  0.13145204210E+02  0.13145204210E+02  0.00000000000E+00 0.  1.
          1   -1    0    0  501    0  0.00000000000E+00 -0.00000000000E+00 -0.14399726238E+04  0.14399726238E+04  0.00000000000E+00 0.  1.
         36    2    1    2    0    0  0.71054273576E-14  0.35527136788E-14 -0.14268274196E+04  0.14531178280E+04  0.27516347284E+03 0.  0.
         25    2    3    3    0    0  0.52117739742E+02 -0.47989271458E+01 -0.56233798090E+03  0.57823318697E+03  0.12405774970E+03 0.  0.
         25    2    3    3    0    0 -0.52117739742E+02  0.47989271458E+01 -0.86448943867E+03  0.87488464101E+03  0.12386225016E+03 0.  0.
          5    1    4    4  502    0 -0.45033434404E+00  0.53321209944E+02 -0.28567463695E+03  0.29064659369E+03  0.47000000000E+01 0.  1.
         -5    1    4    4    0  502  0.52568074086E+02 -0.58120137090E+02 -0.27666334395E+03  0.28758659328E+03  0.47000000000E+01 0.  1.
          5    1    5    5  503    0 -0.89390590967E+02  0.44480878285E+01 -0.45968484933E+03  0.46834038257E+03  0.47000000000E+01 0.  1.
         -5    1    5    5    0  503  0.37272851225E+02  0.35083931734E+00 -0.40480458934E+03  0.40654425845E+03  0.47000000000E+01 0.  1.
<mgrwt>
<rscale>  0 0.27516347E+03</rscale>
<asrwt>0</asrwt>
<pdfrwt beam="1">  1        1 0.22153426E+00 0.27516347E+03</pdfrwt>
<pdfrwt beam="2">  1       -1 0.20223391E-02 0.27516347E+03</pdfrwt>
<totfact> 0.52934596E+03</totfact>
</mgrwt>
</event>
<event>
 9    1  0.2073852E-002  0.2833531E+03  0.7818608E-02  0.1093872E+00
          2   -1    0    0  501    0  0.00000000000E+00  0.00000000000E+00  0.40553436754E+03  0.40553436754E+03  0.00000000000E+00 0.  1.
         -2   -1    0    0    0  501 -0.00000000000E+00 -0.00000000000E+00 -0.49495780386E+02  0.49495780386E+02  0.00000000000E+00 0.  1.
         36    2    1    2    0    0 -0.71054273576E-14 -0.14210854715E-13  0.35603858716E+03  0.45503014793E+03  0.28335306594E+03 0.  0.
         25    2    3    3    0    0 -0.47176025059E+02 -0.59177596166E+02  0.15764495790E+03  0.20992991382E+03  0.11615106860E+03 0.  0.
         25    2    3    3    0    0  0.47176025059E+02  0.59177596166E+02  0.19839362926E+03  0.24510023411E+03  0.12241947313E+03 0.  0.
          5    1    4    4  502    0  0.34943641874E+02 -0.48707318369E+01  0.20609999392E+02  0.41129602612E+02  0.47000000000E+01 0.  1.
         -5    1    4    4    0  502 -0.82119666933E+02 -0.54306864330E+02  0.13703495851E+03  0.16880031121E+03  0.47000000000E+01 0.  1.
          5    1    5    5  503    0 -0.32906048883E+02 -0.10519774677E+02  0.30085612371E+02  0.46051143136E+02  0.47000000000E+01 0. -1.
         -5    1    5    5    0  503  0.80082073942E+02  0.69697370843E+02  0.16830801688E+03  0.19904909097E+03  0.47000000000E+01 0. -1.
<mgrwt>
<rscale>  0 0.28335307E+03</rscale>
<asrwt>0</asrwt>
<pdfrwt beam="1">  1        2 0.62389900E-01 0.28335307E+03</pdfrwt>
<pdfrwt beam="2">  1       -2 0.76147357E-02 0.28335307E+03</pdfrwt>
<totfact> 0.79941473E+03</totfact>
</mgrwt>
</event>
<event>
 9    1  0.2073852E-002  0.2769152E+03  0.7818608E-02  0.1097386E+00
         -2   -1    0    0    0  501 -0.00000000000E+00  0.00000000000E+00  0.20537712301E+02  0.20537712301E+02  0.00000000000E+00 0. -1.
          2   -1    0    0  501    0  0.00000000000E+00 -0.00000000000E+00 -0.93342920348E+03  0.93342920348E+03  0.00000000000E+00 0. -1.
         36    2    1    2    0    0  0.00000000000E+00  0.00000000000E+00 -0.91289149118E+03  0.95396691578E+03  0.27691515260E+03 0.  0.
         25    2    3    3    0    0 -0.46443669558E+02 -0.51730425211E+02 -0.50642170733E+03  0.52608591413E+03  0.12438003076E+03 0.  0.
         25    2    3    3    0    0  0.46443669558E+02  0.51730425211E+02 -0.40646978385E+03  0.42788100166E+03  0.11415522353E+03 0.  0.
          5    1    4    4  502    0 -0.65706041961E+01 -0.25316498843E+02 -0.11700684791E+02  0.29036080619E+02  0.47000000000E+01 0.  1.
         -5    1    4    4    0  502 -0.39873065362E+02 -0.26413926369E+02 -0.49472102254E+03  0.49704983351E+03  0.47000000000E+01 0.  1.
          5    1    5    5  503    0  0.11887094742E+02  0.18156547408E+02 -0.36030398725E+03  0.36098755721E+03  0.47000000000E+01 0.  1.
         -5    1    5    5    0  503  0.34556574816E+02  0.33573877803E+02 -0.46165796606E+02  0.66893444447E+02  0.47000000000E+01 0.  1.
<mgrwt>
<rscale>  0 0.27691515E+03</rscale>
<asrwt>0</asrwt>
<pdfrwt beam="1">  1        2 0.14360446E+00 0.27691515E+03</pdfrwt>
<pdfrwt beam="2">  1       -2 0.31596488E-02 0.27691515E+03</pdfrwt>
<totfact> 0.11302356E+04</totfact>
</mgrwt>
</event>
<event>
 9    1  0.2073852E-002  0.2748735E+03  0.7818608E-02  0.1098522E+00
          2   -1    0    0  501    0  0.00000000000E+00  0.00000000000E+00  0.28590742738E+03  0.28590742738E+03  0.00000000000E+00 0. -1.
         -2   -1    0    0    0  501 -0.00000000000E+00 -0.00000000000E+00 -0.66066328617E+02  0.66066328617E+02  0.00000000000E+00 0. -1.
         36    2    1    2    0    0  0.71054273576E-14  0.00000000000E+00  0.21984109876E+03  0.35197375600E+03  0.27487345489E+03 0.  0.
         25    2    3    3    0    0  0.21418996469E+02  0.12614199718E+02  0.52763592323E+02  0.14121274007E+03  0.12860462605E+03 0.  0.
         25    2    3    3    0    0 -0.21418996469E+02 -0.12614199718E+02  0.16707750644E+03  0.21076101592E+03  0.12604531419E+03 0.  0.
          5    1    4    4  502    0 -0.57244937848E+01 -0.16952820432E+02 -0.37776594015E+02  0.42063392695E+02  0.47000000000E+01 0.  1.
         -5    1    4    4    0  502  0.27143490254E+02  0.29567020150E+02  0.90540186337E+02  0.99149347379E+02  0.47000000000E+01 0.  1.
          5    1    5    5  503    0 -0.55451063945E+02 -0.23062654801E+02  0.26749641947E+02  0.65911606591E+02  0.47000000000E+01 0. -1.
         -5    1    5    5    0  503  0.34032067476E+02  0.10448455083E+02  0.14032786449E+03  0.14484940933E+03  0.47000000000E+01 0. -1.
<mgrwt>
<rscale>  0 0.27487345E+03</rscale>
<asrwt>0</asrwt>
<pdfrwt beam="1">  1        2 0.43985757E-01 0.27487345E+03</pdfrwt>
<pdfrwt beam="2">  1       -2 0.10164051E-01 0.27487345E+03</pdfrwt>
<totfact> 0.73923594E+03</totfact>
</mgrwt>
</event>
<event>
 9    1  0.2073852E-002  0.2754511E+03  0.7818608E-02  0.1098200E+00
         -2   -1    0    0    0  501 -0.00000000000E+00  0.00000000000E+00  0.20357174231E+02  0.20357174231E+02  0.00000000000E+00 0.  1.
          2   -1    0    0  501    0  0.00000000000E+00 -0.00000000000E+00 -0.93177585166E+03  0.93177585166E+03  0.00000000000E+00 0.  1.
         36    2    1    2    0    0  0.00000000000E+00  0.00000000000E+00 -0.91141867743E+03  0.95213302589E+03  0.27545107265E+03 0.  0.
         25    2    3    3    0    0  0.30470199224E+02 -0.61417624477E+01 -0.25989178625E+03  0.29041111470E+03  0.12581224381E+03 0.  0.
         25    2    3    3    0    0 -0.30470199224E+02  0.61417624477E+01 -0.65152689118E+03  0.66172191120E+03  0.11145601616E+03 0.  0.
          5    1    4    4  502    0  0.53577995684E+02 -0.27245250641E+02 -0.25013128890E+03  0.25729488333E+03  0.47000000000E+01 0.  1.
         -5    1    4    4    0  502 -0.23107796459E+02  0.21103488194E+02 -0.97604973529E+01  0.33116231363E+02  0.47000000000E+01 0.  1.
          5    1    5    5  503    0 -0.52824236926E+02 -0.21691041666E+02 -0.18176244709E+03  0.19057958565E+03  0.47000000000E+01 0.  1.
         -5    1    5    5    0  503  0.22354037702E+02  0.27832804114E+02 -0.46976444409E+03  0.47114232555E+03  0.47000000000E+01 0.  1.
<mgrwt>
<rscale>  0 0.27545107E+03</rscale>
<asrwt>0</asrwt>
<pdfrwt beam="1">  1        2 0.14335009E+00 0.27545107E+03</pdfrwt>
<pdfrwt beam="2">  1       -2 0.31318739E-02 0.27545107E+03</pdfrwt>
<totfact> 0.11477826E+04</totfact>
</mgrwt>
</event>
<event>
 9    1  0.2073852E-002  0.2758225E+03  0.7818608E-02  0.1097993E+00
         -2   -1    0    0    0  501 -0.00000000000E+00  0.00000000000E+00  0.36304516599E+03  0.36304516599E+03  0.00000000000E+00 0. -1.
          2   -1    0    0  501    0  0.00000000000E+00 -0.00000000000E+00 -0.52388823574E+02  0.52388823574E+02  0.00000000000E+00 0. -1.
         36    2    1    2    0    0  0.71054273576E-14 -0.35527136788E-14  0.31065634241E+03  0.41543398956E+03  0.27582247298E+03 0.  0.
         25    2    3    3    0    0 -0.54942314661E+02  0.13073436709E+02  0.13787005424E+03  0.19420936368E+03  0.12457749555E+03 0.  0.
         25    2    3    3    0    0  0.54942314661E+02 -0.13073436709E+02  0.17278628818E+03  0.22122462588E+03  0.12607799581E+03 0.  0.
          5    1    4    4  502    0 -0.38918077259E+02  0.36712308763E+02  0.38290888615E+00  0.53708909610E+02  0.47000000000E+01 0. -1.
         -5    1    4    4    0  502 -0.16024237402E+02 -0.23638872054E+02  0.13748714535E+03  0.14050045407E+03  0.47000000000E+01 0. -1.
          5    1    5    5  503    0  0.72647198581E+02  0.27079631669E+02  0.15551187248E+03  0.17383024592E+03  0.47000000000E+01 0. -1.
         -5    1    5    5    0  503 -0.17704883920E+02 -0.40153068378E+02  0.17274415695E+02  0.47394379966E+02  0.47000000000E+01 0. -1.
<mgrwt>
<rscale>  0 0.27582247E+03</rscale>
<asrwt>0</asrwt>
<pdfrwt beam="1">  1        2 0.80598192E-02 0.27582247E+03</pdfrwt>
<pdfrwt beam="2">  1       -2 0.55853101E-01 0.27582247E+03</pdfrwt>
<totfact> 0.25756722E+03</totfact>
</mgrwt>
</event>
<event>
 9    1  0.2073852E-002  0.2714450E+03  0.7818608E-02  0.1100455E+00
          2   -1    0    0  501    0  0.00000000000E+00  0.00000000000E+00  0.21066717856E+03  0.21066717856E+03  0.00000000000E+00 0. -1.
         -2   -1    0    0    0  501 -0.00000000000E+00 -0.00000000000E+00 -0.87439354231E+02  0.87439354231E+02  0.00000000000E+00 0. -1.
         36    2    1    2    0    0  0.00000000000E+00  0.35527136788E-14  0.12322782433E+03  0.29810653279E+03  0.27144503717E+03 0.  0.
         25    2    3    3    0    0  0.25973705419E+02  0.13537454470E+02  0.13442478379E+02  0.12999779439E+03  0.12593978829E+03 0.  0.
         25    2    3    3    0    0 -0.25973705419E+02 -0.13537454470E+02  0.10978534595E+03  0.16810873840E+03  0.12389442963E+03 0.  0.
          5    1    4    4  502    0  0.27259948171E+02 -0.87634137385E+01 -0.52626753207E+02  0.60096317256E+02  0.47000000000E+01 0.  1.
         -5    1    4    4    0  502 -0.12862427516E+01  0.22300868209E+02  0.66069231586E+02  0.69901477135E+02  0.47000000000E+01 0.  1.
          5    1    5    5  503    0  0.29477630026E+02 -0.45765561572E+02  0.80870121461E+02  0.97598585251E+02  0.47000000000E+01 0. -1.
         -5    1    5    5    0  503 -0.55451335445E+02  0.32228107101E+02  0.28915224493E+02  0.70510153152E+02  0.47000000000E+01 0. -1.
<mgrwt>
<rscale>  0 0.27144504E+03</rscale>
<asrwt>0</asrwt>
<pdfrwt beam="1">  1        2 0.32410335E-01 0.27144504E+03</pdfrwt>
<pdfrwt beam="2">  1       -2 0.13452208E-01 0.27144504E+03</pdfrwt>
<totfact> 0.65451263E+03</totfact>
</mgrwt>
</event>
<event>
 9    1  0.2073852E-002  0.2755018E+03  0.7818608E-02  0.1098171E+00
          2   -1    0    0  501    0  0.00000000000E+00  0.00000000000E+00  0.16371665668E+04  0.16371665668E+04  0.00000000000E+00 0.  1.
         -2   -1    0    0    0  501 -0.00000000000E+00 -0.00000000000E+00 -0.11590335719E+02  0.11590335719E+02  0.00000000000E+00 0.  1.
         36    2    1    2    0    0  0.00000000000E+00  0.00000000000E+00  0.16255762311E+04  0.16487569025E+04  0.27550179772E+03 0.  0.
         25    2    3    3    0    0  0.47380429559E+02  0.16567632018E+02  0.50202026325E+03  0.51721798869E+03  0.11388903186E+03 0.  0.
         25    2    3    3    0    0 -0.47380429559E+02 -0.16567632018E+02  0.11235559678E+04  0.11315389138E+04  0.12443033842E+03 0.  0.
          5    1    4    4  502    0  0.33039417922E+02 -0.34045127479E+00  0.49079212133E+03  0.49192551814E+03  0.47000000000E+01 0. -1.
         -5    1    4    4    0  502  0.14341011637E+02  0.16908083292E+02  0.11228141921E+02  0.25292470548E+02  0.47000000000E+01 0. -1.
          5    1    5    5  503    0 -0.64494057815E+02 -0.45213084965E+02  0.43095770772E+03  0.43812137861E+03  0.47000000000E+01 0.  1.
         -5    1    5    5    0  503  0.17113628256E+02  0.28645452947E+02  0.69259826012E+03  0.69341753524E+03  0.47000000000E+01 0.  1.
<mgrwt>
<rscale>  0 0.27550180E+03</rscale>
<asrwt>0</asrwt>
<pdfrwt beam="1">  1        2 0.25187160E+00 0.27550180E+03</pdfrwt>
<pdfrwt beam="2">  1       -2 0.17831299E-02 0.27550180E+03</pdfrwt>
<totfact> 0.10556716E+04</totfact>
</mgrwt>
</event>
<event>
 9    1  0.2073852E-002  0.2752652E+03  0.7818608E-02  0.1098303E+00
         -2   -1    0    0    0  501 -0.00000000000E+00  0.00000000000E+00  0.96435922335E+02  0.96435922335E+02  0.00000000000E+00 0.  1.
          2   -1    0    0  501    0  0.00000000000E+00 -0.00000000000E+00 -0.19642815811E+03  0.19642815811E+03  0.00000000000E+00 0.  1.
         36    2    1    2    0    0  0.00000000000E+00  0.00000000000E+00 -0.99992235772E+02  0.29286408044E+03  0.27526518559E+03 0.  0.
         25    2    3    3    0    0 -0.27608583693E+02 -0.51476524115E+02 -0.66357237006E+02  0.15176808029E+03  0.12336207222E+03 0.  0.
         25    2    3    3    0    0  0.27608583693E+02  0.51476524115E+02 -0.33634998767E+02  0.14109600016E+03  0.12395443392E+03 0.  0.
          5    1    4    4  502    0  0.70503622992E+01 -0.80400191065E+02 -0.69024968655E+02  0.10630350243E+03  0.47000000000E+01 0. -1.
         -5    1    4    4    0  502 -0.34658945992E+02  0.28923666950E+02  0.26677316492E+01  0.45464577852E+02  0.47000000000E+01 0. -1.
          5    1    5    5  503    0  0.11382447983E+02  0.39268981496E+02  0.44273928654E+02  0.60447363783E+02  0.47000000000E+01 0.  1.
         -5    1    5    5    0  503  0.16226135710E+02  0.12207542619E+02 -0.77908927421E+02  0.80648636373E+02  0.47000000000E+01 0.  1.
<mgrwt>
<rscale>  0 0.27526519E+03</rscale>
<asrwt>0</asrwt>
<pdfrwt beam="1">  1        2 0.30219717E-01 0.27526519E+03</pdfrwt>
<pdfrwt beam="2">  1       -2 0.14836296E-01 0.27526519E+03</pdfrwt>
<totfact> 0.60196366E+03</totfact>
</mgrwt>
</event>
<event>
 9    1  0.2073852E-002  0.2740798E+03  0.7818608E-02  0.1098967E+00
          1   -1    0    0  501    0  0.00000000000E+00  0.00000000000E+00  0.94467137326E+03  0.94467137326E+03  0.00000000000E+00 0.  1.
         -1   -1    0    0    0  501 -0.00000000000E+00 -0.00000000000E+00 -0.19879855035E+02  0.19879855035E+02  0.00000000000E+00 0.  1.
         36    2    1    2    0    0  0.44408920985E-14 -0.14210854715E-13  0.92479151823E+03  0.96455122830E+03  0.27407976909E+03 0.  0.
         25    2    3    3    0    0  0.69621957254E+01 -0.54605770195E+02  0.50733660919E+03  0.52556190922E+03  0.12567666088E+03 0.  0.
         25    2    3    3    0    0 -0.69621957254E+01  0.54605770195E+02  0.41745490904E+03  0.43898931908E+03  0.12414813279E+03 0.  0.
          5    1    4    4  502    0  0.30234199489E+01 -0.71100884040E+02  0.13388827809E+03  0.15169916872E+03  0.47000000000E+01 0. -1.
         -5    1    4    4    0  502  0.39387757765E+01  0.16495113845E+02  0.37344833110E+03  0.37386274050E+03  0.47000000000E+01 0. -1.
          5    1    5    5  503    0 -0.33731448744E+02  0.54255681894E+01  0.25156352934E+02  0.42686994711E+02  0.47000000000E+01 0. -1.
         -5    1    5    5    0  503  0.26769253018E+02  0.49180202006E+02  0.39229855611E+03  0.39630232437E+03  0.47000000000E+01 0. -1.
<mgrwt>
<rscale>  0 0.27407977E+03</rscale>
<asrwt>0</asrwt>
<pdfrwt beam="1">  1        1 0.14533402E+00 0.27407977E+03</pdfrwt>
<pdfrwt beam="2">  1       -1 0.30584400E-02 0.27407977E+03</pdfrwt>
<totfact> 0.64529553E+03</totfact>
</mgrwt>
</event>
<event>
 9    1  0.2073852E-002  0.2752740E+03  0.7818608E-02  0.1098299E+00
         -2   -1    0    0    0  501 -0.00000000000E+00  0.00000000000E+00  0.24911164078E+03  0.24911164078E+03  0.00000000000E+00 0.  1.
          2   -1    0    0  501    0  0.00000000000E+00 -0.00000000000E+00 -0.76045980245E+02  0.76045980245E+02  0.00000000000E+00 0.  1.
         36    2    1    2    0    0  0.00000000000E+00  0.53290705182E-14  0.17306566054E+03  0.32515762103E+03  0.27527396472E+03 0.  0.
         25    2    3    3    0    0 -0.53398049917E+02  0.46695231130E+00  0.66832005820E+02  0.15388299410E+03  0.12791360010E+03 0.  0.
         25    2    3    3    0    0  0.53398049917E+02 -0.46695231130E+00  0.10623365472E+03  0.17127462693E+03  0.12327951434E+03 0.  0.
          5    1    4    4  502    0 -0.28578174366E+02  0.14105245491E+02 -0.35302031088E+02  0.47791143525E+02  0.47000000000E+01 0.  1.
         -5    1    4    4    0  502 -0.24819875551E+02 -0.13638293179E+02  0.10213403691E+03  0.10609185057E+03  0.47000000000E+01 0.  1.
          5    1    5    5  503    0  0.23040448502E+02 -0.57416471227E+02  0.80506992381E+02  0.10164142491E+03  0.47000000000E+01 0. -1.
         -5    1    5    5    0  503  0.30357601415E+02  0.56949518916E+02  0.25726662337E+02  0.69633202019E+02  0.47000000000E+01 0. -1.
<mgrwt>
<rscale>  0 0.27527396E+03</rscale>
<asrwt>0</asrwt>
<pdfrwt beam="1">  1        2 0.11699382E-01 0.27527396E+03</pdfrwt>
<pdfrwt beam="2">  1       -2 0.38324867E-01 0.27527396E+03</pdfrwt>
<totfact> 0.33939300E+03</totfact>
</mgrwt>
</event>
<event>
 9    1  0.2073852E-002  0.2753109E+03  0.7818608E-02  0.1098278E+00
          1   -1    0    0  501    0  0.00000000000E+00  0.00000000000E+00  0.17649517991E+03  0.17649517991E+03  0.00000000000E+00 0.  1.
         -1   -1    0    0    0  501 -0.00000000000E+00 -0.00000000000E+00 -0.10736281926E+03  0.10736281926E+03  0.00000000000E+00 0.  1.
         36    2    1    2    0    0 -0.35527136788E-14  0.00000000000E+00  0.69132360644E+02  0.28385799917E+03  0.27531087956E+03 0.  0.
         25    2    3    3    0    0  0.31990381504E+02 -0.43790266477E+02  0.64492384183E+02  0.15143748232E+03  0.12582953344E+03 0.  0.
         25    2    3    3    0    0 -0.31990381504E+02  0.43790266477E+02  0.46399764609E+01  0.13242051686E+03  0.12071740536E+03 0.  0.
          5    1    4    4  502    0  0.39709505109E+02  0.35928237714E+02  0.10609967107E+02  0.54793653494E+02  0.47000000000E+01 0. -1.
         -5    1    4    4    0  502 -0.77191236051E+01 -0.79718504191E+02  0.53882417077E+02  0.96643828823E+02  0.47000000000E+01 0. -1.
          5    1    5    5  503    0  0.54493220248E+01  0.47941545416E+02  0.52417060188E+02  0.71398354926E+02  0.47000000000E+01 0. -1.
         -5    1    5    5    0  503 -0.37439703529E+02 -0.41512789387E+01 -0.47777083727E+02  0.61022161930E+02  0.47000000000E+01 0. -1.
<mgrwt>
<rscale>  0 0.27531088E+03</rscale>
<asrwt>0</asrwt>
<pdfrwt beam="1">  1        1 0.27153105E-01 0.27531088E+03</pdfrwt>
<pdfrwt beam="2">  1       -1 0.16517357E-01 0.27531088E+03</pdfrwt>
<totfact> 0.47050731E+03</totfact>
</mgrwt>
</event>
<event>
 9    1  0.2073852E-002  0.2755851E+03  0.7818608E-02  0.1098125E+00
          1   -1    0    0  501    0  0.00000000000E+00  0.00000000000E+00  0.15059750776E+03  0.15059750776E+03  0.00000000000E+00 0.  1.
         -1   -1    0    0    0  501 -0.00000000000E+00 -0.00000000000E+00 -0.12607634087E+03  0.12607634087E+03  0.00000000000E+00 0.  1.
         36    2    1    2    0    0  0.00000000000E+00  0.00000000000E+00  0.24521166887E+02  0.27667384863E+03  0.27558507015E+03 0.  0.
         25    2    3    3    0    0 -0.66175839536E+02  0.28430198466E+02 -0.18024068409E+01  0.14159186191E+03  0.12189129898E+03 0.  0.
         25    2    3    3    0    0  0.66175839536E+02 -0.28430198466E+02  0.26323573728E+02  0.13508198671E+03  0.11120564139E+03 0.  0.
          5    1    4    4  502    0 -0.32878114713E+02 -0.14705270431E+02 -0.54595840398E+02  0.65574470599E+02  0.47000000000E+01 0.  1.
         -5    1    4    4    0  502 -0.33297724823E+02  0.43135468897E+02  0.52793433557E+02  0.76017391314E+02  0.47000000000E+01 0.  1.
          5    1    5    5  503    0  0.88580091195E+02 -0.16066599830E+02  0.47170082203E+02  0.10174318081E+03  0.47000000000E+01 0.  1.
         -5    1    5    5    0  503 -0.22404251658E+02 -0.12363598636E+02 -0.20846508474E+02  0.33338805905E+02  0.47000000000E+01 0.  1.
<mgrwt>
<rscale>  0 0.27558507E+03</rscale>
<asrwt>0</asrwt>
<pdfrwt beam="1">  1        1 0.23168847E-01 0.27558507E+03</pdfrwt>
<pdfrwt beam="2">  1       -1 0.19396360E-01 0.27558507E+03</pdfrwt>
<totfact> 0.44460854E+03</totfact>
</mgrwt>
</event>
<event>
 9    1  0.2073852E-002  0.2749429E+03  0.7818608E-02  0.1098484E+00
          2   -1    0    0  501    0  0.00000000000E+00  0.00000000000E+00  0.21897827542E+04  0.21897827542E+04  0.00000000000E+00 0.  1.
         -2   -1    0    0    0  501 -0.00000000000E+00 -0.00000000000E+00 -0.86302623136E+01  0.86302623136E+01  0.00000000000E+00 0.  1.
         36    2    1    2    0    0  0.14210854715E-13  0.71054273576E-14  0.21811524919E+04  0.21984130165E+04  0.27494290010E+03 0.  0.
         25    2    3    3    0    0 -0.45805992814E+02 -0.25617685722E+02  0.95645124585E+03  0.96615217733E+03  0.12608167701E+03 0.  0.
         25    2    3    3    0    0  0.45805992814E+02  0.25617685722E+02  0.12247012461E+04  0.12322608392E+04  0.12577431747E+03 0.  0.
          5    1    4    4  502    0 -0.65613454585E+02  0.33084711054E+02  0.46611377879E+03  0.47189391637E+03  0.47000000000E+01 0. -1.
         -5    1    4    4    0  502  0.19807461771E+02 -0.58702396776E+02  0.49033746706E+03  0.49425826096E+03  0.47000000000E+01 0. -1.
          5    1    5    5  503    0  0.30903634731E+02  0.45624043473E+02  0.11763618320E+04  0.11776611727E+04  0.47000000000E+01 0. -1.
         -5    1    5    5    0  503  0.14902358083E+02 -0.20006357751E+02  0.48339414072E+02  0.54599666480E+02  0.47000000000E+01 0. -1.
<mgrwt>
<rscale>  0 0.27494290E+03</rscale>
<asrwt>0</asrwt>
<pdfrwt beam="1">  1        2 0.33688921E+00 0.27494290E+03</pdfrwt>
<pdfrwt beam="2">  1       -2 0.13277344E-02 0.27494290E+03</pdfrwt>
<totfact> 0.83156497E+03</totfact>
</mgrwt>
</event>
<event>
 9    1  0.2073852E-002  0.2751768E+03  0.7818608E-02  0.1098353E+00
          2   -1    0    0  501    0  0.00000000000E+00  0.00000000000E+00  0.25028659963E+04  0.25028659963E+04  0.00000000000E+00 0.  1.
         -2   -1    0    0    0  501 -0.00000000000E+00 -0.00000000000E+00 -0.75635542429E+01  0.75635542429E+01  0.00000000000E+00 0.  1.
         36    2    1    2    0    0 -0.71054273576E-14  0.00000000000E+00  0.24953024421E+04  0.25104295506E+04  0.27517676302E+03 0.  0.
         25    2    3    3    0    0 -0.50520424082E+02  0.18547342773E+02  0.13438478363E+04  0.13508763491E+04  0.12666327881E+03 0.  0.
         25    2    3    3    0    0  0.50520424082E+02 -0.18547342773E+02  0.11514546058E+04  0.11595532015E+04  0.12577599426E+03 0.  0.
          5    1    4    4  502    0  0.15266327214E+02 -0.18665171974E+02  0.91924969716E+03  0.91957791683E+03  0.47000000000E+01 0.  1.
         -5    1    4    4    0  502 -0.65786751296E+02  0.37212514747E+02  0.42459813914E+03  0.43129843225E+03  0.47000000000E+01 0.  1.
          5    1    5    5  503    0  0.90116486829E+02 -0.12514417889E+02  0.63157475072E+03  0.63811154793E+03  0.47000000000E+01 0.  1.
         -5    1    5    5    0  503 -0.39596062747E+02 -0.60329248838E+01  0.51987985507E+03  0.52144165356E+03  0.47000000000E+01 0.  1.
<mgrwt>
<rscale>  0 0.27517676E+03</rscale>
<asrwt>0</asrwt>
<pdfrwt beam="1">  1        2 0.38505565E+00 0.27517676E+03</pdfrwt>
<pdfrwt beam="2">  1       -2 0.11636257E-02 0.27517676E+03</pdfrwt>
<totfact> 0.68332837E+03</totfact>
</mgrwt>
</event>
<event>
 9    1  0.2073852E-002  0.2753351E+03  0.7818608E-02  0.1098264E+00
         -2   -1    0    0    0  501 -0.00000000000E+00  0.00000000000E+00  0.34909155960E+02  0.34909155960E+02  0.00000000000E+00 0. -1.
          2   -1    0    0  501    0  0.00000000000E+00 -0.00000000000E+00 -0.54290505749E+03  0.54290505749E+03  0.00000000000E+00 0. -1.
         36    2    1    2    0    0 -0.35527136788E-14  0.00000000000E+00 -0.50799590153E+03  0.57781421345E+03  0.27533512180E+03 0.  0.
         25    2    3    3    0    0 -0.13729926142E+02 -0.47234163633E+02 -0.19241929857E+03  0.23532136934E+03  0.12621958374E+03 0.  0.
         25    2    3    3    0    0  0.13729926142E+02  0.47234163633E+02 -0.31557660296E+03  0.34249284412E+03  0.12366559282E+03 0.  0.
          5    1    4    4  502    0 -0.13859085271E+02 -0.71099111677E+02 -0.43918095389E+02  0.84841304966E+02  0.47000000000E+01 0. -1.
         -5    1    4    4    0  502  0.12915912878E+00  0.23864948043E+02 -0.14850120318E+03  0.15048006437E+03  0.47000000000E+01 0. -1.
          5    1    5    5  503    0  0.31350405027E+02  0.59097152555E+00 -0.27820139235E+03  0.28000232472E+03  0.47000000000E+01 0. -1.
         -5    1    5    5    0  503 -0.17620478885E+02  0.46643192108E+02 -0.37375210614E+02  0.62490519398E+02  0.47000000000E+01 0. -1.
<mgrwt>
<rscale>  0 0.27533512E+03</rscale>
<asrwt>0</asrwt>
<pdfrwt beam="1">  1        2 0.83523851E-01 0.27533512E+03</pdfrwt>
<pdfrwt beam="2">  1       -2 0.53706396E-02 0.27533512E+03</pdfrwt>
<totfact> 0.98939145E+03</totfact>
</mgrwt>
</event>
<event>
 9    1  0.2073852E-002  0.2748593E+03  0.7818608E-02  0.1098530E+00
          2   -1    0    0  501    0  0.00000000000E+00  0.00000000000E+00  0.16781110480E+03  0.16781110480E+03  0.00000000000E+00 0. -1.
         -2   -1    0    0    0  501 -0.00000000000E+00 -0.00000000000E+00 -0.11254860872E+03  0.11254860872E+03  0.00000000000E+00 0. -1.
         36    2    1    2    0    0  0.00000000000E+00 -0.71054273576E-14  0.55262496083E+02  0.28035971351E+03  0.27485928307E+03 0.  0.
         25    2    3    3    0    0  0.40722293559E+02 -0.17971856456E+02  0.64151689297E+02  0.14717518068E+03  0.12475496683E+03 0.  0.
         25    2    3    3    0    0 -0.40722293559E+02  0.17971856456E+02 -0.88891932144E+01  0.13318453284E+03  0.12521105867E+03 0.  0.
          5    1    4    4  502    0 -0.38819134209E+02  0.20104380463E+02  0.17745767755E+02  0.47414275991E+02  0.47000000000E+01 0. -1.
         -5    1    4    4    0  502  0.79541427768E+02 -0.38076236919E+02  0.46405921542E+02  0.99760904684E+02  0.47000000000E+01 0. -1.
          5    1    5    5  503    0 -0.15413554545E+02 -0.42868659362E+02 -0.39403674858E+02  0.60415554384E+02  0.47000000000E+01 0. -1.
         -5    1    5    5    0  503 -0.25308739014E+02  0.60840515818E+02  0.30514481644E+02  0.72768978456E+02  0.47000000000E+01 0. -1.
<mgrwt>
<rscale>  0 0.27485928E+03</rscale>
<asrwt>0</asrwt>
<pdfrwt beam="1">  1        2 0.25817093E-01 0.27485928E+03</pdfrwt>
<pdfrwt beam="2">  1       -2 0.17315171E-01 0.27485928E+03</pdfrwt>
<totfact> 0.55388371E+03</totfact>
</mgrwt>
</event>
<event>
 9    1  0.2073852E-002  0.2751748E+03  0.7818608E-02  0.1098354E+00
          2   -1    0    0  501    0  0.00000000000E+00  0.00000000000E+00  0.34023132523E+03  0.34023132523E+03  0.00000000000E+00 0. -1.
         -2   -1    0    0    0  501 -0.00000000000E+00 -0.00000000000E+00 -0.55639475319E+02  0.55639475319E+02  0.00000000000E+00 0. -1.
         36    2    1    2    0    0 -0.71054273576E-14  0.14210854715E-13  0.28459184991E+03  0.39587080055E+03  0.27517479843E+03 0.  0.
         25    2    3    3    0    0  0.56133898305E+02  0.34387055290E+02  0.10034012159E+03  0.17220369587E+03  0.12350096664E+03 0.  0.
         25    2    3    3    0    0 -0.56133898305E+02 -0.34387055290E+02  0.18425172832E+03  0.22366710467E+03  0.10837338333E+03 0.  0.
          5    1    4    4  502    0 -0.20067156369E+02  0.43452297928E+02  0.78876380185E+02  0.92381634057E+02  0.47000000000E+01 0.  1.
         -5    1    4    4    0  502  0.76201054674E+02 -0.90652426379E+01  0.21463741405E+02  0.79822061816E+02  0.47000000000E+01 0.  1.
          5    1    5    5  503    0 -0.37813278018E+01  0.37312507193E+02  0.50953560594E+02  0.63441918084E+02  0.47000000000E+01 0.  1.
         -5    1    5    5    0  503 -0.52352570503E+02 -0.71699562484E+02  0.13329816772E+03  0.16022518659E+03  0.47000000000E+01 0.  1.
<mgrwt>
<rscale>  0 0.27517480E+03</rscale>
<asrwt>0</asrwt>
<pdfrwt beam="1">  1        2 0.52343280E-01 0.27517480E+03</pdfrwt>
<pdfrwt beam="2">  1       -2 0.85599194E-02 0.27517480E+03</pdfrwt>
<totfact> 0.80428628E+03</totfact>
</mgrwt>
</event>
<event>
 9    1  0.2073852E-002  0.2746321E+03  0.7818608E-02  0.1098657E+00
         -2   -1    0    0    0  501 -0.00000000000E+00  0.00000000000E+00  0.43307794159E+02  0.43307794159E+02  0.00000000000E+00 0. -1.
          2   -1    0    0  501    0  0.00000000000E+00 -0.00000000000E+00 -0.43538802187E+03  0.43538802187E+03  0.00000000000E+00 0. -1.
         36    2    1    2    0    0 -0.71054273576E-14  0.35527136788E-14 -0.39208022771E+03  0.47869581603E+03  0.27463207992E+03 0.  0.
         25    2    3    3    0    0 -0.17638391067E+02  0.30436488240E+02 -0.11892914632E+03  0.17611375787E+03  0.12503767917E+03 0.  0.
         25    2    3    3    0    0  0.17638391067E+02 -0.30436488240E+02 -0.27315108139E+03  0.30258205815E+03  0.12532715586E+03 0.  0.
          5    1    4    4  502    0 -0.11282836498E+02  0.59555308905E+02 -0.13036663365E+03  0.14384605099E+03  0.47000000000E+01 0.  1.
         -5    1    4    4    0  502 -0.63555545687E+01 -0.29118820665E+02  0.11437487329E+02  0.32267706879E+02  0.47000000000E+01 0.  1.
          5    1    5    5  503    0 -0.53285892578E+02 -0.16964244175E+02 -0.14400370437E+03  0.15455202619E+03  0.47000000000E+01 0. -1.
         -5    1    5    5    0  503  0.70924283644E+02 -0.13472244065E+02 -0.12914737703E+03  0.14803003196E+03  0.47000000000E+01 0. -1.
<mgrwt>
<rscale>  0 0.27463208E+03</rscale>
<asrwt>0</asrwt>
<pdfrwt beam="1">  1        2 0.66982772E-01 0.27463208E+03</pdfrwt>
<pdfrwt beam="2">  1       -2 0.66627376E-02 0.27463208E+03</pdfrwt>
<totfact> 0.90889003E+03</totfact>
</mgrwt>
</event>
<event>
 9    1  0.2073852E-002  0.2743191E+03  0.7818608E-02  0.1098833E+00
         -1   -1    0    0    0  501 -0.00000000000E+00  0.00000000000E+00  0.36727625945E+02  0.36727625945E+02  0.00000000000E+00 0.  1.
          1   -1    0    0  501    0  0.00000000000E+00 -0.00000000000E+00 -0.51222307807E+03  0.51222307807E+03  0.00000000000E+00 0.  1.
         36    2    1    2    0    0 -0.35527136788E-14 -0.71054273576E-14 -0.47549545212E+03  0.54895070401E+03  0.27431906687E+03 0.  0.
         25    2    3    3    0    0 -0.28388396757E+02 -0.42621585638E+02 -0.21301014773E+03  0.25321153411E+03  0.12696557539E+03 0.  0.
         25    2    3    3    0    0  0.28388396757E+02  0.42621585638E+02 -0.26248530439E+03  0.29573916991E+03  0.12625617199E+03 0.  0.
          5    1    4    4  502    0  0.65886250954E+01 -0.38876744795E+02 -0.21405440168E+03  0.21770665618E+03  0.47000000000E+01 0. -1.
         -5    1    4    4    0  502 -0.34977021853E+02 -0.37448408434E+01  0.10442539407E+01  0.35504877931E+02  0.47000000000E+01 0. -1.
          5    1    5    5  503    0 -0.23583085757E+02  0.61073123237E+02 -0.72238077737E+02  0.97603884097E+02  0.47000000000E+01 0.  1.
         -5    1    5    5    0  503  0.51971482514E+02 -0.18451537599E+02 -0.19024722665E+03  0.19813528581E+03  0.47000000000E+01 0.  1.
<mgrwt>
<rscale>  0 0.27431907E+03</rscale>
<asrwt>0</asrwt>
<pdfrwt beam="1">  1        1 0.78803548E-01 0.27431907E+03</pdfrwt>
<pdfrwt beam="2">  1       -1 0.56504041E-02 0.27431907E+03</pdfrwt>
<totfact> 0.63662749E+03</totfact>
</mgrwt>
</event>
<event>
 9    1  0.2073852E-002  0.2744609E+03  0.7818608E-02  0.1098753E+00
         -1   -1    0    0    0  501 -0.00000000000E+00  0.00000000000E+00  0.43275687662E+02  0.43275687662E+02  0.00000000000E+00 0. -1.
          1   -1    0    0  501    0  0.00000000000E+00 -0.00000000000E+00 -0.43516801909E+03  0.43516801909E+03  0.00000000000E+00 0. -1.
         36    2    1    2    0    0  0.00000000000E+00  0.71054273576E-14 -0.39189233143E+03  0.47844370676E+03  0.27446089175E+03 0.  0.
         25    2    3    3    0    0 -0.25481049810E+01 -0.53177703705E+02 -0.21435883892E+03  0.25446153159E+03  0.12635900531E+03 0.  0.
         25    2    3    3    0    0  0.25481049810E+01  0.53177703705E+02 -0.17753349251E+03  0.22398217517E+03  0.12575974245E+03 0.  0.
          5    1    4    4  502    0 -0.24563716436E+02 -0.89181108610E+02 -0.12549037249E+03  0.15596977235E+03  0.47000000000E+01 0. -1.
         -5    1    4    4    0  502  0.22015611455E+02  0.36003404905E+02 -0.88868466432E+02  0.98491759241E+02  0.47000000000E+01 0. -1.
          5    1    5    5  503    0  0.31830049701E+02  0.20275129163E+02 -0.17557143695E+03  0.17964312511E+03  0.47000000000E+01 0. -1.
         -5    1    5    5    0  503 -0.29281944720E+02  0.32902574543E+02 -0.19620555597E+01  0.44339050059E+02  0.47000000000E+01 0. -1.
<mgrwt>
<rscale>  0 0.27446089E+03</rscale>
<asrwt>0</asrwt>
<pdfrwt beam="1">  1        1 0.66948925E-01 0.27446089E+03</pdfrwt>
<pdfrwt beam="2">  1       -1 0.66577982E-02 0.27446089E+03</pdfrwt>
<totfact> 0.61576807E+03</totfact>
</mgrwt>
</event>
<event>
 9    1  0.2073852E-002  0.2753912E+03  0.7818608E-02  0.1098233E+00
          2   -1    0    0  501    0  0.00000000000E+00  0.00000000000E+00  0.47154395256E+03  0.47154395256E+03  0.00000000000E+00 0.  1.
         -2   -1    0    0    0  501 -0.00000000000E+00 -0.00000000000E+00 -0.40208494950E+02  0.40208494950E+02  0.00000000000E+00 0.  1.
         36    2    1    2    0    0  0.00000000000E+00  0.00000000000E+00  0.43133545761E+03  0.51175244751E+03  0.27539115916E+03 0.  0.
         25    2    3    3    0    0 -0.17407964074E+02 -0.22028801914E+02  0.81326894459E+02  0.13891572283E+03  0.10906515924E+03 0.  0.
         25    2    3    3    0    0  0.17407964074E+02  0.22028801914E+02  0.35000856315E+03  0.37283672468E+03  0.12535120128E+03 0.  0.
          5    1    4    4  502    0 -0.27244186529E+02 -0.16362159978E+02  0.10631916628E+03  0.11106674163E+03  0.47000000000E+01 0. -1.
         -5    1    4    4    0  502  0.98362224548E+01 -0.56666419366E+01 -0.24992271821E+02  0.27848981199E+02  0.47000000000E+01 0. -1.
          5    1    5    5  503    0 -0.20969339870E+02  0.63906829603E+02  0.23497516038E+03  0.24445697388E+03  0.47000000000E+01 0.  1.
         -5    1    5    5    0  503  0.38377303944E+02 -0.41878027689E+02  0.11503340278E+03  0.12837975080E+03  0.47000000000E+01 0.  1.
<mgrwt>
<rscale>  0 0.27539116E+03</rscale>
<asrwt>0</asrwt>
<pdfrwt beam="1">  1        2 0.72545220E-01 0.27539116E+03</pdfrwt>
<pdfrwt beam="2">  1       -2 0.61859226E-02 0.27539116E+03</pdfrwt>
<totfact> 0.93335647E+03</totfact>
</mgrwt>
</event>
<event>
 9    1  0.2073852E-002  0.2759926E+03  0.7818608E-02  0.1097898E+00
         -1   -1    0    0    0  501 -0.00000000000E+00  0.00000000000E+00  0.17197256583E+02  0.17197256583E+02  0.00000000000E+00 0. -1.
          1   -1    0    0  501    0  0.00000000000E+00 -0.00000000000E+00 -0.11073264598E+04  0.11073264598E+04  0.00000000000E+00 0. -1.
         36    2    1    2    0    0  0.35527136788E-14 -0.17763568394E-14 -0.10901292032E+04  0.11245237163E+04  0.27599258866E+03 0.  0.
         25    2    3    3    0    0 -0.31877712051E+02  0.43336573113E+01 -0.73510373040E+03  0.74645493083E+03  0.12562842118E+03 0.  0.
         25    2    3    3    0    0  0.31877712051E+02 -0.43336573113E+01 -0.35502547279E+03  0.37806878552E+03  0.12592835719E+03 0.  0.
          5    1    4    4  502    0 -0.14073972211E+02 -0.21287028411E+02 -0.26287843790E+02  0.36937176442E+02  0.47000000000E+01 0. -1.
         -5    1    4    4    0  502 -0.17803739840E+02  0.25620685722E+02 -0.70881588661E+03  0.70951775439E+03  0.47000000000E+01 0. -1.
          5    1    5    5  503    0  0.67702490724E+00  0.15912203104E+02  0.40086994810E+01  0.17082629829E+02  0.47000000000E+01 0. -1.
         -5    1    5    5    0  503  0.31200687144E+02 -0.20245860415E+02 -0.35903417227E+03  0.36098615569E+03  0.47000000000E+01 0. -1.
<mgrwt>
<rscale>  0 0.27599259E+03</rscale>
<asrwt>0</asrwt>
<pdfrwt beam="1">  1        1 0.17035799E+00 0.27599259E+03</pdfrwt>
<pdfrwt beam="2">  1       -1 0.26457307E-02 0.27599259E+03</pdfrwt>
<totfact> 0.60529815E+03</totfact>
</mgrwt>
</event>
<event>
 9    1  0.2073852E-002  0.2748665E+03  0.7818608E-02  0.1098526E+00
          2   -1    0    0  501    0  0.00000000000E+00  0.00000000000E+00  0.17646456192E+04  0.17646456192E+04  0.00000000000E+00 0.  1.
         -2   -1    0    0    0  501 -0.00000000000E+00 -0.00000000000E+00 -0.10703507123E+02  0.10703507123E+02  0.00000000000E+00 0.  1.
         36    2    1    2    0    0  0.00000000000E+00 -0.17763568394E-14  0.17539421121E+04  0.17753491263E+04  0.27486649089E+03 0.  0.
         25    2    3    3    0    0 -0.19080821274E+02  0.81100976198E+01  0.12448477201E+04  0.12512685433E+04  0.12488903047E+03 0.  0.
         25    2    3    3    0    0  0.19080821274E+02 -0.81100976198E+01  0.50909439198E+03  0.52408058297E+03  0.12269273033E+03 0.  0.
          5    1    4    4  502    0 -0.61674496519E+02  0.53432473596E+00  0.35435724272E+03  0.35971540763E+03  0.47000000000E+01 0.  1.
         -5    1    4    4    0  502  0.42593675245E+02  0.75757728839E+01  0.89049047736E+03  0.89155313570E+03  0.47000000000E+01 0.  1.
          5    1    5    5  503    0  0.47821477032E+02  0.15213302817E+02  0.45825854804E+03  0.46102204405E+03  0.47000000000E+01 0. -1.
         -5    1    5    5    0  503 -0.28740655758E+02 -0.23323400437E+02  0.50835843934E+02  0.63058538913E+02  0.47000000000E+01 0. -1.
<mgrwt>
<rscale>  0 0.27486649E+03</rscale>
<asrwt>0</asrwt>
<pdfrwt beam="1">  1        2 0.27148371E+00 0.27486649E+03</pdfrwt>
<pdfrwt beam="2">  1       -2 0.16466948E-02 0.27486649E+03</pdfrwt>
<totfact> 0.10163831E+04</totfact>
</mgrwt>
</event>
<event>
 9    1  0.2073852E-002  0.2763165E+03  0.7818608E-02  0.1097718E+00
          3   -1    0    0  501    0  0.00000000000E+00  0.00000000000E+00  0.73500756573E+02  0.73500756573E+02  0.00000000000E+00 0. -1.
         -3   -1    0    0    0  501 -0.00000000000E+00 -0.00000000000E+00 -0.25969403100E+03  0.25969403100E+03  0.00000000000E+00 0. -1.
         36    2    1    2    0    0  0.00000000000E+00 -0.71054273576E-14 -0.18619327443E+03  0.33319478757E+03  0.27631654135E+03 0.  0.
         25    2    3    3    0    0  0.14809123201E+02  0.40262880686E+02 -0.99541953013E+02  0.16379426311E+03  0.12279882136E+03 0.  0.
         25    2    3    3    0    0 -0.14809123201E+02 -0.40262880686E+02 -0.86651321415E+02  0.16940052446E+03  0.13909592551E+03 0.  0.
          5    1    4    4  502    0  0.11212605000E+02  0.19361141115E+02 -0.12685333654E+03  0.12889699487E+03  0.47000000000E+01 0.  1.
         -5    1    4    4    0  502  0.35965182004E+01  0.20901739571E+02  0.27311383526E+02  0.34897268237E+02  0.47000000000E+01 0.  1.
          5    1    5    5  503    0 -0.42620822298E+02  0.40889780768E+02 -0.29270715914E+02  0.66086106519E+02  0.47000000000E+01 0.  1.
         -5    1    5    5    0  503  0.27811699098E+02 -0.81152661454E+02 -0.57380605501E+02  0.10331441795E+03  0.47000000000E+01 0.  1.
<mgrwt>
<rscale>  0 0.27631654E+03</rscale>
<asrwt>0</asrwt>
<pdfrwt beam="1">  1        3 0.11307809E-01 0.27631654E+03</pdfrwt>
<pdfrwt beam="2">  1       -3 0.39952927E-01 0.27631654E+03</pdfrwt>
<totfact> 0.95099459E+02</totfact>
</mgrwt>
</event>
<event>
 9    1  0.2073852E-002  0.2748739E+03  0.7818608E-02  0.1098522E+00
         -1   -1    0    0    0  501 -0.00000000000E+00  0.00000000000E+00  0.14515441821E+02  0.14515441821E+02  0.00000000000E+00 0. -1.
          1   -1    0    0  501    0  0.00000000000E+00 -0.00000000000E+00 -0.13012979603E+04  0.13012979603E+04  0.00000000000E+00 0. -1.
         36    2    1    2    0    0  0.00000000000E+00  0.35527136788E-14 -0.12867825185E+04  0.13158134021E+04  0.27487389716E+03 0.  0.
         25    2    3    3    0    0  0.42966579702E+02  0.44118252904E+01 -0.63996511201E+03  0.65247915777E+03  0.11961653550E+03 0.  0.
         25    2    3    3    0    0 -0.42966579702E+02 -0.44118252904E+01 -0.64681740648E+03  0.66333424436E+03  0.14061995321E+03 0.  0.
          5    1    4    4  502    0 -0.19669409605E+02  0.21119888258E+02 -0.46355581091E+03  0.46447714172E+03  0.47000000000E+01 0. -1.
         -5    1    4    4    0  502  0.62635989307E+02 -0.16708062968E+02 -0.17640930110E+03  0.18800201605E+03  0.47000000000E+01 0. -1.
          5    1    5    5  503    0  0.20511795515E+02  0.55419663189E+02 -0.28775964893E+03  0.29380227769E+03  0.47000000000E+01 0. -1.
         -5    1    5    5    0  503 -0.63478375218E+02 -0.59831488480E+02 -0.35905775755E+03  0.36953196667E+03  0.47000000000E+01 0. -1.
<mgrwt>
<rscale>  0 0.27487390E+03</rscale>
<asrwt>0</asrwt>
<pdfrwt beam="1">  1        1 0.20019964E+00 0.27487390E+03</pdfrwt>
<pdfrwt beam="2">  1       -1 0.22331454E-02 0.27487390E+03</pdfrwt>
<totfact> 0.56795670E+03</totfact>
</mgrwt>
</event>
<event>
 9    1  0.2073852E-002  0.2742952E+03  0.7818608E-02  0.1098846E+00
         -3   -1    0    0    0  501 -0.00000000000E+00  0.00000000000E+00  0.12065013196E+03  0.12065013196E+03  0.00000000000E+00 0.  1.
          3   -1    0    0  501    0  0.00000000000E+00 -0.00000000000E+00 -0.15590093901E+03  0.15590093901E+03  0.00000000000E+00 0.  1.
         36    2    1    2    0    0 -0.17763568394E-14 -0.17763568394E-14 -0.35250807057E+02  0.27655107097E+03  0.27429523411E+03 0.  0.
         25    2    3    3    0    0 -0.97236813634E+01 -0.15028099092E+02  0.34699500532E+02  0.13421444479E+03  0.12840976642E+03 0.  0.
         25    2    3    3    0    0  0.97236813634E+01  0.15028099092E+02 -0.69950307589E+02  0.14233662618E+03  0.12266326214E+03 0.  0.
          5    1    4    4  502    0  0.36190176160E+02  0.97017918250E+01  0.63927727410E+02  0.74247545057E+02  0.47000000000E+01 0. -1.
         -5    1    4    4    0  502 -0.45913857523E+02 -0.24729890917E+02 -0.29228226878E+02  0.59966899735E+02  0.47000000000E+01 0. -1.
          5    1    5    5  503    0  0.94143617570E+01  0.20229350436E+02 -0.10456269671E+03  0.10702011198E+03  0.47000000000E+01 0. -1.
         -5    1    5    5    0  503  0.30931960640E+00 -0.52012513442E+01  0.34612389119E+02  0.35316514192E+02  0.47000000000E+01 0. -1.
<mgrwt>
<rscale>  0 0.27429523E+03</rscale>
<asrwt>0</asrwt>
<pdfrwt beam="1">  1        3 0.23984760E-01 0.27429523E+03</pdfrwt>
<pdfrwt beam="2">  1       -3 0.18561559E-01 0.27429523E+03</pdfrwt>
<totfact> 0.10548446E+03</totfact>
</mgrwt>
</event>
<event>
 9    1  0.2073852E-002  0.2729851E+03  0.7818608E-02  0.1099583E+00
          2   -1    0    0  501    0  0.00000000000E+00  0.00000000000E+00  0.31823750925E+03  0.31823750925E+03  0.00000000000E+00 0.  1.
         -2   -1    0    0    0  501 -0.00000000000E+00 -0.00000000000E+00 -0.58541857253E+02  0.58541857253E+02  0.00000000000E+00 0.  1.
         36    2    1    2    0    0  0.71054273576E-14 -0.35527136788E-14  0.25969565199E+03  0.37677936650E+03  0.27298508999E+03 0.  0.
         25    2    3    3    0    0  0.41100269878E+02 -0.31660665980E+02  0.96736299049E+02  0.16440476124E+03  0.12239029377E+03 0.  0.
         25    2    3    3    0    0 -0.41100269878E+02  0.31660665980E+02  0.16295935294E+03  0.21237460526E+03  0.12591899100E+03 0.  0.
          5    1    4    4  502    0  0.78523055518E+02  0.63602940144E+01  0.50880690067E+02  0.93900256707E+02  0.47000000000E+01 0. -1.
         -5    1    4    4    0  502 -0.37422785641E+02 -0.38020959994E+02  0.45855608981E+02  0.70504504530E+02  0.47000000000E+01 0. -1.
          5    1    5    5  503    0 -0.41649015011E+02  0.77609651823E+02  0.89952614714E+02  0.12598198840E+03  0.47000000000E+01 0.  1.
         -5    1    5    5    0  503  0.54874513310E+00 -0.45948985843E+02  0.73006738230E+02  0.86392616862E+02  0.47000000000E+01 0.  1.
<mgrwt>
<rscale>  0 0.27298509E+03</rscale>
<asrwt>0</asrwt>
<pdfrwt beam="1">  1        2 0.48959616E-01 0.27298509E+03</pdfrwt>
<pdfrwt beam="2">  1       -2 0.90064398E-02 0.27298509E+03</pdfrwt>
<totfact> 0.79762449E+03</totfact>
</mgrwt>
</event>
<event>
 9    1  0.2073852E-002  0.2749936E+03  0.7818608E-02  0.1098455E+00
         -1   -1    0    0    0  501 -0.00000000000E+00  0.00000000000E+00  0.11912766279E+02  0.11912766279E+02  0.00000000000E+00 0. -1.
          1   -1    0    0  501    0  0.00000000000E+00 -0.00000000000E+00 -0.15869840385E+04  0.15869840385E+04  0.00000000000E+00 0. -1.
         36    2    1    2    0    0  0.00000000000E+00  0.71054273576E-14 -0.15750712722E+04  0.15988968048E+04  0.27499359949E+03 0.  0.
         25    2    3    3    0    0  0.59715039090E+00  0.30420784282E+02 -0.57171988266E+03  0.58823631915E+03  0.13502800536E+03 0.  0.
         25    2    3    3    0    0 -0.59715039090E+00 -0.30420784282E+02 -0.10033513896E+04  0.10106604856E+04  0.11745137537E+03 0.  0.
          5    1    4    4  502    0  0.46402288009E+02 -0.25874139750E+02 -0.36962884839E+03  0.37345711803E+03  0.47000000000E+01 0.  1.
         -5    1    4    4    0  502 -0.45805137618E+02  0.56294924032E+02 -0.20209103427E+03  0.21477920112E+03  0.47000000000E+01 0.  1.
          5    1    5    5  503    0  0.19432002562E+02 -0.38771356190E+02 -0.96755061981E+03  0.96853348557E+03  0.47000000000E+01 0.  1.
         -5    1    5    5    0  503 -0.20029152953E+02  0.83505719078E+01 -0.35800769772E+02  0.42127000077E+02  0.47000000000E+01 0.  1.
<mgrwt>
<rscale>  0 0.27499360E+03</rscale>
<asrwt>0</asrwt>
<pdfrwt beam="1">  1        1 0.24415128E+00 0.27499360E+03</pdfrwt>
<pdfrwt beam="2">  1       -1 0.18327341E-02 0.27499360E+03</pdfrwt>
<totfact> 0.48849579E+03</totfact>
</mgrwt>
</event>
<event>
 9    1  0.2073852E-002  0.2764318E+03  0.7818608E-02  0.1097654E+00
          2   -1    0    0  501    0  0.00000000000E+00  0.00000000000E+00  0.86785242139E+03  0.86785242139E+03  0.00000000000E+00 0. -1.
         -2   -1    0    0    0  501 -0.00000000000E+00 -0.00000000000E+00 -0.22012533982E+02  0.22012533982E+02  0.00000000000E+00 0. -1.
         36    2    1    2    0    0  0.00000000000E+00  0.14210854715E-13  0.84583988741E+03  0.88986495537E+03  0.27643177037E+03 0.  0.
         25    2    3    3    0    0  0.11650025944E+02 -0.69670366384E+02  0.40300589794E+03  0.42480107433E+03  0.11424760793E+03 0.  0.
         25    2    3    3    0    0 -0.11650025944E+02  0.69670366384E+02  0.44283398946E+03  0.46506388104E+03  0.12325902875E+03 0.  0.
          5    1    4    4  502    0  0.57572295948E+02 -0.42048828411E+02  0.30229081883E+03  0.31061954604E+03  0.47000000000E+01 0. -1.
         -5    1    4    4    0  502 -0.45922270004E+02 -0.27621537973E+02  0.10071507911E+03  0.11418152829E+03  0.47000000000E+01 0. -1.
          5    1    5    5  503    0 -0.53730808472E+02  0.59729897684E+01  0.27935321330E+03  0.28457509408E+03  0.47000000000E+01 0. -1.
         -5    1    5    5    0  503  0.42080782528E+02  0.63697376616E+02  0.16348077616E+03  0.18048878696E+03  0.47000000000E+01 0. -1.
<mgrwt>
<rscale>  0 0.27643177E+03</rscale>
<asrwt>0</asrwt>
<pdfrwt beam="1">  1        2 0.13351573E+00 0.27643177E+03</pdfrwt>
<pdfrwt beam="2">  1       -2 0.33865444E-02 0.27643177E+03</pdfrwt>
<totfact> 0.11234390E+04</totfact>
</mgrwt>
</event>
<event>
 9    1  0.2073852E-002  0.2745771E+03  0.7818608E-02  0.1098688E+00
          2   -1    0    0  501    0  0.00000000000E+00  0.00000000000E+00  0.11700064818E+04  0.11700064818E+04  0.00000000000E+00 0. -1.
         -2   -1    0    0    0  501 -0.00000000000E+00 -0.00000000000E+00 -0.16109434052E+02  0.16109434052E+02  0.00000000000E+00 0. -1.
         36    2    1    2    0    0  0.00000000000E+00  0.35527136788E-14  0.11538970478E+04  0.11861159159E+04  0.27457707304E+03 0.  0.
         25    2    3    3    0    0 -0.38842030986E+01 -0.81688093488E+01  0.34772123316E+03  0.37015368235E+03  0.12657754971E+03 0.  0.
         25    2    3    3    0    0  0.38842030986E+01  0.81688093488E+01  0.80617581464E+03  0.81596223355E+03  0.12567062500E+03 0.  0.
          5    1    4    4  502    0 -0.43072144002E+02  0.36437705772E+02  0.24461346526E+03  0.25107917751E+03  0.47000000000E+01 0.  1.
         -5    1    4    4    0  502  0.39187940904E+02 -0.44606515121E+02  0.10310776790E+03  0.11907450484E+03  0.47000000000E+01 0.  1.
          5    1    5    5  503    0 -0.46719434452E+01 -0.76602621459E+01  0.57343022642E+00  0.10145220250E+02  0.47000000000E+01 0. -1.
         -5    1    5    5    0  503  0.85561465438E+01  0.15829071495E+02  0.80560238441E+03  0.80581701330E+03  0.47000000000E+01 0. -1.
<mgrwt>
<rscale>  0 0.27457707E+03</rscale>
<asrwt>0</asrwt>
<pdfrwt beam="1">  1        2 0.18000093E+00 0.27457707E+03</pdfrwt>
<pdfrwt beam="2">  1       -2 0.24783754E-02 0.27457707E+03</pdfrwt>
<totfact> 0.11685866E+04</totfact>
</mgrwt>
</event>
<event>
 9    1  0.2073852E-002  0.2745323E+03  0.7818608E-02  0.1098713E+00
          1   -1    0    0  501    0  0.00000000000E+00  0.00000000000E+00  0.38343158204E+04  0.38343158204E+04  0.00000000000E+00 0. -1.
         -1   -1    0    0    0  501 -0.00000000000E+00 -0.00000000000E+00 -0.49140444076E+01  0.49140444076E+01  0.00000000000E+00 0. -1.
         36    2    1    2    0    0  0.71054273576E-14  0.71054273576E-14  0.38294017760E+04  0.38392298648E+04  0.27453231660E+03 0.  0.
         25    2    3    3    0    0  0.57371745277E+02  0.30119918449E+02  0.18882019561E+04  0.18933850590E+04  0.12410329606E+03 0.  0.
         25    2    3    3    0    0 -0.57371745277E+02 -0.30119918449E+02  0.19411998199E+04  0.19458448057E+04  0.11771380879E+03 0.  0.
          5    1    4    4  502    0  0.77727523809E+02  0.61420174951E+01  0.17426302087E+04  0.17443799548E+04  0.47000000000E+01 0. -1.
         -5    1    4    4    0  502 -0.20355778532E+02  0.23977900954E+02  0.14557174740E+03  0.14900510426E+03  0.47000000000E+01 0. -1.
          5    1    5    5  503    0 -0.45770645511E+01  0.41402326087E+02  0.84360116569E+03  0.84464200634E+03  0.47000000000E+01 0. -1.
         -5    1    5    5    0  503 -0.52794680726E+02 -0.71522244536E+02  0.10975986542E+04  0.11012027994E+04  0.47000000000E+01 0. -1.
<mgrwt>
<rscale>  0 0.27453232E+03</rscale>
<asrwt>0</asrwt>
<pdfrwt beam="1">  1        1 0.58989235E+00 0.27453232E+03</pdfrwt>
<pdfrwt beam="2">  1       -1 0.75600990E-03 0.27453232E+03</pdfrwt>
<totfact> 0.48444304E+02</totfact>
</mgrwt>
</event>
<event>
 9    1  0.2073852E-002  0.2761948E+03  0.7818608E-02  0.1097786E+00
          2   -1    0    0  501    0  0.00000000000E+00  0.00000000000E+00  0.40495213854E+03  0.40495213854E+03  0.00000000000E+00 0. -1.
         -2   -1    0    0    0  501 -0.00000000000E+00 -0.00000000000E+00 -0.47094204223E+02  0.47094204223E+02  0.00000000000E+00 0. -1.
         36    2    1    2    0    0 -0.14210854715E-13  0.00000000000E+00  0.35785793431E+03  0.45204634276E+03  0.27619484943E+03 0.  0.
         25    2    3    3    0    0  0.42367085815E+02  0.16583643522E+02  0.12821987286E+03  0.18674479593E+03  0.12791909872E+03 0.  0.
         25    2    3    3    0    0 -0.42367085815E+02 -0.16583643522E+02  0.22963806146E+03  0.26530154684E+03  0.12482501468E+03 0.  0.
          5    1    4    4  502    0  0.43348856444E+02  0.94147257971E+01  0.15359572234E+03  0.15994216561E+03  0.47000000000E+01 0. -1.
         -5    1    4    4    0  502 -0.98177062884E+00  0.71689177250E+01 -0.25375849485E+02  0.26802630319E+02  0.47000000000E+01 0. -1.
          5    1    5    5  503    0 -0.37745131584E+02  0.11397203399E+01  0.24050164088E+03  0.24349357936E+03  0.47000000000E+01 0.  1.
         -5    1    5    5    0  503 -0.46219542305E+01 -0.17723363862E+02 -0.10863579428E+02  0.21807967477E+02  0.47000000000E+01 0.  1.
<mgrwt>
<rscale>  0 0.27619485E+03</rscale>
<asrwt>0</asrwt>
<pdfrwt beam="1">  1        2 0.62300327E-01 0.27619485E+03</pdfrwt>
<pdfrwt beam="2">  1       -2 0.72452625E-02 0.27619485E+03</pdfrwt>
<totfact> 0.86424236E+03</totfact>
</mgrwt>
</event>
<event>
 9    1  0.2073852E-002  0.2743621E+03  0.7818608E-02  0.1098809E+00
          1   -1    0    0  501    0  0.00000000000E+00  0.00000000000E+00  0.41972623409E+03  0.41972623409E+03  0.00000000000E+00 0.  1.
         -1   -1    0    0    0  501 -0.00000000000E+00 -0.00000000000E+00 -0.44835516654E+02  0.44835516654E+02  0.00000000000E+00 0.  1.
         36    2    1    2    0    0  0.71054273576E-14 -0.71054273576E-14  0.37489071744E+03  0.46456175074E+03  0.27436211516E+03 0.  0.
         25    2    3    3    0    0 -0.36150244385E+02 -0.43761993341E+01  0.24158043768E+03  0.27992048224E+03  0.13663227004E+03 0.  0.
         25    2    3    3    0    0  0.36150244385E+02  0.43761993341E+01  0.13331027976E+03  0.18464126851E+03  0.12245315863E+03 0.  0.
          5    1    4    4  502    0  0.43053857689E+02  0.29737420778E+02  0.66965145126E+02  0.85113862080E+02  0.47000000000E+01 0. -1.
         -5    1    4    4    0  502 -0.79204102074E+02 -0.34113620112E+02  0.17461529255E+03  0.19480662015E+03  0.47000000000E+01 0. -1.
          5    1    5    5  503    0  0.21377981578E+02  0.56995384128E+02  0.30814353128E+02  0.68389372471E+02  0.47000000000E+01 0.  1.
         -5    1    5    5    0  503  0.14772262807E+02 -0.52619184794E+02  0.10249592663E+03  0.11625189604E+03  0.47000000000E+01 0.  1.
<mgrwt>
<rscale>  0 0.27436212E+03</rscale>
<asrwt>0</asrwt>
<pdfrwt beam="1">  1        1 0.64573264E-01 0.27436212E+03</pdfrwt>
<pdfrwt beam="2">  1       -1 0.68977721E-02 0.27436212E+03</pdfrwt>
<totfact> 0.61150102E+03</totfact>
</mgrwt>
</event>
<event>
 9    1  0.2073852E-002  0.2759055E+03  0.7818608E-02  0.1097947E+00
         -2   -1    0    0    0  501 -0.00000000000E+00  0.00000000000E+00  0.13912844638E+03  0.13912844638E+03  0.00000000000E+00 0.  1.
          2   -1    0    0  501    0  0.00000000000E+00 -0.00000000000E+00 -0.13678694298E+03  0.13678694298E+03  0.00000000000E+00 0.  1.
         36    2    1    2    0    0  0.00000000000E+00  0.00000000000E+00  0.23415033921E+01  0.27591538936E+03  0.27590545382E+03 0.  0.
         25    2    3    3    0    0  0.37210758245E+02  0.71923751366E+01 -0.35002169537E+02  0.13509889677E+03  0.12486067935E+03 0.  0.
         25    2    3    3    0    0 -0.37210758245E+02 -0.71923751366E+01  0.37343672929E+02  0.14081649259E+03  0.13037777375E+03 0.  0.
          5    1    4    4  502    0  0.41102887093E+02 -0.11954402143E+02  0.39194293857E+02  0.58229182795E+02  0.47000000000E+01 0. -1.
         -5    1    4    4    0  502 -0.38921288476E+01  0.19146777280E+02 -0.74196463394E+02  0.76869713980E+02  0.47000000000E+01 0. -1.
          5    1    5    5  503    0 -0.21561380979E+02  0.31501537464E+02 -0.38309305252E+02  0.54285659996E+02  0.47000000000E+01 0. -1.
         -5    1    5    5    0  503 -0.15649377266E+02 -0.38693912601E+02  0.75652978181E+02  0.86530832591E+02  0.47000000000E+01 0. -1.
<mgrwt>
<rscale>  0 0.27590545E+03</rscale>
<asrwt>0</asrwt>
<pdfrwt beam="1">  1        2 0.21044145E-01 0.27590545E+03</pdfrwt>
<pdfrwt beam="2">  1       -2 0.21404376E-01 0.27590545E+03</pdfrwt>
<totfact> 0.48606617E+03</totfact>
</mgrwt>
</event>
<event>
 9    1  0.2073852E-002  0.2750067E+03  0.7818608E-02  0.1098448E+00
          1   -1    0    0  501    0  0.00000000000E+00  0.00000000000E+00  0.22564375511E+02  0.22564375511E+02  0.00000000000E+00 0.  1.
         -1   -1    0    0    0  501 -0.00000000000E+00 -0.00000000000E+00 -0.83792117925E+03  0.83792117925E+03  0.00000000000E+00 0.  1.
         36    2    1    2    0    0  0.71054273576E-14  0.00000000000E+00 -0.81535680374E+03  0.86048555476E+03  0.27500667728E+03 0.  0.
         25    2    3    3    0    0 -0.43165669591E+02  0.26844666995E+02 -0.39608612890E+03  0.42009064998E+03  0.13041480558E+03 0.  0.
         25    2    3    3    0    0  0.43165669591E+02 -0.26844666995E+02 -0.41927067484E+03  0.44039490478E+03  0.12480329403E+03 0.  0.
          5    1    4    4  502    0 -0.74804946982E+02  0.36657185007E+02 -0.14917828997E+03  0.17092624580E+03  0.47000000000E+01 0.  1.
         -5    1    4    4    0  502  0.31639277391E+02 -0.98125180125E+01 -0.24690783893E+03  0.24916440417E+03  0.47000000000E+01 0.  1.
          5    1    5    5  503    0  0.23721316559E+02 -0.46198419393E+02 -0.40639540689E+03  0.40972711840E+03  0.47000000000E+01 0. -1.
         -5    1    5    5    0  503  0.19444353031E+02  0.19353752399E+02 -0.12875267953E+02  0.30667786382E+02  0.47000000000E+01 0. -1.
<mgrwt>
<rscale>  0 0.27500668E+03</rscale>
<asrwt>0</asrwt>
<pdfrwt beam="1">  1        1 0.34714425E-02 0.27500668E+03</pdfrwt>
<pdfrwt beam="2">  1       -1 0.12891095E+00 0.27500668E+03</pdfrwt>
<totfact> 0.15414460E+03</totfact>
</mgrwt>
</event>
<event>
 9    1  0.2073852E-002  0.2745640E+03  0.7818608E-02  0.1098696E+00
         -2   -1    0    0    0  501 -0.00000000000E+00  0.00000000000E+00  0.38827693025E+02  0.38827693025E+02  0.00000000000E+00 0.  1.
          2   -1    0    0  501    0  0.00000000000E+00 -0.00000000000E+00 -0.48538401657E+03  0.48538401657E+03  0.00000000000E+00 0.  1.
         36    2    1    2    0    0  0.00000000000E+00 -0.17763568394E-14 -0.44655632355E+03  0.52421170960E+03  0.27456395681E+03 0.  0.
         25    2    3    3    0    0 -0.80924443950E+00  0.29788962655E+00 -0.32685133590E+03  0.34970239480E+03  0.12433513395E+03 0.  0.
         25    2    3    3    0    0  0.80924443950E+00 -0.29788962655E+00 -0.11970498764E+03  0.17450931479E+03  0.12697823935E+03 0.  0.
          5    1    4    4  502    0 -0.39295757896E+02  0.48225108786E+02 -0.15212984531E+03  0.16442444325E+03  0.47000000000E+01 0. -1.
         -5    1    4    4    0  502  0.38486513457E+02 -0.47927219159E+02 -0.17472149060E+03  0.18527795155E+03  0.47000000000E+01 0. -1.
          5    1    5    5  503    0  0.62311292473E+02  0.98075427952E+01 -0.72289035691E+02  0.96055607574E+02  0.47000000000E+01 0. -1.
         -5    1    5    5    0  503 -0.61502048034E+02 -0.10105432422E+02 -0.47415951952E+02  0.78453707218E+02  0.47000000000E+01 0. -1.
<mgrwt>
<rscale>  0 0.27456396E+03</rscale>
<asrwt>0</asrwt>
<pdfrwt beam="1">  1        2 0.74674461E-01 0.27456396E+03</pdfrwt>
<pdfrwt beam="2">  1       -2 0.59734915E-02 0.27456396E+03</pdfrwt>
<totfact> 0.95354665E+03</totfact>
</mgrwt>
</event>
<event>
 9    1  0.2073852E-002  0.2754009E+03  0.7818608E-02  0.1098228E+00
         -2   -1    0    0    0  501 -0.00000000000E+00  0.00000000000E+00  0.67573951740E+02  0.67573951740E+02  0.00000000000E+00 0. -1.
          2   -1    0    0  501    0  0.00000000000E+00 -0.00000000000E+00 -0.28060237911E+03  0.28060237911E+03  0.00000000000E+00 0. -1.
         36    2    1    2    0    0 -0.71054273576E-14 -0.71054273576E-14 -0.21302842737E+03  0.34817633086E+03  0.27540088326E+03 0.  0.
         25    2    3    3    0    0  0.34617298447E+02  0.22393030017E+02 -0.14895341982E+03  0.20052628059E+03  0.12776487305E+03 0.  0.
         25    2    3    3    0    0 -0.34617298447E+02 -0.22393030017E+02 -0.64075007551E+02  0.14765005026E+03  0.12647183720E+03 0.  0.
          5    1    4    4  502    0  0.39975930905E+02 -0.44234603508E+02 -0.37841985385E+02  0.70773448815E+02  0.47000000000E+01 0. -1.
         -5    1    4    4    0  502 -0.53586324576E+01  0.66627633525E+02 -0.11111143444E+03  0.12975283178E+03  0.47000000000E+01 0. -1.
          5    1    5    5  503    0  0.44109799661E+02 -0.27577531776E+02 -0.13970086881E+02  0.54068919098E+02  0.47000000000E+01 0. -1.
         -5    1    5    5    0  503 -0.78727098108E+02  0.51845017591E+01 -0.50104920669E+02  0.93581131166E+02  0.47000000000E+01 0. -1.
<mgrwt>
<rscale>  0 0.27540088E+03</rscale>
<asrwt>0</asrwt>
<pdfrwt beam="1">  1        2 0.43169598E-01 0.27540088E+03</pdfrwt>
<pdfrwt beam="2">  1       -2 0.10395992E-01 0.27540088E+03</pdfrwt>
<totfact> 0.72770202E+03</totfact>
</mgrwt>
</event>
<event>
 9    1  0.2073852E-002  0.2741613E+03  0.7818608E-02  0.1098921E+00
          2   -1    0    0  501    0  0.00000000000E+00  0.00000000000E+00  0.56790902964E+03  0.56790902964E+03  0.00000000000E+00 0.  1.
         -2   -1    0    0    0  501 -0.00000000000E+00 -0.00000000000E+00 -0.33088227841E+02  0.33088227841E+02  0.00000000000E+00 0.  1.
         36    2    1    2    0    0  0.00000000000E+00  0.17763568394E-14  0.53482080179E+03  0.60099725748E+03  0.27416129096E+03 0.  0.
         25    2    3    3    0    0 -0.54517709992E+02 -0.82770023218E+01  0.29866536965E+03  0.32864963956E+03  0.12557425327E+03 0.  0.
         25    2    3    3    0    0  0.54517709992E+02  0.82770023218E+01  0.23615543214E+03  0.27234761791E+03  0.12394816410E+03 0.  0.
          5    1    4    4  502    0 -0.44127068472E+02  0.55412664529E+02  0.13227289968E+03  0.15011985728E+03  0.47000000000E+01 0.  1.
         -5    1    4    4    0  502 -0.10390641520E+02 -0.63689666851E+02  0.16639246998E+03  0.17852978228E+03  0.47000000000E+01 0.  1.
          5    1    5    5  503    0 -0.21400984578E+02  0.11205269668E+02  0.40561265907E+00  0.24613303941E+02  0.47000000000E+01 0.  1.
         -5    1    5    5    0  503  0.75918694570E+02 -0.29282673465E+01  0.23574981948E+03  0.24773431397E+03  0.47000000000E+01 0.  1.
<mgrwt>
<rscale>  0 0.27416129E+03</rscale>
<asrwt>0</asrwt>
<pdfrwt beam="1">  1        2 0.87370613E-01 0.27416129E+03</pdfrwt>
<pdfrwt beam="2">  1       -2 0.50904970E-02 0.27416129E+03</pdfrwt>
<totfact> 0.10195793E+04</totfact>
</mgrwt>
</event>
<event>
 9    1  0.2073852E-002  0.2751675E+03  0.7818608E-02  0.1098358E+00
         -4   -1    0    0    0  501 -0.00000000000E+00  0.00000000000E+00  0.24266039906E+03  0.24266039906E+03  0.00000000000E+00 0.  1.
          4   -1    0    0  501    0  0.00000000000E+00 -0.00000000000E+00 -0.78007327350E+02  0.78007327350E+02  0.00000000000E+00 0.  1.
         36    2    1    2    0    0  0.71054273576E-14  0.35527136788E-14  0.16465307171E+03  0.32066772641E+03  0.27516750669E+03 0.  0.
         25    2    3    3    0    0  0.50417330434E+02  0.16856966596E+02  0.39233860554E+02  0.13545029610E+03  0.11824306478E+03 0.  0.
         25    2    3    3    0    0 -0.50417330434E+02 -0.16856966596E+02  0.12541921116E+03  0.18521743031E+03  0.12549682638E+03 0.  0.
          5    1    4    4  502    0 -0.17718768641E+02  0.43199328241E+02  0.40869840907E+02  0.62229981668E+02  0.47000000000E+01 0. -1.
         -5    1    4    4    0  502  0.68136099075E+02 -0.26342361645E+02 -0.16359803527E+01  0.73220314434E+02  0.47000000000E+01 0. -1.
          5    1    5    5  503    0  0.23532919004E+01 -0.60104759580E+02  0.28831931385E+02  0.66869203482E+02  0.47000000000E+01 0.  1.
         -5    1    5    5    0  503 -0.52770622335E+02  0.43247792984E+02  0.96587279771E+02  0.11834822683E+03  0.47000000000E+01 0.  1.
<mgrwt>
<rscale>  0 0.27516751E+03</rscale>
<asrwt>0</asrwt>
<pdfrwt beam="1">  1        4 0.12001127E-01 0.27516751E+03</pdfrwt>
<pdfrwt beam="2">  1       -4 0.37332369E-01 0.27516751E+03</pdfrwt>
<totfact> 0.72608617E+02</totfact>
</mgrwt>
</event>
<event>
 9    1  0.2073852E-002  0.2751166E+03  0.7818608E-02  0.1098386E+00
         -2   -1    0    0    0  501 -0.00000000000E+00  0.00000000000E+00  0.79042680746E+03  0.79042680746E+03  0.00000000000E+00 0. -1.
          2   -1    0    0  501    0  0.00000000000E+00 -0.00000000000E+00 -0.23939321260E+02  0.23939321260E+02  0.00000000000E+00 0. -1.
         36    2    1    2    0    0  0.71054273576E-14  0.00000000000E+00  0.76648748620E+03  0.81436612872E+03  0.27511656639E+03 0.  0.
         25    2    3    3    0    0  0.17164894646E+02 -0.47652798377E+02  0.35863980517E+03  0.38289723841E+03  0.12418680499E+03 0.  0.
         25    2    3    3    0    0 -0.17164894646E+02  0.47652798377E+02  0.40784768103E+03  0.43146889030E+03  0.13137826904E+03 0.  0.
          5    1    4    4  502    0 -0.28002519841E+02 -0.73883243420E+02  0.25058819580E+03  0.26279156884E+03  0.47000000000E+01 0.  1.
         -5    1    4    4    0  502  0.45167414487E+02  0.26230445043E+02  0.10805160936E+03  0.12010566958E+03  0.47000000000E+01 0.  1.
          5    1    5    5  503    0 -0.60886349276E+02  0.57788405818E+02  0.33809277582E+03  0.34838981391E+03  0.47000000000E+01 0.  1.
         -5    1    5    5    0  503  0.43721454630E+02 -0.10135607441E+02  0.69754905208E+02  0.83079076390E+02  0.47000000000E+01 0.  1.
<mgrwt>
<rscale>  0 0.27511657E+03</rscale>
<asrwt>0</asrwt>
<pdfrwt beam="1">  1        2 0.36829731E-02 0.27511657E+03</pdfrwt>
<pdfrwt beam="2">  1       -2 0.12160410E+00 0.27511657E+03</pdfrwt>
<totfact> 0.12738171E+03</totfact>
</mgrwt>
</event>
<event>
 9    1  0.2073852E-002  0.2750152E+03  0.7818608E-02  0.1098443E+00
          1   -1    0    0  501    0  0.00000000000E+00  0.00000000000E+00  0.99545076431E+02  0.99545076431E+02  0.00000000000E+00 0. -1.
         -1   -1    0    0    0  501 -0.00000000000E+00 -0.00000000000E+00 -0.18994752297E+03  0.18994752297E+03  0.00000000000E+00 0. -1.
         36    2    1    2    0    0 -0.35527136788E-14  0.14210854715E-13 -0.90402446537E+02  0.28949259940E+03  0.27501520461E+03 0.  0.
         25    2    3    3    0    0  0.21884625870E+02 -0.51182014305E+02 -0.67916389395E+02  0.15283449851E+03  0.12508881864E+03 0.  0.
         25    2    3    3    0    0 -0.21884625870E+02  0.51182014305E+02 -0.22486057142E+02  0.13665810089E+03  0.12276513485E+03 0.  0.
          5    1    4    4  502    0 -0.28129836529E+02 -0.93548188404E+01  0.25113131797E+02  0.39135146957E+02  0.47000000000E+01 0. -1.
         -5    1    4    4    0  502  0.50014462399E+02 -0.41827195465E+02 -0.93029521193E+02  0.11369935155E+03  0.47000000000E+01 0. -1.
          5    1    5    5  503    0  0.45531710005E+02  0.44772383917E+02  0.31210324606E+01  0.64105645782E+02  0.47000000000E+01 0.  1.
         -5    1    5    5    0  503 -0.67416335875E+02  0.64096303889E+01 -0.25607089602E+02  0.72552455110E+02  0.47000000000E+01 0.  1.
<mgrwt>
<rscale>  0 0.27501520E+03</rscale>
<asrwt>0</asrwt>
<pdfrwt beam="1">  1        1 0.15314627E-01 0.27501520E+03</pdfrwt>
<pdfrwt beam="2">  1       -1 0.29222696E-01 0.27501520E+03</pdfrwt>
<totfact> 0.38533216E+03</totfact>
</mgrwt>
</event>
<event>
 9    1  0.2073852E-002  0.2749251E+03  0.7818608E-02  0.1098493E+00
         -1   -1    0    0    0  501 -0.00000000000E+00  0.00000000000E+00  0.55714774313E+02  0.55714774313E+02  0.00000000000E+00 0. -1.
          1   -1    0    0  501    0  0.00000000000E+00 -0.00000000000E+00 -0.33915507402E+03  0.33915507402E+03  0.00000000000E+00 0. -1.
         36    2    1    2    0    0  0.00000000000E+00 -0.35527136788E-14 -0.28344029970E+03  0.39486984833E+03  0.27492506911E+03 0.  0.
         25    2    3    3    0    0 -0.48466883539E+02  0.19428116209E+02 -0.13463971280E+03  0.19348000600E+03  0.12876400879E+03 0.  0.
         25    2    3    3    0    0  0.48466883539E+02 -0.19428116209E+02 -0.14880058690E+03  0.20138984233E+03  0.12525878584E+03 0.  0.
          5    1    4    4  502    0  0.33912435503E+02  0.20173901212E+01  0.36899689492E+00  0.34297948967E+02  0.47000000000E+01 0. -1.
         -5    1    4    4    0  502 -0.82379319041E+02  0.17410726088E+02 -0.13500870970E+03  0.15918205704E+03  0.47000000000E+01 0. -1.
          5    1    5    5  503    0  0.78896158131E+01  0.52230213536E+02 -0.63497942312E+02  0.82730405061E+02  0.47000000000E+01 0. -1.
         -5    1    5    5    0  503  0.40577267725E+02 -0.71658329745E+02 -0.85302644591E+02  0.11865943727E+03  0.47000000000E+01 0. -1.
<mgrwt>
<rscale>  0 0.27492507E+03</rscale>
<asrwt>0</asrwt>
<pdfrwt beam="1">  1        1 0.52177703E-01 0.27492507E+03</pdfrwt>
<pdfrwt beam="2">  1       -1 0.85715039E-02 0.27492507E+03</pdfrwt>
<totfact> 0.57639142E+03</totfact>
</mgrwt>
</event>
<event>
 9    1  0.2073852E-002  0.2739198E+03  0.7818608E-02  0.1099057E+00
          2   -1    0    0  501    0  0.00000000000E+00  0.00000000000E+00  0.13079121546E+04  0.13079121546E+04  0.00000000000E+00 0. -1.
         -2   -1    0    0    0  501 -0.00000000000E+00 -0.00000000000E+00 -0.14341956105E+02  0.14341956105E+02  0.00000000000E+00 0. -1.
         36    2    1    2    0    0  0.71054273576E-14  0.00000000000E+00  0.12935701985E+04  0.13222541107E+04  0.27391983288E+03 0.  0.
         25    2    3    3    0    0 -0.55591275875E+01  0.22094988954E+02  0.77307417592E+03  0.78321811518E+03  0.12356310949E+03 0.  0.
         25    2    3    3    0    0  0.55591275875E+01 -0.22094988954E+02  0.52049602255E+03  0.53903599551E+03  0.13829172978E+03 0.  0.
          5    1    4    4  502    0  0.40964455332E+02  0.36281249122E+02  0.18146785061E+03  0.18959716887E+03  0.47000000000E+01 0.  1.
         -5    1    4    4    0  502 -0.46523582919E+02 -0.14186260168E+02  0.59160632532E+03  0.59362094631E+03  0.47000000000E+01 0.  1.
          5    1    5    5  503    0 -0.64985675863E+02 -0.23528551860E+01  0.20524307214E+03  0.21534967531E+03  0.47000000000E+01 0.  1.
         -5    1    5    5    0  503  0.70544803450E+02 -0.19742133768E+02  0.31525295041E+03  0.32368632020E+03  0.47000000000E+01 0.  1.
<mgrwt>
<rscale>  0 0.27391983E+03</rscale>
<asrwt>0</asrwt>
<pdfrwt beam="1">  1        2 0.20121716E+00 0.27391983E+03</pdfrwt>
<pdfrwt beam="2">  1       -2 0.22064558E-02 0.27391983E+03</pdfrwt>
<totfact> 0.11604461E+04</totfact>
</mgrwt>
</event>
<event>
 9    1  0.2073852E-002  0.2781421E+03  0.7818608E-02  0.1096708E+00
         -2   -1    0    0    0  501 -0.00000000000E+00  0.00000000000E+00  0.17569395869E+02  0.17569395869E+02  0.00000000000E+00 0. -1.
          2   -1    0    0  501    0  0.00000000000E+00 -0.00000000000E+00 -0.11008204472E+04  0.11008204472E+04  0.00000000000E+00 0. -1.
         36    2    1    2    0    0  0.71054273576E-14  0.00000000000E+00 -0.10832510513E+04  0.11183898430E+04  0.27814205160E+03 0.  0.
         25    2    3    3    0    0  0.35870086819E+02  0.49513937194E+02 -0.54221844010E+03  0.55986272677E+03  0.12532814108E+03 0.  0.
         25    2    3    3    0    0 -0.35870086819E+02 -0.49513937194E+02 -0.54103261119E+03  0.55852711625E+03  0.12449080331E+03 0.  0.
          5    1    4    4  502    0 -0.11785325289E+02  0.60562649519E+02 -0.12214321362E+03  0.13692254395E+03  0.47000000000E+01 0. -1.
         -5    1    4    4    0  502  0.47655412108E+02 -0.11048712325E+02 -0.42007522648E+03  0.42294018283E+03  0.47000000000E+01 0. -1.
          5    1    5    5  503    0  0.30351305375E+02 -0.45621673822E+02 -0.38507871386E+03  0.38898617550E+03  0.47000000000E+01 0.  1.
         -5    1    5    5    0  503 -0.66221392194E+02 -0.38922633722E+01 -0.15595389733E+03  0.16954094075E+03  0.47000000000E+01 0.  1.
<mgrwt>
<rscale>  0 0.27814205E+03</rscale>
<asrwt>0</asrwt>
<pdfrwt beam="1">  1        2 0.16935700E+00 0.27814205E+03</pdfrwt>
<pdfrwt beam="2">  1       -2 0.27029838E-02 0.27814205E+03</pdfrwt>
<totfact> 0.11275706E+04</totfact>
</mgrwt>
</event>
<event>
 9    1  0.2073852E-002  0.2754064E+03  0.7818608E-02  0.1098225E+00
         -3   -1    0    0    0  501 -0.00000000000E+00  0.00000000000E+00  0.28395345353E+02  0.28395345353E+02  0.00000000000E+00 0. -1.
          3   -1    0    0  501    0  0.00000000000E+00 -0.00000000000E+00 -0.66779144026E+03  0.66779144026E+03  0.00000000000E+00 0. -1.
         36    2    1    2    0    0  0.14210854715E-13  0.10658141036E-13 -0.63939609491E+03  0.69618678561E+03  0.27540638025E+03 0.  0.
         25    2    3    3    0    0  0.50438910842E+02  0.28599111932E+02 -0.26592905273E+03  0.29975928895E+03  0.12560006886E+03 0.  0.
         25    2    3    3    0    0 -0.50438910842E+02 -0.28599111932E+02 -0.37346704218E+03  0.39642749666E+03  0.11964587576E+03 0.  0.
          5    1    4    4  502    0 -0.28250526507E+01 -0.45034625183E+02 -0.65933848380E+02  0.80034122410E+02  0.47000000000E+01 0. -1.
         -5    1    4    4    0  502  0.53263963493E+02  0.73633737115E+02 -0.19999520435E+03  0.21972516654E+03  0.47000000000E+01 0. -1.
          5    1    5    5  503    0 -0.22407607234E+02 -0.18853470053E+02 -0.36359159659E+03  0.36479925069E+03  0.47000000000E+01 0.  1.
         -5    1    5    5    0  503 -0.28031303608E+02 -0.97456418795E+01 -0.98754455878E+01  0.31628245971E+02  0.47000000000E+01 0.  1.
<mgrwt>
<rscale>  0 0.27540638E+03</rscale>
<asrwt>0</asrwt>
<pdfrwt beam="1">  1        3 0.10273715E+00 0.27540638E+03</pdfrwt>
<pdfrwt beam="2">  1       -3 0.43685146E-02 0.27540638E+03</pdfrwt>
<totfact> 0.61101789E+02</totfact>
</mgrwt>
</event>
<event>
 9    1  0.2073852E-002  0.2756229E+03  0.7818608E-02  0.1098104E+00
          2   -1    0    0  501    0  0.00000000000E+00  0.00000000000E+00  0.10307658121E+03  0.10307658121E+03  0.00000000000E+00 0. -1.
         -2   -1    0    0    0  501 -0.00000000000E+00 -0.00000000000E+00 -0.18425128205E+03  0.18425128205E+03  0.00000000000E+00 0. -1.
         36    2    1    2    0    0  0.00000000000E+00 -0.71054273576E-14 -0.81174700835E+02  0.28732786326E+03  0.27562287450E+03 0.  0.
         25    2    3    3    0    0  0.68274714670E+01 -0.42241335469E+02 -0.53208566201E+02  0.15244694242E+03  0.13630104162E+03 0.  0.
         25    2    3    3    0    0 -0.68274714670E+01  0.42241335469E+02 -0.27966134635E+02  0.13488092084E+03  0.12481912245E+03 0.  0.
          5    1    4    4  502    0  0.20482618549E+01  0.44724357693E+02 -0.46879227998E+02  0.64993965607E+02  0.47000000000E+01 0. -1.
         -5    1    4    4    0  502  0.47792096121E+01 -0.86965693162E+02 -0.63293382030E+01  0.87452976815E+02  0.47000000000E+01 0. -1.
          5    1    5    5  503    0  0.45776518126E+01  0.78304532132E+02  0.12187198353E+02  0.79518378078E+02  0.47000000000E+01 0. -1.
         -5    1    5    5    0  503 -0.11405123280E+02 -0.36063196663E+02 -0.40153332987E+02  0.55362542757E+02  0.47000000000E+01 0. -1.
<mgrwt>
<rscale>  0 0.27562287E+03</rscale>
<asrwt>0</asrwt>
<pdfrwt beam="1">  1        2 0.15857936E-01 0.27562287E+03</pdfrwt>
<pdfrwt beam="2">  1       -2 0.28346351E-01 0.27562287E+03</pdfrwt>
<totfact> 0.41122912E+03</totfact>
</mgrwt>
</event>
<event>
 9    1  0.2073852E-002  0.2734353E+03  0.7818608E-02  0.1099329E+00
          1   -1    0    0  501    0  0.00000000000E+00  0.00000000000E+00  0.12571914678E+04  0.12571914678E+04  0.00000000000E+00 0.  1.
         -1   -1    0    0    0  501 -0.00000000000E+00 -0.00000000000E+00 -0.14867839401E+02  0.14867839401E+02  0.00000000000E+00 0.  1.
         36    2    1    2    0    0  0.35527136788E-14  0.71054273576E-14  0.12423236284E+04  0.12720593072E+04  0.27343533670E+03 0.  0.
         25    2    3    3    0    0  0.25855674752E+02  0.29136187772E+02  0.44061187652E+03  0.45978789950E+03  0.12549363908E+03 0.  0.
         25    2    3    3    0    0 -0.25855674752E+02 -0.29136187772E+02  0.80171175192E+03  0.81227140773E+03  0.12460205977E+03 0.  0.
          5    1    4    4  502    0  0.49432844964E+02  0.89213358250E+01  0.41812563274E+03  0.42115832076E+03  0.47000000000E+01 0. -1.
         -5    1    4    4    0  502 -0.23577170213E+02  0.20214851947E+02  0.22486243776E+02  0.38629578740E+02  0.47000000000E+01 0. -1.
          5    1    5    5  503    0 -0.28918652338E+02 -0.69457405290E+02  0.31644617956E+03  0.32530123602E+03  0.47000000000E+01 0. -1.
         -5    1    5    5    0  503  0.30629775868E+01  0.40321217517E+02  0.48526557236E+03  0.48697017171E+03  0.47000000000E+01 0. -1.
<mgrwt>
<rscale>  0 0.27343534E+03</rscale>
<asrwt>0</asrwt>
<pdfrwt beam="1">  1        1 0.19341399E+00 0.27343534E+03</pdfrwt>
<pdfrwt beam="2">  1       -1 0.22873609E-02 0.27343534E+03</pdfrwt>
<totfact> 0.58789313E+03</totfact>
</mgrwt>
</event>
<event>
 9    1  0.2073852E-002  0.2745264E+03  0.7818608E-02  0.1098717E+00
          3   -1    0    0  501    0  0.00000000000E+00  0.00000000000E+00  0.93048744683E+03  0.93048744683E+03  0.00000000000E+00 0. -1.
         -3   -1    0    0    0  501 -0.00000000000E+00 -0.00000000000E+00 -0.20248729587E+02  0.20248729587E+02  0.00000000000E+00 0. -1.
         36    2    1    2    0    0 -0.44408920985E-15  0.71054273576E-14  0.91023871724E+03  0.95073617642E+03  0.27452641909E+03 0.  0.
         25    2    3    3    0    0  0.78463194430E+00 -0.43034794899E+02  0.29801522131E+03  0.32410201201E+03  0.11990176328E+03 0.  0.
         25    2    3    3    0    0 -0.78463194430E+00  0.43034794899E+02  0.61222349594E+03  0.62663416441E+03  0.12649173020E+03 0.  0.
          5    1    4    4  502    0 -0.17957226720E+02  0.38173622571E+02  0.78329895643E+02  0.89091806599E+02  0.47000000000E+01 0.  1.
         -5    1    4    4    0  502  0.18741858664E+02 -0.81208417470E+02  0.21968532566E+03  0.23501020541E+03  0.47000000000E+01 0.  1.
          5    1    5    5  503    0  0.10181821828E+01  0.47198997164E+02  0.71126118896E+02  0.85497349769E+02  0.47000000000E+01 0.  1.
         -5    1    5    5    0  503 -0.18028141271E+01 -0.41642022655E+01  0.54109737704E+03  0.54113681464E+03  0.47000000000E+01 0.  1.
<mgrwt>
<rscale>  0 0.27452642E+03</rscale>
<asrwt>0</asrwt>
<pdfrwt beam="1">  1        3 0.14315188E+00 0.27452642E+03</pdfrwt>
<pdfrwt beam="2">  1       -3 0.31151899E-02 0.27452642E+03</pdfrwt>
<totfact> 0.47006115E+02</totfact>
</mgrwt>
</event>
<event>
 9    1  0.2073852E-002  0.2733325E+03  0.7818608E-02  0.1099387E+00
          2   -1    0    0  501    0  0.00000000000E+00  0.00000000000E+00  0.19440061242E+04  0.19440061242E+04  0.00000000000E+00 0. -1.
         -2   -1    0    0    0  501 -0.00000000000E+00 -0.00000000000E+00 -0.96078198245E+01  0.96078198245E+01  0.00000000000E+00 0. -1.
         36    2    1    2    0    0 -0.71054273576E-14  0.00000000000E+00  0.19343983044E+04  0.19536139441E+04  0.27333247578E+03 0.  0.
         25    2    3    3    0    0 -0.13051945450E+02 -0.44892168559E+02  0.62343892156E+03  0.63601907490E+03  0.11686964807E+03 0.  0.
         25    2    3    3    0    0  0.13051945450E+02  0.44892168559E+02  0.13109593829E+04  0.13175948692E+04  0.12351548762E+03 0.  0.
          5    1    4    4  502    0 -0.36967548236E+02  0.13437980942E+02  0.83817904428E+02  0.92707659107E+02  0.47000000000E+01 0.  1.
         -5    1    4    4    0  502  0.23915602786E+02 -0.58330149501E+02  0.53962101713E+03  0.54331141579E+03  0.47000000000E+01 0.  1.
          5    1    5    5  503    0 -0.55000087093E+02  0.27374479330E+02  0.59917102735E+03  0.60233079094E+03  0.47000000000E+01 0. -1.
         -5    1    5    5    0  503  0.68052032543E+02  0.17517689229E+02  0.71178835550E+03  0.71526407823E+03  0.47000000000E+01 0. -1.
<mgrwt>
<rscale>  0 0.27333248E+03</rscale>
<asrwt>0</asrwt>
<pdfrwt beam="1">  1        2 0.29907755E+00 0.27333248E+03</pdfrwt>
<pdfrwt beam="2">  1       -2 0.14781277E-02 0.27333248E+03</pdfrwt>
<totfact> 0.95834826E+03</totfact>
</mgrwt>
</event>
<event>
 9    1  0.2073852E-002  0.2752147E+03  0.7818608E-02  0.1098332E+00
         -2   -1    0    0    0  501 -0.00000000000E+00  0.00000000000E+00  0.11097957494E+02  0.11097957494E+02  0.00000000000E+00 0.  1.
          2   -1    0    0  501    0  0.00000000000E+00 -0.00000000000E+00 -0.17062399135E+04  0.17062399135E+04  0.00000000000E+00 0.  1.
         36    2    1    2    0    0  0.17763568394E-14  0.00000000000E+00 -0.16951419560E+04  0.17173378710E+04  0.27521466556E+03 0.  0.
         25    2    3    3    0    0 -0.92078025558E+01 -0.17520984456E+02 -0.65531636225E+03  0.67024310306E+03  0.13926418798E+03 0.  0.
         25    2    3    3    0    0  0.92078025558E+01  0.17520984456E+02 -0.10398255938E+04  0.10470947680E+04  0.12156652115E+03 0.  0.
          5    1    4    4  502    0 -0.10357306025E+01  0.47311586207E+02 -0.96314530662E+02  0.10741525843E+03  0.47000000000E+01 0.  1.
         -5    1    4    4    0  502 -0.81720719533E+01 -0.64832570662E+02 -0.55900183158E+03  0.56282784463E+03  0.47000000000E+01 0.  1.
          5    1    5    5  503    0  0.36645326156E+02  0.32911290344E+02 -0.95840719074E+03  0.95968352399E+03  0.47000000000E+01 0. -1.
         -5    1    5    5    0  503 -0.27437523601E+02 -0.15390305888E+02 -0.81418403053E+02  0.87411243970E+02  0.47000000000E+01 0. -1.
<mgrwt>
<rscale>  0 0.27521467E+03</rscale>
<asrwt>0</asrwt>
<pdfrwt beam="1">  1        2 0.26249832E+00 0.27521467E+03</pdfrwt>
<pdfrwt beam="2">  1       -2 0.17073789E-02 0.27521467E+03</pdfrwt>
<totfact> 0.10345331E+04</totfact>
</mgrwt>
</event>
<event>
 9    1  0.2073852E-002  0.2749128E+03  0.7818608E-02  0.1098500E+00
          2   -1    0    0  501    0  0.00000000000E+00  0.00000000000E+00  0.36861142969E+03  0.36861142969E+03  0.00000000000E+00 0.  1.
         -2   -1    0    0    0  501 -0.00000000000E+00 -0.00000000000E+00 -0.51257924860E+02  0.51257924860E+02  0.00000000000E+00 0.  1.
         36    2    1    2    0    0 -0.71054273576E-14  0.10658141036E-13  0.31735350483E+03  0.41986935455E+03  0.27491276409E+03 0.  0.
         25    2    3    3    0    0 -0.29307693699E+02 -0.24206069324E+02  0.23283980799E+03  0.26721303166E+03  0.12547331749E+03 0.  0.
         25    2    3    3    0    0  0.29307693699E+02  0.24206069324E+02  0.84513696836E+02  0.15265632289E+03  0.12131163696E+03 0.  0.
          5    1    4    4  502    0 -0.70647118993E+02 -0.14910854728E+01  0.19199819999E+03  0.20464270707E+03  0.47000000000E+01 0.  1.
         -5    1    4    4    0  502  0.41339425294E+02 -0.22714983851E+02  0.40841607995E+02  0.62570324585E+02  0.47000000000E+01 0.  1.
          5    1    5    5  503    0 -0.28805131060E+02 -0.17974435123E+02 -0.82475218106E+01  0.35255177059E+02  0.47000000000E+01 0.  1.
         -5    1    5    5    0  503  0.58112824759E+02  0.42180504448E+02  0.92761218647E+02  0.11740114583E+03  0.47000000000E+01 0.  1.
<mgrwt>
<rscale>  0 0.27491276E+03</rscale>
<asrwt>0</asrwt>
<pdfrwt beam="1">  1        2 0.56709449E-01 0.27491276E+03</pdfrwt>
<pdfrwt beam="2">  1       -2 0.78858348E-02 0.27491276E+03</pdfrwt>
<totfact> 0.83862912E+03</totfact>
</mgrwt>
</event>
<event>
 9    1  0.2073852E-002  0.2780181E+03  0.7818608E-02  0.1096776E+00
         -2   -1    0    0    0  501 -0.00000000000E+00  0.00000000000E+00  0.40317772809E+02  0.40317772809E+02  0.00000000000E+00 0.  1.
          2   -1    0    0  501    0  0.00000000000E+00 -0.00000000000E+00 -0.47928041497E+03  0.47928041497E+03  0.00000000000E+00 0.  1.
         36    2    1    2    0    0  0.35527136788E-14 -0.14210854715E-13 -0.43896264216E+03  0.51959818778E+03  0.27801812087E+03 0.  0.
         25    2    3    3    0    0 -0.64074239733E+00 -0.58923728100E+02 -0.26056361911E+03  0.29342279752E+03  0.12137183454E+03 0.  0.
         25    2    3    3    0    0  0.64074239733E+00  0.58923728100E+02 -0.17839902305E+03  0.22617539025E+03  0.12592330780E+03 0.  0.
          5    1    4    4  502    0 -0.39035403753E+02 -0.45824512598E+02 -0.24041992925E+03  0.24788602438E+03  0.47000000000E+01 0. -1.
         -5    1    4    4    0  502  0.38394661356E+02 -0.13099215503E+02 -0.20143689855E+02  0.45536773144E+02  0.47000000000E+01 0. -1.
          5    1    5    5  503    0  0.29397049853E+02  0.59993654313E+02 -0.18459301234E+03  0.19636724600E+03  0.47000000000E+01 0.  1.
         -5    1    5    5    0  503 -0.28756307455E+02 -0.10699262126E+01  0.61939892856E+01  0.29808144253E+02  0.47000000000E+01 0.  1.
<mgrwt>
<rscale>  0 0.27801812E+03</rscale>
<asrwt>0</asrwt>
<pdfrwt beam="1">  1        2 0.73735449E-01 0.27801812E+03</pdfrwt>
<pdfrwt beam="2">  1       -2 0.62027343E-02 0.27801812E+03</pdfrwt>
<totfact> 0.91316227E+03</totfact>
</mgrwt>
</event>
<event>
 9    1  0.2073852E-002  0.2756672E+03  0.7818608E-02  0.1098079E+00
          2   -1    0    0  501    0  0.00000000000E+00  0.00000000000E+00  0.49216740940E+03  0.49216740940E+03  0.00000000000E+00 0.  1.
         -2   -1    0    0    0  501 -0.00000000000E+00 -0.00000000000E+00 -0.38600895245E+02  0.38600895245E+02  0.00000000000E+00 0.  1.
         36    2    1    2    0    0 -0.14210854715E-13  0.00000000000E+00  0.45356651415E+03  0.53076830464E+03  0.27566720961E+03 0.  0.
         25    2    3    3    0    0  0.66760168410E+02 -0.85400395754E+00  0.28302089122E+03  0.31029683169E+03  0.10828503811E+03 0.  0.
         25    2    3    3    0    0 -0.66760168410E+02  0.85400395754E+00  0.17054562293E+03  0.22047147295E+03  0.12273634945E+03 0.  0.
          5    1    4    4  502    0  0.31415927498E+02  0.28031830596E+02  0.27093411328E+02  0.50288039975E+02  0.47000000000E+01 0. -1.
         -5    1    4    4    0  502  0.35344240913E+02 -0.28885834554E+02  0.25592747989E+03  0.26000879171E+03  0.47000000000E+01 0. -1.
          5    1    5    5  503    0 -0.59290664207E+02  0.35284131809E+02  0.29791887306E+02  0.75299398197E+02  0.47000000000E+01 0.  1.
         -5    1    5    5    0  503 -0.74695042034E+01 -0.34430127852E+02  0.14075373562E+03  0.14517207476E+03  0.47000000000E+01 0.  1.
<mgrwt>
<rscale>  0 0.27566721E+03</rscale>
<asrwt>0</asrwt>
<pdfrwt beam="1">  1        2 0.75718058E-01 0.27566721E+03</pdfrwt>
<pdfrwt beam="2">  1       -2 0.59385996E-02 0.27566721E+03</pdfrwt>
<totfact> 0.94752898E+03</totfact>
</mgrwt>
</event>
<event>
 9    1  0.2073852E-002  0.2746463E+03  0.7818608E-02  0.1098649E+00
          1   -1    0    0  501    0  0.00000000000E+00  0.00000000000E+00  0.81528760640E+03  0.81528760640E+03  0.00000000000E+00 0. -1.
         -1   -1    0    0    0  501 -0.00000000000E+00 -0.00000000000E+00 -0.23130047680E+02  0.23130047680E+02  0.00000000000E+00 0. -1.
         36    2    1    2    0    0  0.00000000000E+00  0.00000000000E+00  0.79215755872E+03  0.83841765408E+03  0.27464625400E+03 0.  0.
         25    2    3    3    0    0 -0.15444019313E+02 -0.36349832729E+02  0.51796517310E+03  0.53443776353E+03  0.12560244610E+03 0.  0.
         25    2    3    3    0    0  0.15444019313E+02  0.36349832729E+02  0.27419238562E+03  0.30397989055E+03  0.12514983602E+03 0.  0.
          5    1    4    4  502    0 -0.47270515650E+02  0.33908136705E+01  0.43048237474E+03  0.43310872103E+03  0.47000000000E+01 0.  1.
         -5    1    4    4    0  502  0.31826496336E+02 -0.39740646399E+02  0.87482798364E+02  0.10132904250E+03  0.47000000000E+01 0.  1.
          5    1    5    5  503    0  0.34636492831E+02  0.59169565442E+02  0.71948496036E+02  0.99495729516E+02  0.47000000000E+01 0.  1.
         -5    1    5    5    0  503 -0.19192473517E+02 -0.22819732713E+02  0.20224388958E+03  0.20448416103E+03  0.47000000000E+01 0.  1.
<mgrwt>
<rscale>  0 0.27464625E+03</rscale>
<asrwt>0</asrwt>
<pdfrwt beam="1">  1        1 0.12542884E+00 0.27464625E+03</pdfrwt>
<pdfrwt beam="2">  1       -1 0.35584695E-02 0.27464625E+03</pdfrwt>
<totfact> 0.65376929E+03</totfact>
</mgrwt>
</event>
<event>
 9    1  0.2073852E-002  0.2745355E+03  0.7818608E-02  0.1098712E+00
          1   -1    0    0  501    0  0.00000000000E+00  0.00000000000E+00  0.22565109745E+04  0.22565109745E+04  0.00000000000E+00 0. -1.
         -1   -1    0    0    0  501 -0.00000000000E+00 -0.00000000000E+00 -0.83502506676E+01  0.83502506676E+01  0.00000000000E+00 0. -1.
         36    2    1    2    0    0  0.00000000000E+00  0.00000000000E+00  0.22481607239E+04  0.22648612252E+04  0.27453547874E+03 0.  0.
         25    2    3    3    0    0  0.38942870240E+02  0.17117128787E+02  0.97459284739E+03  0.98454858112E+03  0.13302310763E+03 0.  0.
         25    2    3    3    0    0 -0.38942870240E+02 -0.17117128787E+02  0.12735678765E+04  0.12803126441E+04  0.12416032925E+03 0.  0.
          5    1    4    4  502    0  0.79185401126E+02  0.10743982966E+02  0.84101350054E+03  0.84481451160E+03  0.47000000000E+01 0.  1.
         -5    1    4    4    0  502 -0.40242530886E+02  0.63731458212E+01  0.13357934685E+03  0.13973406952E+03  0.47000000000E+01 0.  1.
          5    1    5    5  503    0 -0.82880691363E+02 -0.18195035100E+02  0.93891389934E+03  0.94275217776E+03  0.47000000000E+01 0.  1.
         -5    1    5    5    0  503  0.43937821124E+02  0.10779063128E+01  0.33465397714E+03  0.33756046632E+03  0.47000000000E+01 0.  1.
<mgrwt>
<rscale>  0 0.27453548E+03</rscale>
<asrwt>0</asrwt>
<pdfrwt beam="1">  1        1 0.34715505E+00 0.27453548E+03</pdfrwt>
<pdfrwt beam="2">  1       -1 0.12846557E-02 0.27453548E+03</pdfrwt>
<totfact> 0.30022706E+03</totfact>
</mgrwt>
</event>
<event>
 9    1  0.2073852E-002  0.2759933E+03  0.7818608E-02  0.1097898E+00
         -2   -1    0    0    0  501 -0.00000000000E+00  0.00000000000E+00  0.16089477050E+03  0.16089477050E+03  0.00000000000E+00 0. -1.
          2   -1    0    0  501    0  0.00000000000E+00 -0.00000000000E+00 -0.11835729817E+03  0.11835729817E+03  0.00000000000E+00 0. -1.
         36    2    1    2    0    0  0.17763568394E-14  0.71054273576E-14  0.42537472334E+02  0.27925206867E+03  0.27599326315E+03 0.  0.
         25    2    3    3    0    0  0.78100409715E+01 -0.33435784897E+02 -0.21952533134E+02  0.13576415373E+03  0.12950306280E+03 0.  0.
         25    2    3    3    0    0 -0.78100409715E+01  0.33435784897E+02  0.64490005468E+02  0.14348791494E+03  0.12349442286E+03 0.  0.
          5    1    4    4  502    0  0.15855846013E+02  0.25737701108E+02  0.39489600794E+02  0.49953535230E+02  0.47000000000E+01 0.  1.
         -5    1    4    4    0  502 -0.80458050415E+01 -0.59173486005E+02 -0.61442133929E+02  0.85810618495E+02  0.47000000000E+01 0.  1.
          5    1    5    5  503    0  0.41237628221E+02  0.50506094962E+02  0.63789248569E+02  0.91337647455E+02  0.47000000000E+01 0.  1.
         -5    1    5    5    0  503 -0.49047669192E+02 -0.17070310065E+02  0.70075689917E+00  0.52150267489E+02  0.47000000000E+01 0.  1.
<mgrwt>
<rscale>  0 0.27599326E+03</rscale>
<asrwt>0</asrwt>
<pdfrwt beam="1">  1        2 0.18208815E-01 0.27599326E+03</pdfrwt>
<pdfrwt beam="2">  1       -2 0.24753042E-01 0.27599326E+03</pdfrwt>
<totfact> 0.44543536E+03</totfact>
</mgrwt>
</event>
<event>
 9    1  0.2073852E-002  0.2757533E+03  0.7818608E-02  0.1098031E+00
          2   -1    0    0  501    0  0.00000000000E+00  0.00000000000E+00  0.17032467930E+03  0.17032467930E+03  0.00000000000E+00 0.  1.
         -2   -1    0    0    0  501 -0.00000000000E+00 -0.00000000000E+00 -0.11161016628E+03  0.11161016628E+03  0.00000000000E+00 0.  1.
         36    2    1    2    0    0  0.00000000000E+00  0.00000000000E+00  0.58714513020E+02  0.28193484558E+03  0.27575326492E+03 0.  0.
         25    2    3    3    0    0  0.51585332320E+02 -0.10687425150E+02  0.49113247390E+02  0.14618182595E+03  0.12720749822E+03 0.  0.
         25    2    3    3    0    0 -0.51585332320E+02  0.10687425150E+02  0.96012656302E+01  0.13575301963E+03  0.12474546272E+03 0.  0.
          5    1    4    4  502    0 -0.21683244923E+02 -0.11783081992E+02  0.66188212166E+02  0.70795293356E+02  0.47000000000E+01 0.  1.
         -5    1    4    4    0  502  0.73268577243E+02  0.10956568418E+01 -0.17074964776E+02  0.75386532598E+02  0.47000000000E+01 0.  1.
          5    1    5    5  503    0 -0.85694518203E+02  0.24398486547E+02 -0.16083046616E+02  0.90661959963E+02  0.47000000000E+01 0. -1.
         -5    1    5    5    0  503  0.34109185883E+02 -0.13711061397E+02  0.25684312246E+02  0.45091059666E+02  0.47000000000E+01 0. -1.
<mgrwt>
<rscale>  0 0.27575326E+03</rscale>
<asrwt>0</asrwt>
<pdfrwt beam="1">  1        2 0.26203797E-01 0.27575326E+03</pdfrwt>
<pdfrwt beam="2">  1       -2 0.17170795E-01 0.27575326E+03</pdfrwt>
<totfact> 0.55256700E+03</totfact>
</mgrwt>
</event>
<event>
 9    1  0.2073852E-002  0.2752235E+03  0.7818608E-02  0.1098327E+00
         -4   -1    0    0    0  501 -0.00000000000E+00  0.00000000000E+00  0.32039042511E+02  0.32039042511E+02  0.00000000000E+00 0. -1.
          4   -1    0    0  501    0  0.00000000000E+00 -0.00000000000E+00 -0.59106004022E+03  0.59106004022E+03  0.00000000000E+00 0. -1.
         36    2    1    2    0    0  0.00000000000E+00 -0.14210854715E-13 -0.55902099771E+03  0.62309908273E+03  0.27522352919E+03 0.  0.
         25    2    3    3    0    0  0.27547711612E+02 -0.52356902288E+02 -0.26343233742E+03  0.29715351787E+03  0.12411081803E+03 0.  0.
         25    2    3    3    0    0 -0.27547711612E+02  0.52356902288E+02 -0.29558866029E+03  0.32594556486E+03  0.12396666296E+03 0.  0.
          5    1    4    4  502    0  0.59142508257E+02  0.16071429688E+02 -0.10563021043E+03  0.12221275912E+03  0.47000000000E+01 0. -1.
         -5    1    4    4    0  502 -0.31594796645E+02 -0.68428331976E+02 -0.15780212698E+03  0.17494075875E+03  0.47000000000E+01 0. -1.
          5    1    5    5  503    0  0.14823401900E+02 -0.34713274342E+02 -0.58239045032E+02  0.69560197136E+02  0.47000000000E+01 0. -1.
         -5    1    5    5    0  503 -0.42371113513E+02  0.87070176630E+02 -0.23734961526E+03  0.25638536772E+03  0.47000000000E+01 0. -1.
<mgrwt>
<rscale>  0 0.27522353E+03</rscale>
<asrwt>0</asrwt>
<pdfrwt beam="1">  1        4 0.90932310E-01 0.27522353E+03</pdfrwt>
<pdfrwt beam="2">  1       -4 0.49290837E-02 0.27522353E+03</pdfrwt>
<totfact> 0.48691697E+02</totfact>
</mgrwt>
</event>
<event>
 9    1  0.2073852E-002  0.2754389E+03  0.7818608E-02  0.1098206E+00
          1   -1    0    0  501    0  0.00000000000E+00  0.00000000000E+00  0.36388805093E+03  0.36388805093E+03  0.00000000000E+00 0.  1.
         -1   -1    0    0    0  501 -0.00000000000E+00 -0.00000000000E+00 -0.52122215531E+02  0.52122215531E+02  0.00000000000E+00 0.  1.
         36    2    1    2    0    0  0.00000000000E+00  0.14210854715E-13  0.31176583540E+03  0.41601026646E+03  0.27543893276E+03 0.  0.
         25    2    3    3    0    0  0.11976852050E+02  0.62396629793E+02  0.17063897248E+03  0.21721953900E+03  0.11844781467E+03 0.  0.
         25    2    3    3    0    0 -0.11976852050E+02 -0.62396629793E+02  0.14112686292E+03  0.19879072746E+03  0.12475647275E+03 0.  0.
          5    1    4    4  502    0 -0.17400037868E+02 -0.27890961285E+02  0.76665253365E+02  0.83548298084E+02  0.47000000000E+01 0. -1.
         -5    1    4    4    0  502  0.29376889918E+02  0.90287591078E+02  0.93973719113E+02  0.13367124092E+03  0.47000000000E+01 0. -1.
          5    1    5    5  503    0 -0.21452828239E+02 -0.96298361477E+02  0.76058927969E+02  0.12466213854E+03  0.47000000000E+01 0.  1.
         -5    1    5    5    0  503  0.94759761895E+01  0.33901731684E+02  0.65067934954E+02  0.74128588919E+02  0.47000000000E+01 0.  1.
<mgrwt>
<rscale>  0 0.27543893E+03</rscale>
<asrwt>0</asrwt>
<pdfrwt beam="1">  1        1 0.55982776E-01 0.27543893E+03</pdfrwt>
<pdfrwt beam="2">  1       -1 0.80188026E-02 0.27543893E+03</pdfrwt>
<totfact> 0.58378850E+03</totfact>
</mgrwt>
</event>
<event>
 9    1  0.2073852E-002  0.2753334E+03  0.7818608E-02  0.1098265E+00
         -2   -1    0    0    0  501 -0.00000000000E+00  0.00000000000E+00  0.21789400416E+03  0.21789400416E+03  0.00000000000E+00 0.  1.
          2   -1    0    0  501    0  0.00000000000E+00 -0.00000000000E+00 -0.86978645958E+02  0.86978645958E+02  0.00000000000E+00 0.  1.
         36    2    1    2    0    0 -0.71054273576E-14 -0.35527136788E-14  0.13091535820E+03  0.30487265012E+03  0.27533343745E+03 0.  0.
         25    2    3    3    0    0 -0.55844210624E+00 -0.21701558334E+02  0.44584967244E+01  0.12719507407E+03  0.12524950771E+03 0.  0.
         25    2    3    3    0    0  0.55844210624E+00  0.21701558334E+02  0.12645686147E+03  0.17767757605E+03  0.12290937199E+03 0.  0.
          5    1    4    4  502    0  0.18729065290E+02  0.44284257299E+02 -0.22383139417E+02  0.53244420002E+02  0.47000000000E+01 0.  1.
         -5    1    4    4    0  502 -0.19287507396E+02 -0.65985815633E+02  0.26841636142E+02  0.73950654068E+02  0.47000000000E+01 0.  1.
          5    1    5    5  503    0  0.35426572668E+02 -0.15223591311E+01 -0.80967868491E+01  0.36674345060E+02  0.47000000000E+01 0. -1.
         -5    1    5    5    0  503 -0.34868130562E+02  0.23223917465E+02  0.13455364832E+03  0.14100323099E+03  0.47000000000E+01 0. -1.
<mgrwt>
<rscale>  0 0.27533344E+03</rscale>
<asrwt>0</asrwt>
<pdfrwt beam="1">  1        2 0.13381330E-01 0.27533344E+03</pdfrwt>
<pdfrwt beam="2">  1       -2 0.33522154E-01 0.27533344E+03</pdfrwt>
<totfact> 0.37060244E+03</totfact>
</mgrwt>
</event>
<event>
 9    1  0.2073852E-002  0.2743755E+03  0.7818608E-02  0.1098801E+00
          1   -1    0    0  501    0  0.00000000000E+00  0.00000000000E+00  0.41918559044E+02  0.41918559044E+02  0.00000000000E+00 0. -1.
         -1   -1    0    0    0  501 -0.00000000000E+00 -0.00000000000E+00 -0.44897736183E+03  0.44897736183E+03  0.00000000000E+00 0. -1.
         36    2    1    2    0    0 -0.35527136788E-14  0.00000000000E+00 -0.40705880279E+03  0.49089592087E+03  0.27437553864E+03 0.  0.
         25    2    3    3    0    0 -0.14961939182E+02  0.45293242393E+02 -0.17078433773E+03  0.22003207202E+03  0.13027465323E+03 0.  0.
         25    2    3    3    0    0  0.14961939182E+02 -0.45293242393E+02 -0.23627446506E+03  0.27086384885E+03  0.12355672522E+03 0.  0.
          5    1    4    4  502    0 -0.54943962010E+02  0.48107952324E+02 -0.16335589408E+03  0.17899846974E+03  0.47000000000E+01 0.  1.
         -5    1    4    4    0  502  0.39982022828E+02 -0.28147099314E+01 -0.74284436523E+01  0.41033602285E+02  0.47000000000E+01 0.  1.
          5    1    5    5  503    0  0.15223214628E+02  0.76877313625E+01  0.90282845406E+01  0.19860699858E+02  0.47000000000E+01 0. -1.
         -5    1    5    5    0  503 -0.26127544531E+00 -0.52980973755E+02 -0.24530274960E+03  0.25100314899E+03  0.47000000000E+01 0. -1.
<mgrwt>
<rscale>  0 0.27437554E+03</rscale>
<asrwt>0</asrwt>
<pdfrwt beam="1">  1        1 0.64490094E-02 0.27437554E+03</pdfrwt>
<pdfrwt beam="2">  1       -1 0.69073436E-01 0.27437554E+03</pdfrwt>
<totfact> 0.25687453E+03</totfact>
</mgrwt>
</event>
<event>
 9    1  0.2073852E-002  0.2746397E+03  0.7818608E-02  0.1098653E+00
         -2   -1    0    0    0  501 -0.00000000000E+00  0.00000000000E+00  0.11578173516E+02  0.11578173516E+02  0.00000000000E+00 0. -1.
          2   -1    0    0  501    0  0.00000000000E+00 -0.00000000000E+00 -0.16286457655E+04  0.16286457655E+04  0.00000000000E+00 0. -1.
         36    2    1    2    0    0  0.00000000000E+00  0.00000000000E+00 -0.16170675919E+04  0.16402239390E+04  0.27463971504E+03 0.  0.
         25    2    3    3    0    0  0.19356158183E+02  0.63798587397E+02 -0.91222151686E+03  0.92128119471E+03  0.11029969754E+03 0.  0.
         25    2    3    3    0    0 -0.19356158183E+02 -0.63798587397E+02 -0.70484607508E+03  0.71894274427E+03  0.12500303744E+03 0.  0.
          5    1    4    4  502    0  0.28573104054E+02 -0.21913065024E+02 -0.41811150731E+03  0.41968550993E+03  0.47000000000E+01 0.  1.
         -5    1    4    4    0  502 -0.92169458712E+01  0.85711652422E+02 -0.49411000955E+03  0.50159568478E+03  0.47000000000E+01 0.  1.
          5    1    5    5  503    0 -0.14563518177E+02 -0.10159658839E+03 -0.53980725312E+03  0.54949788294E+03  0.47000000000E+01 0. -1.
         -5    1    5    5    0  503 -0.47926400060E+01  0.37798000994E+02 -0.16503882197E+03  0.16944486134E+03  0.47000000000E+01 0. -1.
<mgrwt>
<rscale>  0 0.27463972E+03</rscale>
<asrwt>0</asrwt>
<pdfrwt beam="1">  1        2 0.25056106E+00 0.27463972E+03</pdfrwt>
<pdfrwt beam="2">  1       -2 0.17812562E-02 0.27463972E+03</pdfrwt>
<totfact> 0.10682619E+04</totfact>
</mgrwt>
</event>
<event>
 9    1  0.2073852E-002  0.2788082E+03  0.7818608E-02  0.1096342E+00
          2   -1    0    0  501    0  0.00000000000E+00  0.00000000000E+00  0.18661503760E+04  0.18661503760E+04  0.00000000000E+00 0.  1.
         -2   -1    0    0    0  501 -0.00000000000E+00 -0.00000000000E+00 -0.10413682951E+02  0.10413682951E+02  0.00000000000E+00 0.  1.
         36    2    1    2    0    0  0.71054273576E-14  0.00000000000E+00  0.18557366930E+04  0.18765640589E+04  0.27880816598E+03 0.  0.
         25    2    3    3    0    0  0.39722796522E+02  0.60762102277E+02  0.73234739124E+03  0.74183524878E+03  0.93364346688E+02 0.  0.
         25    2    3    3    0    0 -0.39722796522E+02 -0.60762102277E+02  0.11233893018E+04  0.11347288101E+04  0.14260440241E+03 0.  0.
          5    1    4    4  502    0  0.45098510114E+02  0.71267585003E+02  0.71679396203E+03  0.72175384882E+03  0.47000000000E+01 0.  1.
         -5    1    4    4    0  502 -0.53757135915E+01 -0.10505482727E+02  0.15553429216E+02  0.20081399959E+02  0.47000000000E+01 0.  1.
          5    1    5    5  503    0 -0.40989278202E+00  0.31128891545E+02  0.71920921915E+02  0.78510412748E+02  0.47000000000E+01 0. -1.
         -5    1    5    5    0  503 -0.39312903740E+02 -0.91890993821E+02  0.10514683798E+04  0.10562183974E+04  0.47000000000E+01 0. -1.
<mgrwt>
<rscale>  0 0.27880817E+03</rscale>
<asrwt>0</asrwt>
<pdfrwt beam="1">  1        2 0.28709979E+00 0.27880817E+03</pdfrwt>
<pdfrwt beam="2">  1       -2 0.16021065E-02 0.27880817E+03</pdfrwt>
<totfact> 0.93605799E+03</totfact>
</mgrwt>
</event>
<event>
 9    1  0.2073852E-002  0.2758874E+03  0.7818608E-02  0.1097957E+00
         -2   -1    0    0    0  501 -0.00000000000E+00  0.00000000000E+00  0.23616444383E+03  0.23616444383E+03  0.00000000000E+00 0.  1.
          2   -1    0    0  501    0  0.00000000000E+00 -0.00000000000E+00 -0.80572956062E+02  0.80572956062E+02  0.00000000000E+00 0.  1.
         36    2    1    2    0    0 -0.71054273576E-14  0.14210854715E-13  0.15559148777E+03  0.31673739990E+03  0.27588742165E+03 0.  0.
         25    2    3    3    0    0 -0.44087685577E+02  0.35915400267E+02  0.70729402901E+02  0.15601251480E+03  0.12690002499E+03 0.  0.
         25    2    3    3    0    0  0.44087685577E+02 -0.35915400267E+02  0.84862084871E+02  0.16072488510E+03  0.12408575763E+03 0.  0.
          5    1    4    4  502    0  0.96956289936E+01  0.72819900120E+02  0.39529649626E+02  0.83554929685E+02  0.47000000000E+01 0. -1.
         -5    1    4    4    0  502 -0.53783314571E+02 -0.36904499854E+02  0.31199753275E+02  0.72457585111E+02  0.47000000000E+01 0. -1.
          5    1    5    5  503    0  0.16229987565E+02  0.10923326903E+02 -0.28482225045E+02  0.34872033357E+02  0.47000000000E+01 0.  1.
         -5    1    5    5    0  503  0.27857698012E+02 -0.46838727170E+02  0.11334430992E+03  0.12585285174E+03  0.47000000000E+01 0.  1.
<mgrwt>
<rscale>  0 0.27588742E+03</rscale>
<asrwt>0</asrwt>
<pdfrwt beam="1">  1        2 0.12395839E-01 0.27588742E+03</pdfrwt>
<pdfrwt beam="2">  1       -2 0.36332991E-01 0.27588742E+03</pdfrwt>
<totfact> 0.34985098E+03</totfact>
</mgrwt>
</event>
<event>
 9    1  0.2073852E-002  0.2766332E+03  0.7818608E-02  0.1097542E+00
         -1   -1    0    0    0  501 -0.00000000000E+00  0.00000000000E+00  0.15493447589E+02  0.15493447589E+02  0.00000000000E+00 0. -1.
          1   -1    0    0  501    0  0.00000000000E+00 -0.00000000000E+00 -0.12348109496E+04  0.12348109496E+04  0.00000000000E+00 0. -1.
         36    2    1    2    0    0  0.71054273576E-14 -0.35527136788E-14 -0.12193175020E+04  0.12503043972E+04  0.27663317754E+03 0.  0.
         25    2    3    3    0    0  0.35062694363E+02  0.50872120187E+01 -0.74601870222E+03  0.75871601146E+03  0.13360692242E+03 0.  0.
         25    2    3    3    0    0 -0.35062694363E+02 -0.50872120187E+01 -0.47329879976E+03  0.49158838570E+03  0.12803169467E+03 0.  0.
          5    1    4    4  502    0  0.67737627562E+02  0.31835775644E+02 -0.64184045670E+03  0.64620675070E+03  0.47000000000E+01 0. -1.
         -5    1    4    4    0  502 -0.32674933200E+02 -0.26748563625E+02 -0.10417824552E+03  0.11250926076E+03  0.47000000000E+01 0. -1.
          5    1    5    5  503    0 -0.57213771532E+02 -0.35543959017E+02 -0.42415688009E+03  0.42949730803E+03  0.47000000000E+01 0.  1.
         -5    1    5    5    0  503  0.22151077170E+02  0.30456746999E+02 -0.49141919665E+02  0.62091077667E+02  0.47000000000E+01 0.  1.
<mgrwt>
<rscale>  0 0.27663318E+03</rscale>
<asrwt>0</asrwt>
<pdfrwt beam="1">  1        1 0.18997096E+00 0.27663318E+03</pdfrwt>
<pdfrwt beam="2">  1       -1 0.23836068E-02 0.27663318E+03</pdfrwt>
<totfact> 0.57358496E+03</totfact>
</mgrwt>
</event>
<event>
 9    1  0.2073852E-002  0.2742093E+03  0.7818608E-02  0.1098894E+00
          4   -1    0    0  501    0  0.00000000000E+00  0.00000000000E+00  0.41104470231E+02  0.41104470231E+02  0.00000000000E+00 0.  1.
         -4   -1    0    0    0  501 -0.00000000000E+00 -0.00000000000E+00 -0.45731485760E+03  0.45731485760E+03  0.00000000000E+00 0.  1.
         36    2    1    2    0    0 -0.35527136788E-14  0.00000000000E+00 -0.41621038737E+03  0.49841932783E+03  0.27420929926E+03 0.  0.
         25    2    3    3    0    0  0.83149472693E+01 -0.54216128615E+02 -0.21301093575E+03  0.25298871420E+03  0.12498441428E+03 0.  0.
         25    2    3    3    0    0 -0.83149472693E+01  0.54216128615E+02 -0.20319945162E+03  0.24543061363E+03  0.12624437421E+03 0.  0.
          5    1    4    4  502    0  0.41950228222E+01 -0.85523402328E+02 -0.20160788168E+03  0.21908828932E+03  0.47000000000E+01 0. -1.
         -5    1    4    4    0  502  0.41199244472E+01  0.31307273713E+02 -0.11403054073E+02  0.33900424879E+02  0.47000000000E+01 0. -1.
          5    1    5    5  503    0 -0.54605034151E+02  0.12776194603E+02 -0.35518019701E+02  0.66547431405E+02  0.47000000000E+01 0.  1.
         -5    1    5    5    0  503  0.46290086881E+02  0.41439934011E+02 -0.16768143192E+03  0.17888318223E+03  0.47000000000E+01 0.  1.
<mgrwt>
<rscale>  0 0.27420930E+03</rscale>
<asrwt>0</asrwt>
<pdfrwt beam="1">  1        4 0.63237647E-02 0.27420930E+03</pdfrwt>
<pdfrwt beam="2">  1       -4 0.70356132E-01 0.27420930E+03</pdfrwt>
<totfact> 0.57511543E+02</totfact>
</mgrwt>
</event>
<event>
 9    1  0.2073852E-002  0.2714180E+03  0.7818608E-02  0.1100471E+00
          2   -1    0    0  501    0  0.00000000000E+00  0.00000000000E+00  0.60882754289E+03  0.60882754289E+03  0.00000000000E+00 0.  1.
         -2   -1    0    0    0  501 -0.00000000000E+00 -0.00000000000E+00 -0.30249837896E+02  0.30249837896E+02  0.00000000000E+00 0.  1.
         36    2    1    2    0    0  0.00000000000E+00  0.00000000000E+00  0.57857770499E+03  0.63907738078E+03  0.27141801325E+03 0.  0.
         25    2    3    3    0    0 -0.22505993244E+02 -0.95848735694E+01  0.17561861191E+03  0.21666946954E+03  0.12452057118E+03 0.  0.
         25    2    3    3    0    0  0.22505993244E+02  0.95848735694E+01  0.40295909308E+03  0.42240791124E+03  0.12431421179E+03 0.  0.
          5    1    4    4  502    0  0.23756010675E+00 -0.59791641403E+01  0.18931471520E+03  0.18946756511E+03  0.47000000000E+01 0.  1.
         -5    1    4    4    0  502 -0.22743553350E+02 -0.36057094292E+01 -0.13696103283E+02  0.27201904430E+02  0.47000000000E+01 0.  1.
          5    1    5    5  503    0  0.17981679914E+01  0.56788377004E+02  0.10043427205E+03  0.11548716887E+03  0.47000000000E+01 0. -1.
         -5    1    5    5    0  503  0.20707825252E+02 -0.47203503434E+02  0.30252482102E+03  0.30692074237E+03  0.47000000000E+01 0. -1.
<mgrwt>
<rscale>  0 0.27141801E+03</rscale>
<asrwt>0</asrwt>
<pdfrwt beam="1">  1        2 0.93665766E-01 0.27141801E+03</pdfrwt>
<pdfrwt beam="2">  1       -2 0.46538217E-02 0.27141801E+03</pdfrwt>
<totfact> 0.10775554E+04</totfact>
</mgrwt>
</event>
<event>
 9    1  0.2073852E-002  0.2740033E+03  0.7818608E-02  0.1099010E+00
         -2   -1    0    0    0  501 -0.00000000000E+00  0.00000000000E+00  0.35308943609E+02  0.35308943609E+02  0.00000000000E+00 0.  1.
          2   -1    0    0  501    0  0.00000000000E+00 -0.00000000000E+00 -0.53157787044E+03  0.53157787044E+03  0.00000000000E+00 0.  1.
         36    2    1    2    0    0  0.00000000000E+00  0.00000000000E+00 -0.49626892683E+03  0.56688681405E+03  0.27400330692E+03 0.  0.
         25    2    3    3    0    0  0.10218684077E+02  0.10413956500E+01 -0.16048175147E+03  0.20339662790E+03  0.12454031346E+03 0.  0.
         25    2    3    3    0    0 -0.10218684077E+02 -0.10413956500E+01 -0.33578717536E+03  0.36349018615E+03  0.13880411478E+03 0.  0.
          5    1    4    4  502    0 -0.17845127598E+02  0.33457884047E+02 -0.15532535598E+03  0.15995604020E+03  0.47000000000E+01 0.  1.
         -5    1    4    4    0  502  0.28063811675E+02 -0.32416488397E+02 -0.51563954880E+01  0.43440587705E+02  0.47000000000E+01 0.  1.
          5    1    5    5  503    0  0.69636602197E+01  0.67630992211E+02 -0.17097243317E+03  0.18405462932E+03  0.47000000000E+01 0. -1.
         -5    1    5    5    0  503 -0.17182344297E+02 -0.68672387861E+02 -0.16481474219E+03  0.17943555683E+03  0.47000000000E+01 0. -1.
<mgrwt>
<rscale>  0 0.27400331E+03</rscale>
<asrwt>0</asrwt>
<pdfrwt beam="1">  1        2 0.81781216E-01 0.27400331E+03</pdfrwt>
<pdfrwt beam="2">  1       -2 0.54321448E-02 0.27400331E+03</pdfrwt>
<totfact> 0.99568629E+03</totfact>
</mgrwt>
</event>
<event>
 9    1  0.2073852E-002  0.2764559E+03  0.7818608E-02  0.1097641E+00
         -3   -1    0    0    0  501 -0.00000000000E+00  0.00000000000E+00  0.19370139494E+03  0.19370139494E+03  0.00000000000E+00 0.  1.
          3   -1    0    0  501    0  0.00000000000E+00 -0.00000000000E+00 -0.98641379085E+02  0.98641379085E+02  0.00000000000E+00 0.  1.
         36    2    1    2    0    0  0.00000000000E+00 -0.14210854715E-13  0.95060015855E+02  0.29234277402E+03  0.27645594750E+03 0.  0.
         25    2    3    3    0    0 -0.17923306407E+02 -0.46221991322E+02  0.52967701181E+02  0.14852564741E+03  0.12960159404E+03 0.  0.
         25    2    3    3    0    0  0.17923306407E+02  0.46221991322E+02  0.42092314674E+02  0.14381712661E+03  0.12827269997E+03 0.  0.
          5    1    4    4  502    0  0.51645012472E+02 -0.47018027035E+00  0.44711905989E+01  0.52052953116E+02  0.47000000000E+01 0.  1.
         -5    1    4    4    0  502 -0.69568318879E+02 -0.45751811052E+02  0.48496510582E+02  0.96472694297E+02  0.47000000000E+01 0.  1.
          5    1    5    5  503    0  0.70180322163E+02  0.51540092521E+01  0.16414195328E+02  0.72411029813E+02  0.47000000000E+01 0. -1.
         -5    1    5    5    0  503 -0.52257015756E+02  0.41067982070E+02  0.25678119346E+02  0.71406096800E+02  0.47000000000E+01 0. -1.
<mgrwt>
<rscale>  0 0.27645595E+03</rscale>
<asrwt>0</asrwt>
<pdfrwt beam="1">  1        3 0.15175597E-01 0.27645595E+03</pdfrwt>
<pdfrwt beam="2">  1       -3 0.29800215E-01 0.27645595E+03</pdfrwt>
<totfact> 0.10063062E+03</totfact>
</mgrwt>
</event>
<event>
 9    1  0.2073852E-002  0.2752867E+03  0.7818608E-02  0.1098291E+00
          4   -1    0    0  501    0  0.00000000000E+00  0.00000000000E+00  0.10308406146E+04  0.10308406146E+04  0.00000000000E+00 0.  1.
         -4   -1    0    0    0  501 -0.00000000000E+00 -0.00000000000E+00 -0.18378870065E+02  0.18378870065E+02  0.00000000000E+00 0.  1.
         36    2    1    2    0    0  0.71054273576E-14  0.00000000000E+00  0.10124617445E+04  0.10492194846E+04  0.27528665578E+03 0.  0.
         25    2    3    3    0    0 -0.43903878454E+02  0.12486798338E+02  0.49417854026E+03  0.51340295802E+03  0.13147888415E+03 0.  0.
         25    2    3    3    0    0  0.43903878454E+02 -0.12486798338E+02  0.51828320423E+03  0.53581652660E+03  0.12805623652E+03 0.  0.
          5    1    4    4  502    0  0.37153517098E+02 -0.26235216107E+02  0.11631676013E+03  0.12498139495E+03  0.47000000000E+01 0. -1.
         -5    1    4    4    0  502 -0.81057395552E+02  0.38722014444E+02  0.37786178012E+03  0.38842156306E+03  0.47000000000E+01 0. -1.
          5    1    5    5  503    0  0.30916523562E+02  0.90938097898E+01  0.22997616788E+02  0.39868649132E+02  0.47000000000E+01 0.  1.
         -5    1    5    5    0  503  0.12987354892E+02 -0.21580608127E+02  0.49528558744E+03  0.49594787747E+03  0.47000000000E+01 0.  1.
<mgrwt>
<rscale>  0 0.27528666E+03</rscale>
<asrwt>0</asrwt>
<pdfrwt beam="1">  1        4 0.15859082E+00 0.27528666E+03</pdfrwt>
<pdfrwt beam="2">  1       -4 0.28275193E-02 0.27528666E+03</pdfrwt>
<totfact> 0.30305310E+02</totfact>
</mgrwt>
</event>
<event>
 9    1  0.2073852E-002  0.2751091E+03  0.7818608E-02  0.1098391E+00
          1   -1    0    0  501    0  0.00000000000E+00  0.00000000000E+00  0.28766877843E+03  0.28766877843E+03  0.00000000000E+00 0.  1.
         -1   -1    0    0    0  501 -0.00000000000E+00 -0.00000000000E+00 -0.65774438949E+02  0.65774438949E+02  0.00000000000E+00 0.  1.
         36    2    1    2    0    0  0.00000000000E+00 -0.71054273576E-14  0.22189433949E+03  0.35344321738E+03  0.27510908749E+03 0.  0.
         25    2    3    3    0    0  0.35117853772E+02  0.20460557429E+02  0.57336775419E+02  0.14431556929E+03  0.12604594266E+03 0.  0.
         25    2    3    3    0    0 -0.35117853772E+02 -0.20460557429E+02  0.16455756407E+03  0.20912764809E+03  0.12248789018E+03 0.  0.
          5    1    4    4  502    0  0.59075448187E+02  0.59421658607E+02  0.23260507272E+02  0.87086068281E+02  0.47000000000E+01 0.  1.
         -5    1    4    4    0  502 -0.23957594415E+02 -0.38961101179E+02  0.34076268147E+02  0.57229501011E+02  0.47000000000E+01 0.  1.
          5    1    5    5  503    0 -0.35316257645E+02  0.35388369181E+02  0.19941545582E+02  0.54030824236E+02  0.47000000000E+01 0. -1.
         -5    1    5    5    0  503  0.19840387325E+00 -0.55848926610E+02  0.14461601848E+03  0.15509682385E+03  0.47000000000E+01 0. -1.
<mgrwt>
<rscale>  0 0.27510909E+03</rscale>
<asrwt>0</asrwt>
<pdfrwt beam="1">  1        1 0.44256734E-01 0.27510909E+03</pdfrwt>
<pdfrwt beam="2">  1       -1 0.10119145E-01 0.27510909E+03</pdfrwt>
<totfact> 0.54935118E+03</totfact>
</mgrwt>
</event>
<event>
 9    1  0.2073852E-002  0.2751773E+03  0.7818608E-02  0.1098353E+00
         -1   -1    0    0    0  501 -0.00000000000E+00  0.00000000000E+00  0.36490729384E+02  0.36490729384E+02  0.00000000000E+00 0.  1.
          1   -1    0    0  501    0  0.00000000000E+00 -0.00000000000E+00 -0.51877943813E+03  0.51877943813E+03  0.00000000000E+00 0.  1.
         36    2    1    2    0    0 -0.71054273576E-14  0.00000000000E+00 -0.48228870874E+03  0.55527016751E+03  0.27517732528E+03 0.  0.
         25    2    3    3    0    0 -0.23938241954E+02  0.26688810511E+02 -0.16381413287E+03  0.20981526590E+03  0.12610330544E+03 0.  0.
         25    2    3    3    0    0  0.23938241954E+02 -0.26688810511E+02 -0.31847457587E+03  0.34545490161E+03  0.12894844525E+03 0.  0.
          5    1    4    4  502    0 -0.72513673256E+02  0.33507726046E+02 -0.11771414667E+03  0.14233661103E+03  0.47000000000E+01 0.  1.
         -5    1    4    4    0  502  0.48575431303E+02 -0.68189155358E+01 -0.46099986198E+02  0.67478654868E+02  0.47000000000E+01 0.  1.
          5    1    5    5  503    0  0.97491593654E+01 -0.20155947612E+02 -0.32648229947E+03  0.32728289017E+03  0.47000000000E+01 0.  1.
         -5    1    5    5    0  503  0.14189082588E+02 -0.65328628986E+01  0.80077235982E+01  0.18172011434E+02  0.47000000000E+01 0.  1.
<mgrwt>
<rscale>  0 0.27517733E+03</rscale>
<asrwt>0</asrwt>
<pdfrwt beam="1">  1        1 0.79812215E-01 0.27517733E+03</pdfrwt>
<pdfrwt beam="2">  1       -1 0.56139588E-02 0.27517733E+03</pdfrwt>
<totfact> 0.63207633E+03</totfact>
</mgrwt>
</event>
<event>
 9    1  0.2073852E-002  0.2748422E+03  0.7818608E-02  0.1098540E+00
         -1   -1    0    0    0  501 -0.00000000000E+00  0.00000000000E+00  0.52840276245E+02  0.52840276245E+02  0.00000000000E+00 0. -1.
          1   -1    0    0  501    0  0.00000000000E+00 -0.00000000000E+00 -0.35738945497E+03  0.35738945497E+03  0.00000000000E+00 0. -1.
         36    2    1    2    0    0  0.00000000000E+00 -0.17763568394E-14 -0.30454917872E+03  0.41022973121E+03  0.27484219128E+03 0.  0.
         25    2    3    3    0    0  0.51797065189E+02 -0.19317168708E+01 -0.14128780766E+03  0.19320708607E+03  0.12116132231E+03 0.  0.
         25    2    3    3    0    0 -0.51797065189E+02  0.19317168708E+01 -0.16326137106E+03  0.21702264514E+03  0.13325871727E+03 0.  0.
          5    1    4    4  502    0 -0.19851432364E+02  0.75706394245E+01  0.11140734660E+02  0.24445856847E+02  0.47000000000E+01 0.  1.
         -5    1    4    4    0  502  0.71648497553E+02 -0.95023562953E+01 -0.15242854232E+03  0.16876122923E+03  0.47000000000E+01 0.  1.
          5    1    5    5  503    0 -0.68053172416E+02  0.17608719589E+02 -0.17676905919E+03  0.19029107065E+03  0.47000000000E+01 0.  1.
         -5    1    5    5    0  503  0.16256107227E+02 -0.15677002719E+02  0.13507688124E+02  0.26731574493E+02  0.47000000000E+01 0.  1.
<mgrwt>
<rscale>  0 0.27484219E+03</rscale>
<asrwt>0</asrwt>
<pdfrwt beam="1">  1        1 0.54982994E-01 0.27484219E+03</pdfrwt>
<pdfrwt beam="2">  1       -1 0.81292731E-02 0.27484219E+03</pdfrwt>
<totfact> 0.58491511E+03</totfact>
</mgrwt>
</event>
<event>
 8    1  0.2073852E-002  0.3132634E+03  0.7818608E-02  0.1078792E+00
          1   -1    0    0  501    0  0.00000000000E+00  0.00000000000E+00  0.69954704914E+02  0.69954704914E+02  0.00000000000E+00 0.  1.
         -1   -1    0    0    0  501 -0.00000000000E+00 -0.00000000000E+00 -0.35070537786E+03  0.35070537786E+03  0.00000000000E+00 0.  1.
         25    2    1    2    0    0 -0.63096083485E+02  0.65405574555E+02 -0.15140941012E+03  0.21599053927E+03  0.12437081106E+03 0.  0.
         25    2    1    2    0    0  0.63096083485E+02 -0.65405574555E+02 -0.12934126282E+03  0.20466954350E+03  0.13000559540E+03 0.  0.
          5    1    3    3  502    0 -0.31362400760E+01 -0.35833055097E+02 -0.34999737237E+02  0.50407493948E+02  0.47000000000E+01 0.  1.
         -5    1    3    3    0  502 -0.59959843409E+02  0.10123862965E+03 -0.11640967289E+03  0.16558304532E+03  0.47000000000E+01 0.  1.
          5    1    4    4  503    0  0.10067704300E+03 -0.48004177807E+02 -0.11579324724E+03  0.16084288663E+03  0.47000000000E+01 0. -1.
         -5    1    4    4    0  503 -0.37580959510E+02 -0.17401396749E+02 -0.13548015578E+02  0.43826656872E+02  0.47000000000E+01 0. -1.
<mgrwt>
<rscale>  0 0.31326341E+03</rscale>
<asrwt>0</asrwt>
<pdfrwt beam="1">  1        1 0.10762262E-01 0.31326341E+03</pdfrwt>
<pdfrwt beam="2">  1       -1 0.53954673E-01 0.31326341E+03</pdfrwt>
<totfact> 0.20712854E+03</totfact>
</mgrwt>
</event>
<event>
 9    1  0.2073852E-002  0.2752876E+03  0.7818608E-02  0.1098291E+00
         -1   -1    0    0    0  501 -0.00000000000E+00  0.00000000000E+00  0.40626727577E+02  0.40626727577E+02  0.00000000000E+00 0.  1.
          1   -1    0    0  501    0  0.00000000000E+00 -0.00000000000E+00 -0.46633883936E+03  0.46633883936E+03  0.00000000000E+00 0.  1.
         36    2    1    2    0    0  0.00000000000E+00  0.00000000000E+00 -0.42571211178E+03  0.50696556693E+03  0.27528763855E+03 0.  0.
         25    2    3    3    0    0 -0.27885980509E+02  0.55414036011E+02 -0.18880387772E+03  0.23363704105E+03  0.12284551034E+03 0.  0.
         25    2    3    3    0    0  0.27885980509E+02 -0.55414036011E+02 -0.23690823406E+03  0.27332852588E+03  0.12138627765E+03 0.  0.
          5    1    4    4  502    0 -0.66736256721E+02  0.14182692560E+02 -0.53343224776E+02  0.86732152971E+02  0.47000000000E+01 0. -1.
         -5    1    4    4    0  502  0.38850276213E+02  0.41231343451E+02 -0.13546065295E+03  0.14690488808E+03  0.47000000000E+01 0. -1.
          5    1    5    5  503    0  0.63908182635E+02 -0.66653093875E+02 -0.12747347925E+03  0.15747529534E+03  0.47000000000E+01 0.  1.
         -5    1    5    5    0  503 -0.36022202126E+02  0.11239057864E+02 -0.10943475480E+03  0.11585323054E+03  0.47000000000E+01 0.  1.
<mgrwt>
<rscale>  0 0.27528764E+03</rscale>
<asrwt>0</asrwt>
<pdfrwt beam="1">  1        1 0.71744433E-01 0.27528764E+03</pdfrwt>
<pdfrwt beam="2">  1       -1 0.62502661E-02 0.27528764E+03</pdfrwt>
<totfact> 0.61913174E+03</totfact>
</mgrwt>
</event>
<event>
 9    1  0.2073852E-002  0.2745144E+03  0.7818608E-02  0.1098723E+00
         -2   -1    0    0    0  501 -0.00000000000E+00  0.00000000000E+00  0.60884232291E+03  0.60884232291E+03  0.00000000000E+00 0.  1.
          2   -1    0    0  501    0  0.00000000000E+00 -0.00000000000E+00 -0.30943221769E+02  0.30943221769E+02  0.00000000000E+00 0.  1.
         36    2    1    2    0    0 -0.17763568394E-14 -0.71054273576E-14  0.57789910114E+03  0.63978554468E+03  0.27451442964E+03 0.  0.
         25    2    3    3    0    0  0.15910103133E+02 -0.45193447565E+02  0.21755590768E+03  0.25522908645E+03  0.12456217130E+03 0.  0.
         25    2    3    3    0    0 -0.15910103133E+02  0.45193447565E+02  0.36034319346E+03  0.38455645823E+03  0.12546263749E+03 0.  0.
          5    1    4    4  502    0 -0.24613902607E+01 -0.62046225876E+02  0.36041792050E+02  0.71950631419E+02  0.47000000000E+01 0.  1.
         -5    1    4    4    0  502  0.18371493394E+02  0.16852778310E+02  0.18151411563E+03  0.18327845503E+03  0.47000000000E+01 0.  1.
          5    1    5    5  503    0  0.17205562772E+02  0.36155016241E+02  0.25019750683E+02  0.47447808315E+02  0.47000000000E+01 0.  1.
         -5    1    5    5    0  503 -0.33115665905E+02  0.90384313245E+01  0.33532344278E+03  0.33710864991E+03  0.47000000000E+01 0.  1.
<mgrwt>
<rscale>  0 0.27451443E+03</rscale>
<asrwt>0</asrwt>
<pdfrwt beam="1">  1        2 0.47604961E-02 0.27451443E+03</pdfrwt>
<pdfrwt beam="2">  1       -2 0.93668041E-01 0.27451443E+03</pdfrwt>
<totfact> 0.16726117E+03</totfact>
</mgrwt>
</event>
<event>
 9    1  0.2073852E-002  0.2724480E+03  0.7818608E-02  0.1099887E+00
         -1   -1    0    0    0  501 -0.00000000000E+00  0.00000000000E+00  0.13893846289E+02  0.13893846289E+02  0.00000000000E+00 0. -1.
          1   -1    0    0  501    0  0.00000000000E+00 -0.00000000000E+00 -0.13356256574E+04  0.13356256574E+04  0.00000000000E+00 0. -1.
         36    2    1    2    0    0  0.71054273576E-14  0.71054273576E-14 -0.13217318112E+04  0.13495195037E+04  0.27244799566E+03 0.  0.
         25    2    3    3    0    0  0.41029832506E+02 -0.11943186803E+02 -0.47802165355E+03  0.49554563776E+03  0.12342889036E+03 0.  0.
         25    2    3    3    0    0 -0.41029832506E+02  0.11943186803E+02 -0.84371015761E+03  0.85397386598E+03  0.12489374223E+03 0.  0.
          5    1    4    4  502    0  0.37232029322E+01 -0.54229525713E+02 -0.36598854239E+03  0.37003298077E+03  0.47000000000E+01 0. -1.
         -5    1    4    4    0  502  0.37306629573E+02  0.42286338909E+02 -0.11203311116E+03  0.12551265699E+03  0.47000000000E+01 0. -1.
          5    1    5    5  503    0 -0.15735017678E+02  0.51911303379E+02 -0.70966455770E+03  0.71175013077E+03  0.47000000000E+01 0.  1.
         -5    1    5    5    0  503 -0.25294814828E+02 -0.39968116575E+02 -0.13404559991E+03  0.14222373520E+03  0.47000000000E+01 0.  1.
<mgrwt>
<rscale>  0 0.27244800E+03</rscale>
<asrwt>0</asrwt>
<pdfrwt beam="1">  1        1 0.20548095E+00 0.27244800E+03</pdfrwt>
<pdfrwt beam="2">  1       -1 0.21375140E-02 0.27244800E+03</pdfrwt>
<totfact> 0.57374991E+03</totfact>
</mgrwt>
</event>
<event>
 9    1  0.2073852E-002  0.2763398E+03  0.7818608E-02  0.1097705E+00
         -2   -1    0    0    0  501 -0.00000000000E+00  0.00000000000E+00  0.48362089967E+03  0.48362089967E+03  0.00000000000E+00 0. -1.
          2   -1    0    0  501    0  0.00000000000E+00 -0.00000000000E+00 -0.39474958018E+02  0.39474958018E+02  0.00000000000E+00 0. -1.
         36    2    1    2    0    0  0.00000000000E+00  0.00000000000E+00  0.44414594165E+03  0.52309585768E+03  0.27633975256E+03 0.  0.
         25    2    3    3    0    0 -0.21619677161E+02 -0.43621105499E+02  0.15168943022E+03  0.20147690998E+03  0.12334119640E+03 0.  0.
         25    2    3    3    0    0  0.21619677161E+02  0.43621105499E+02  0.29245651143E+03  0.32161894770E+03  0.12465041178E+03 0.  0.
          5    1    4    4  502    0 -0.37448573254E+02 -0.32594734264E+02  0.14071610578E+01  0.49888700552E+02  0.47000000000E+01 0.  1.
         -5    1    4    4    0  502  0.15828896093E+02 -0.11026371235E+02  0.15028226916E+03  0.15158820943E+03  0.47000000000E+01 0.  1.
          5    1    5    5  503    0 -0.47854580072E+02  0.19473817200E+02  0.69034580546E+02  0.86354812844E+02  0.47000000000E+01 0.  1.
         -5    1    5    5    0  503  0.69474257233E+02  0.24147288299E+02  0.22342193089E+03  0.23526413486E+03  0.47000000000E+01 0.  1.
<mgrwt>
<rscale>  0 0.27633975E+03</rscale>
<asrwt>0</asrwt>
<pdfrwt beam="1">  1        2 0.60730708E-02 0.27633975E+03</pdfrwt>
<pdfrwt beam="2">  1       -2 0.74403211E-01 0.27633975E+03</pdfrwt>
<totfact> 0.20279578E+03</totfact>
</mgrwt>
</event>
<event>
 9    1  0.2073852E-002  0.2749584E+03  0.7818608E-02  0.1098475E+00
         -2   -1    0    0    0  501 -0.00000000000E+00  0.00000000000E+00  0.79241270521E+02  0.79241270521E+02  0.00000000000E+00 0.  1.
          2   -1    0    0  501    0  0.00000000000E+00 -0.00000000000E+00 -0.23851876726E+03  0.23851876726E+03  0.00000000000E+00 0.  1.
         36    2    1    2    0    0  0.00000000000E+00 -0.71054273576E-14 -0.15927749674E+03  0.31776003778E+03  0.27495839802E+03 0.  0.
         25    2    3    3    0    0 -0.25528841147E+01  0.59560296413E+02 -0.85266780620E+02  0.16148729142E+03  0.12350617509E+03 0.  0.
         25    2    3    3    0    0  0.25528841147E+01 -0.59560296413E+02 -0.74010716122E+02  0.15627274637E+03  0.12405498390E+03 0.  0.
          5    1    4    4  502    0 -0.62384650556E+02  0.28981488648E+02 -0.52025082323E+02  0.86374015190E+02  0.47000000000E+01 0. -1.
         -5    1    4    4    0  502  0.59831766441E+02  0.30578807765E+02 -0.33241698296E+02  0.75113276226E+02  0.47000000000E+01 0. -1.
          5    1    5    5  503    0 -0.51732171365E+02 -0.60563696225E+02 -0.60480956244E+02  0.10012100141E+03  0.47000000000E+01 0. -1.
         -5    1    5    5    0  503  0.54285055480E+02  0.10033998121E+01 -0.13529759878E+02  0.56151744960E+02  0.47000000000E+01 0. -1.
<mgrwt>
<rscale>  0 0.27495840E+03</rscale>
<asrwt>0</asrwt>
<pdfrwt beam="1">  1        2 0.36695195E-01 0.27495840E+03</pdfrwt>
<pdfrwt beam="2">  1       -2 0.12190965E-01 0.27495840E+03</pdfrwt>
<totfact> 0.67142488E+03</totfact>
</mgrwt>
</event>
<event>
 9    1  0.2073852E-002  0.2752057E+03  0.7818608E-02  0.1098337E+00
         -4   -1    0    0    0  501 -0.00000000000E+00  0.00000000000E+00  0.47489781128E+02  0.47489781128E+02  0.00000000000E+00 0.  1.
          4   -1    0    0  501    0  0.00000000000E+00 -0.00000000000E+00 -0.39870786204E+03  0.39870786204E+03  0.00000000000E+00 0.  1.
         36    2    1    2    0    0  0.00000000000E+00  0.00000000000E+00 -0.35121808091E+03  0.44619764317E+03  0.27520573470E+03 0.  0.
         25    2    3    3    0    0 -0.20867417324E+02 -0.23184286136E+02 -0.10220545378E+03  0.16419443548E+03  0.12466313662E+03 0.  0.
         25    2    3    3    0    0  0.20867417324E+02  0.23184286136E+02 -0.24901262714E+03  0.28200320769E+03  0.12862954733E+03 0.  0.
          5    1    4    4  502    0 -0.38028749579E+02  0.38292265456E+02 -0.15346499359E+02  0.56303538351E+02  0.47000000000E+01 0.  1.
         -5    1    4    4    0  502  0.17161332255E+02 -0.61476551591E+02 -0.86858954416E+02  0.10789089713E+03  0.47000000000E+01 0.  1.
          5    1    5    5  503    0 -0.12247496122E+02 -0.13222468518E+02  0.80055110181E+01  0.20273456578E+02  0.47000000000E+01 0. -1.
         -5    1    5    5    0  503  0.33114913446E+02  0.36406754654E+02 -0.25701813816E+03  0.26172975111E+03  0.47000000000E+01 0. -1.
<mgrwt>
<rscale>  0 0.27520573E+03</rscale>
<asrwt>0</asrwt>
<pdfrwt beam="1">  1        4 0.61339671E-01 0.27520573E+03</pdfrwt>
<pdfrwt beam="2">  1       -4 0.73061202E-02 0.27520573E+03</pdfrwt>
<totfact> 0.60915443E+02</totfact>
</mgrwt>
</event>
<event>
 9    1  0.2073852E-002  0.2754148E+03  0.7818608E-02  0.1098220E+00
         -1   -1    0    0    0  501 -0.00000000000E+00  0.00000000000E+00  0.46670280418E+02  0.46670280418E+02  0.00000000000E+00 0.  1.
          1   -1    0    0  501    0  0.00000000000E+00 -0.00000000000E+00 -0.40632556857E+03  0.40632556857E+03  0.00000000000E+00 0.  1.
         36    2    1    2    0    0  0.00000000000E+00  0.00000000000E+00 -0.35965528816E+03  0.45299584899E+03  0.27541480154E+03 0.  0.
         25    2    3    3    0    0  0.47476114983E+00  0.29052342853E+02 -0.26265814572E+03  0.29188889711E+03  0.12395790704E+03 0.  0.
         25    2    3    3    0    0 -0.47476114983E+00 -0.29052342853E+02 -0.96997142433E+02  0.16110695188E+03  0.12531057530E+03 0.  0.
          5    1    4    4  502    0  0.54103265305E+02  0.75826029414E+01 -0.60795707098E+02  0.81871039969E+02  0.47000000000E+01 0.  1.
         -5    1    4    4    0  502 -0.53628504155E+02  0.21469739912E+02 -0.20186243863E+03  0.21001785714E+03  0.47000000000E+01 0.  1.
          5    1    5    5  503    0 -0.34568815034E+02 -0.98875940484E+01 -0.11293404870E+03  0.11861263358E+03  0.47000000000E+01 0.  1.
         -5    1    5    5    0  503  0.34094053884E+02 -0.19164748805E+02  0.15936906264E+02  0.42494318306E+02  0.47000000000E+01 0.  1.
<mgrwt>
<rscale>  0 0.27541480E+03</rscale>
<asrwt>0</asrwt>
<pdfrwt beam="1">  1        1 0.62511627E-01 0.27541480E+03</pdfrwt>
<pdfrwt beam="2">  1       -1 0.71800430E-02 0.27541480E+03</pdfrwt>
<totfact> 0.59999526E+03</totfact>
</mgrwt>
</event>
<event>
 9    1  0.2073852E-002  0.2733090E+03  0.7818608E-02  0.1099401E+00
         -2   -1    0    0    0  501 -0.00000000000E+00  0.00000000000E+00  0.37437203494E+02  0.37437203494E+02  0.00000000000E+00 0.  1.
          2   -1    0    0  501    0  0.00000000000E+00 -0.00000000000E+00 -0.49882065422E+03  0.49882065422E+03  0.00000000000E+00 0.  1.
         36    2    1    2    0    0  0.71054273576E-14  0.17763568394E-14 -0.46138345073E+03  0.53625785772E+03  0.27330898514E+03 0.  0.
         25    2    3    3    0    0  0.11301991885E+02  0.13476168323E+02 -0.16696755057E+03  0.21659770534E+03  0.13684685192E+03 0.  0.
         25    2    3    3    0    0 -0.11301991885E+02 -0.13476168323E+02 -0.29441590015E+03  0.31966015237E+03  0.12325805701E+03 0.  0.
          5    1    4    4  502    0 -0.16634111558E+02 -0.55593847960E+02 -0.44943050638E+02  0.73548197795E+02  0.47000000000E+01 0.  1.
         -5    1    4    4    0  502  0.27936103442E+02  0.69070016283E+02 -0.12202449994E+03  0.14304950755E+03  0.47000000000E+01 0.  1.
          5    1    5    5  503    0  0.46666261581E+02 -0.27915685366E+02 -0.78693552559E+02  0.95769466291E+02  0.47000000000E+01 0.  1.
         -5    1    5    5    0  503 -0.57968253466E+02  0.14439517043E+02 -0.21572234759E+03  0.22389068608E+03  0.47000000000E+01 0.  1.
<mgrwt>
<rscale>  0 0.27330899E+03</rscale>
<asrwt>0</asrwt>
<pdfrwt beam="1">  1        2 0.76741632E-01 0.27330899E+03</pdfrwt>
<pdfrwt beam="2">  1       -2 0.57595703E-02 0.27330899E+03</pdfrwt>
<totfact> 0.97790998E+03</totfact>
</mgrwt>
</event>
<event>
 9    1  0.2073852E-002  0.2759444E+03  0.7818608E-02  0.1097925E+00
          2   -1    0    0  501    0  0.00000000000E+00  0.00000000000E+00  0.26735337242E+04  0.26735337242E+04  0.00000000000E+00 0.  1.
         -2   -1    0    0    0  501 -0.00000000000E+00 -0.00000000000E+00 -0.71202870553E+01  0.71202870553E+01  0.00000000000E+00 0.  1.
         36    2    1    2    0    0  0.00000000000E+00 -0.71054273576E-14  0.26664134372E+04  0.26806540113E+04  0.27594439707E+03 0.  0.
         25    2    3    3    0    0 -0.37304341940E+02 -0.41487101837E+02  0.10525968816E+04  0.10614122600E+04  0.12459131904E+03 0.  0.
         25    2    3    3    0    0  0.37304341940E+02  0.41487101837E+02  0.16138165555E+04  0.16192417513E+04  0.12011319999E+03 0.  0.
          5    1    4    4  502    0 -0.72532639995E+02  0.14035217203E+01  0.40910911954E+03  0.41551812888E+03  0.47000000000E+01 0. -1.
         -5    1    4    4    0  502  0.35228298055E+02 -0.42890623557E+02  0.64348776210E+03  0.64589413107E+03  0.47000000000E+01 0. -1.
          5    1    5    5  503    0  0.35023152193E+02  0.82374159788E+02  0.98210067018E+03  0.98618250834E+03  0.47000000000E+01 0. -1.
         -5    1    5    5    0  503  0.22811897471E+01 -0.40887057951E+02  0.63171588536E+03  0.63305924300E+03  0.47000000000E+01 0. -1.
<mgrwt>
<rscale>  0 0.27594440E+03</rscale>
<asrwt>0</asrwt>
<pdfrwt beam="1">  1        2 0.41131208E+00 0.27594440E+03</pdfrwt>
<pdfrwt beam="2">  1       -2 0.10954309E-02 0.27594440E+03</pdfrwt>
<totfact> 0.60001705E+03</totfact>
</mgrwt>
</event>
<event>
 9    1  0.2073852E-002  0.2748512E+03  0.7818608E-02  0.1098535E+00
          2   -1    0    0  501    0  0.00000000000E+00  0.00000000000E+00  0.17574488588E+04  0.17574488588E+04  0.00000000000E+00 0. -1.
         -2   -1    0    0    0  501 -0.00000000000E+00 -0.00000000000E+00 -0.10746143075E+02  0.10746143075E+02  0.00000000000E+00 0. -1.
         36    2    1    2    0    0  0.14210854715E-13  0.00000000000E+00  0.17467027157E+04  0.17681950019E+04  0.27485120981E+03 0.  0.
         25    2    3    3    0    0 -0.34530927891E+02 -0.23964476796E+02  0.94472046203E+03  0.95554137529E+03  0.13709809402E+03 0.  0.
         25    2    3    3    0    0  0.34530927891E+02  0.23964476796E+02  0.80198225369E+03  0.81265362658E+03  0.12435312794E+03 0.  0.
          5    1    4    4  502    0 -0.71889756012E+02 -0.12165395751E+02  0.27130502961E+03  0.28097089345E+03  0.47000000000E+01 0. -1.
         -5    1    4    4    0  502  0.37358828121E+02 -0.11799081045E+02  0.67341543241E+03  0.67457048184E+03  0.47000000000E+01 0. -1.
          5    1    5    5  503    0 -0.39031072553E+02 -0.14155651417E+02  0.16150273364E+03  0.16682035267E+03  0.47000000000E+01 0. -1.
         -5    1    5    5    0  503  0.73562000444E+02  0.38120128213E+02  0.64047952005E+03  0.64583327391E+03  0.47000000000E+01 0. -1.
<mgrwt>
<rscale>  0 0.27485121E+03</rscale>
<asrwt>0</asrwt>
<pdfrwt beam="1">  1        2 0.27037652E+00 0.27485121E+03</pdfrwt>
<pdfrwt beam="2">  1       -2 0.16532542E-02 0.27485121E+03</pdfrwt>
<totfact> 0.10193158E+04</totfact>
</mgrwt>
</event>
<event>
 9    1  0.2073852E-002  0.2745248E+03  0.7818608E-02  0.1098718E+00
          2   -1    0    0  501    0  0.00000000000E+00  0.00000000000E+00  0.25312278303E+03  0.25312278303E+03  0.00000000000E+00 0.  1.
         -2   -1    0    0    0  501 -0.00000000000E+00 -0.00000000000E+00 -0.74434084536E+02  0.74434084536E+02  0.00000000000E+00 0.  1.
         36    2    1    2    0    0 -0.35527136788E-14  0.71054273576E-14  0.17868869849E+03  0.32755686757E+03  0.27452477214E+03 0.  0.
         25    2    3    3    0    0  0.26679782311E+02 -0.12579627480E+01  0.58404217790E+02  0.14824407896E+03  0.13361085673E+03 0.  0.
         25    2    3    3    0    0 -0.26679782311E+02  0.12579627480E+01  0.12028448070E+03  0.17931278861E+03  0.13027404425E+03 0.  0.
          5    1    4    4  502    0  0.21526830441E+02 -0.66447756243E+02  0.22720578645E+02  0.73600430926E+02  0.47000000000E+01 0.  1.
         -5    1    4    4    0  502  0.51529518707E+01  0.65189793495E+02  0.35683639145E+02  0.74643648032E+02  0.47000000000E+01 0.  1.
          5    1    5    5  503    0  0.42209822646E+02  0.35720602572E+02  0.56461644675E+02  0.79168414758E+02  0.47000000000E+01 0.  1.
         -5    1    5    5    0  503 -0.68889604957E+02 -0.34462639824E+02  0.63822836029E+02  0.10014437385E+03  0.47000000000E+01 0.  1.
<mgrwt>
<rscale>  0 0.27452477E+03</rscale>
<asrwt>0</asrwt>
<pdfrwt beam="1">  1        2 0.38941966E-01 0.27452477E+03</pdfrwt>
<pdfrwt beam="2">  1       -2 0.11451398E-01 0.27452477E+03</pdfrwt>
<totfact> 0.69643397E+03</totfact>
</mgrwt>
</event>
<event>
 9    1  0.2073852E-002  0.2747183E+03  0.7818608E-02  0.1098609E+00
         -2   -1    0    0    0  501 -0.00000000000E+00  0.00000000000E+00  0.21662626793E+02  0.21662626793E+02  0.00000000000E+00 0.  1.
          2   -1    0    0  501    0  0.00000000000E+00 -0.00000000000E+00 -0.87097168885E+03  0.87097168885E+03  0.00000000000E+00 0.  1.
         36    2    1    2    0    0  0.00000000000E+00  0.00000000000E+00 -0.84930906205E+03  0.89263431564E+03  0.27471828948E+03 0.  0.
         25    2    3    3    0    0  0.52287649074E+02 -0.86438631435E+01 -0.37454372809E+03  0.39879712034E+03  0.12628311180E+03 0.  0.
         25    2    3    3    0    0 -0.52287649074E+02  0.86438631435E+01 -0.47476533396E+03  0.49383719530E+03  0.12515725512E+03 0.  0.
          5    1    4    4  502    0  0.18779818654E+02  0.52496534479E+02 -0.24808014333E+03  0.25431164982E+03  0.47000000000E+01 0. -1.
         -5    1    4    4    0  502  0.33507830421E+02 -0.61140397623E+02 -0.12646358476E+03  0.14448547052E+03  0.47000000000E+01 0. -1.
          5    1    5    5  503    0 -0.35210213426E+02 -0.48805676250E+02 -0.12348375517E+03  0.13744846654E+03  0.47000000000E+01 0. -1.
         -5    1    5    5    0  503 -0.17077435649E+02  0.57449539394E+02 -0.35128157879E+03  0.35638872876E+03  0.47000000000E+01 0. -1.
<mgrwt>
<rscale>  0 0.27471829E+03</rscale>
<asrwt>0</asrwt>
<pdfrwt beam="1">  1        2 0.13399563E+00 0.27471829E+03</pdfrwt>
<pdfrwt beam="2">  1       -2 0.33327123E-02 0.27471829E+03</pdfrwt>
<totfact> 0.11449930E+04</totfact>
</mgrwt>
</event>
<event>
 9    1  0.2073852E-002  0.2742352E+03  0.7818608E-02  0.1098880E+00
          1   -1    0    0  501    0  0.00000000000E+00  0.00000000000E+00  0.42667523618E+03  0.42667523618E+03  0.00000000000E+00 0.  1.
         -1   -1    0    0    0  501 -0.00000000000E+00 -0.00000000000E+00 -0.44064497428E+02  0.44064497428E+02  0.00000000000E+00 0.  1.
         36    2    1    2    0    0  0.35527136788E-14  0.00000000000E+00  0.38261073875E+03  0.47073973360E+03  0.27423515345E+03 0.  0.
         25    2    3    3    0    0 -0.21445618675E+02 -0.33018015425E+02  0.26143664582E+03  0.29275470676E+03  0.12572229178E+03 0.  0.
         25    2    3    3    0    0  0.21445618675E+02  0.33018015425E+02  0.12117409293E+03  0.17798502684E+03  0.12427954409E+03 0.  0.
          5    1    4    4  502    0 -0.19382288668E+02 -0.81027823520E+02  0.16760738192E+03  0.18723115599E+03  0.47000000000E+01 0. -1.
         -5    1    4    4    0  502 -0.20633300073E+01  0.48009808095E+02  0.93829263899E+02  0.10552355077E+03  0.47000000000E+01 0. -1.
          5    1    5    5  503    0 -0.25471547096E+01 -0.22433640976E+02  0.11474861892E+03  0.11704311935E+03  0.47000000000E+01 0. -1.
         -5    1    5    5    0  503  0.23992773385E+02  0.55451656400E+02  0.64254740115E+01  0.60941907490E+02  0.47000000000E+01 0. -1.
<mgrwt>
<rscale>  0 0.27423515E+03</rscale>
<asrwt>0</asrwt>
<pdfrwt beam="1">  1        1 0.65642341E-01 0.27423515E+03</pdfrwt>
<pdfrwt beam="2">  1       -1 0.67791537E-02 0.27423515E+03</pdfrwt>
<totfact> 0.61461483E+03</totfact>
</mgrwt>
</event>
<event>
 9    1  0.2073852E-002  0.2823687E+03  0.7818608E-02  0.1094402E+00
          2   -1    0    0  501    0  0.00000000000E+00  0.00000000000E+00  0.32984544523E+03  0.32984544523E+03  0.00000000000E+00 0. -1.
         -2   -1    0    0    0  501 -0.00000000000E+00 -0.00000000000E+00 -0.60431397825E+02  0.60431397825E+02  0.00000000000E+00 0. -1.
         36    2    1    2    0    0 -0.71054273576E-14  0.00000000000E+00  0.26941404740E+03  0.39027684305E+03  0.28236870451E+03 0.  0.
         25    2    3    3    0    0  0.42408649037E+02 -0.32402760254E+02  0.10007270115E+03  0.17451036861E+03  0.13263065577E+03 0.  0.
         25    2    3    3    0    0 -0.42408649037E+02  0.32402760254E+02  0.16934134625E+03  0.21576647445E+03  0.12259791009E+03 0.  0.
          5    1    4    4  502    0  0.85260897495E+01  0.30602871076E+01  0.12067399694E+03  0.12110476085E+03  0.47000000000E+01 0. -1.
         -5    1    4    4    0  502  0.33882559288E+02 -0.35463047361E+02 -0.20601295784E+02  0.53405607758E+02  0.47000000000E+01 0. -1.
          5    1    5    5  503    0  0.33988497840E+02  0.92158346860E+01  0.11161468030E+03  0.11713273007E+03  0.47000000000E+01 0. -1.
         -5    1    5    5    0  503 -0.76397146877E+02  0.23186925568E+02  0.57726665948E+02  0.98633744377E+02  0.47000000000E+01 0. -1.
<mgrwt>
<rscale>  0 0.28236870E+03</rscale>
<asrwt>0</asrwt>
<pdfrwt beam="1">  1        2 0.50745452E-01 0.28236870E+03</pdfrwt>
<pdfrwt beam="2">  1       -2 0.92971383E-02 0.28236870E+03</pdfrwt>
<totfact> 0.73082757E+03</totfact>
</mgrwt>
</event>
<event>
 9    1  0.2073852E-002  0.2747454E+03  0.7818608E-02  0.1098594E+00
         -2   -1    0    0    0  501 -0.00000000000E+00  0.00000000000E+00  0.14364167550E+02  0.14364167550E+02  0.00000000000E+00 0. -1.
          2   -1    0    0  501    0  0.00000000000E+00 -0.00000000000E+00 -0.13137731551E+04  0.13137731551E+04  0.00000000000E+00 0. -1.
         36    2    1    2    0    0 -0.71054273576E-14  0.62172489379E-14 -0.12994089876E+04  0.13281373227E+04  0.27474539285E+03 0.  0.
         25    2    3    3    0    0 -0.24075042813E+02  0.30992235285E+01 -0.93133917018E+03  0.94002469245E+03  0.12515813853E+03 0.  0.
         25    2    3    3    0    0  0.24075042813E+02 -0.30992235285E+01 -0.36806981742E+03  0.38811263024E+03  0.12069304200E+03 0.  0.
          5    1    4    4  502    0  0.21014279308E+02  0.37075353589E+02 -0.13437174482E+03  0.14104622500E+03  0.47000000000E+01 0. -1.
         -5    1    4    4    0  502 -0.45089322122E+02 -0.33976130061E+02 -0.79696742535E+03  0.79897846746E+03  0.47000000000E+01 0. -1.
          5    1    5    5  503    0  0.65535066806E+02  0.56446537859E+01 -0.12496169495E+03  0.14129480636E+03  0.47000000000E+01 0.  1.
         -5    1    5    5    0  503 -0.41460023992E+02 -0.87438773144E+01 -0.24310812247E+03  0.24681782389E+03  0.47000000000E+01 0.  1.
<mgrwt>
<rscale>  0 0.27474539E+03</rscale>
<asrwt>0</asrwt>
<pdfrwt beam="1">  1        2 0.20211890E+00 0.27474539E+03</pdfrwt>
<pdfrwt beam="2">  1       -2 0.22098725E-02 0.27474539E+03</pdfrwt>
<totfact> 0.11492884E+04</totfact>
</mgrwt>
</event>
<event>
 9    1  0.2073852E-002  0.2747519E+03  0.7818608E-02  0.1098590E+00
         -2   -1    0    0    0  501 -0.00000000000E+00  0.00000000000E+00  0.15712654479E+02  0.15712654479E+02  0.00000000000E+00 0. -1.
          2   -1    0    0  501    0  0.00000000000E+00 -0.00000000000E+00 -0.12010794077E+04  0.12010794077E+04  0.00000000000E+00 0. -1.
         36    2    1    2    0    0  0.00000000000E+00  0.71054273576E-14 -0.11853667532E+04  0.12167920621E+04  0.27475185702E+03 0.  0.
         25    2    3    3    0    0 -0.89876011315E+01  0.55822413584E+02 -0.65227896941E+03  0.66587796493E+03  0.12136182026E+03 0.  0.
         25    2    3    3    0    0  0.89876011315E+01 -0.55822413584E+02 -0.53308778377E+03  0.55091409721E+03  0.12699148972E+03 0.  0.
          5    1    4    4  502    0 -0.42493616775E+02  0.79395950060E+02 -0.38383392239E+03  0.39428415430E+03  0.47000000000E+01 0.  1.
         -5    1    4    4    0  502  0.33506015643E+02 -0.23573536476E+02 -0.26844504701E+03  0.27159381063E+03  0.47000000000E+01 0.  1.
          5    1    5    5  503    0  0.64212094311E+02 -0.52884205260E+02 -0.30573396311E+03  0.31688369857E+03  0.47000000000E+01 0.  1.
         -5    1    5    5    0  503 -0.55224493179E+02 -0.29382083234E+01 -0.22735382066E+03  0.23403039864E+03  0.47000000000E+01 0.  1.
<mgrwt>
<rscale>  0 0.27475186E+03</rscale>
<asrwt>0</asrwt>
<pdfrwt beam="1">  1        2 0.18478147E+00 0.27475186E+03</pdfrwt>
<pdfrwt beam="2">  1       -2 0.24173312E-02 0.27475186E+03</pdfrwt>
<totfact> 0.11640020E+04</totfact>
</mgrwt>
</event>
<event>
 9    1  0.2073852E-002  0.2750691E+03  0.7818608E-02  0.1098413E+00
         -1   -1    0    0    0  501 -0.00000000000E+00  0.00000000000E+00  0.11018427816E+02  0.11018427816E+02  0.00000000000E+00 0.  1.
          1   -1    0    0  501    0  0.00000000000E+00 -0.00000000000E+00 -0.17167375190E+04  0.17167375190E+04  0.00000000000E+00 0.  1.
         36    2    1    2    0    0 -0.71054273576E-14  0.14210854715E-13 -0.17057190912E+04  0.17277559468E+04  0.27506907083E+03 0.  0.
         25    2    3    3    0    0 -0.76634744007E+01  0.64262641344E+02 -0.90245678776E+03  0.91321342552E+03  0.12386319417E+03 0.  0.
         25    2    3    3    0    0  0.76634744007E+01 -0.64262641344E+02 -0.80326230345E+03  0.81454252132E+03  0.11857813871E+03 0.  0.
          5    1    4    4  502    0 -0.43316116920E+02  0.83887229640E+02 -0.51559771262E+03  0.52419122898E+03  0.47000000000E+01 0. -1.
         -5    1    4    4    0  502  0.35652642520E+02 -0.19624588296E+02 -0.38685907514E+03  0.38902219654E+03  0.47000000000E+01 0. -1.
          5    1    5    5  503    0  0.42224279089E+02  0.17676247599E+02 -0.28043073703E+03  0.28418097710E+03  0.47000000000E+01 0.  1.
         -5    1    5    5    0  503 -0.34560804689E+02 -0.81938888943E+02 -0.52283156642E+03  0.53036154422E+03  0.47000000000E+01 0.  1.
<mgrwt>
<rscale>  0 0.27506907E+03</rscale>
<asrwt>0</asrwt>
<pdfrwt beam="1">  1        1 0.26411348E+00 0.27506907E+03</pdfrwt>
<pdfrwt beam="2">  1       -1 0.16951426E-02 0.27506907E+03</pdfrwt>
<totfact> 0.45019145E+03</totfact>
</mgrwt>
</event>
<event>
 9    1  0.2073852E-002  0.2751532E+03  0.7818608E-02  0.1098366E+00
         -1   -1    0    0    0  501 -0.00000000000E+00  0.00000000000E+00  0.12525067786E+02  0.12525067786E+02  0.00000000000E+00 0.  1.
          1   -1    0    0  501    0  0.00000000000E+00 -0.00000000000E+00 -0.15111554524E+04  0.15111554524E+04  0.00000000000E+00 0.  1.
         36    2    1    2    0    0  0.35527136788E-14  0.35527136788E-14 -0.14986303846E+04  0.15236805202E+04  0.27515322623E+03 0.  0.
         25    2    3    3    0    0  0.14082572183E+02 -0.21620734095E+02 -0.59712486585E+03  0.61070804563E+03  0.12546089669E+03 0.  0.
         25    2    3    3    0    0 -0.14082572183E+02  0.21620734095E+02 -0.90150551874E+03  0.91297247453E+03  0.14191815935E+03 0.  0.
          5    1    4    4  502    0  0.50297884938E+02 -0.53867053996E+02 -0.44156695232E+03  0.44769967625E+03  0.47000000000E+01 0. -1.
         -5    1    4    4    0  502 -0.36215312755E+02  0.32246319901E+02 -0.15555791353E+03  0.16300836938E+03  0.47000000000E+01 0. -1.
          5    1    5    5  503    0 -0.14261915350E+02  0.33125083501E+02 -0.52450370765E+02  0.63826364300E+02  0.47000000000E+01 0. -1.
         -5    1    5    5    0  503  0.17934316675E+00 -0.11504349406E+02 -0.84905514798E+03  0.84914611023E+03  0.47000000000E+01 0. -1.
<mgrwt>
<rscale>  0 0.27515323E+03</rscale>
<asrwt>0</asrwt>
<pdfrwt beam="1">  1        1 0.23248533E+00 0.27515323E+03</pdfrwt>
<pdfrwt beam="2">  1       -1 0.19269345E-02 0.27515323E+03</pdfrwt>
<totfact> 0.50943684E+03</totfact>
</mgrwt>
</event>
<event>
 9    1  0.2073852E-002  0.2770703E+03  0.7818608E-02  0.1097300E+00
         -4   -1    0    0    0  501 -0.00000000000E+00  0.00000000000E+00  0.24433952731E+02  0.24433952731E+02  0.00000000000E+00 0.  1.
          4   -1    0    0  501    0  0.00000000000E+00 -0.00000000000E+00 -0.78546402690E+03  0.78546402690E+03  0.00000000000E+00 0.  1.
         36    2    1    2    0    0  0.71054273576E-14  0.17763568394E-14 -0.76103007417E+03  0.80989797963E+03  0.27707032252E+03 0.  0.
         25    2    3    3    0    0 -0.58633601668E+02 -0.50397460631E+01 -0.35236088459E+03  0.37885032603E+03  0.12611930169E+03 0.  0.
         25    2    3    3    0    0  0.58633601668E+02  0.50397460631E+01 -0.40866918958E+03  0.43104765360E+03  0.12380741043E+03 0.  0.
          5    1    4    4  502    0  0.14106974020E+02 -0.25691755154E+02 -0.24864449758E+03  0.25041016189E+03  0.47000000000E+01 0.  1.
         -5    1    4    4    0  502 -0.72740575689E+02  0.20652009091E+02 -0.10371638700E+03  0.12844016414E+03  0.47000000000E+01 0.  1.
          5    1    5    5  503    0  0.51910023824E+02 -0.12137687034E+02 -0.54554104562E+02  0.76421295098E+02  0.47000000000E+01 0.  1.
         -5    1    5    5    0  503  0.67235778446E+01  0.17177433097E+02 -0.35411508502E+03  0.35462635850E+03  0.47000000000E+01 0.  1.
<mgrwt>
<rscale>  0 0.27707032E+03</rscale>
<asrwt>0</asrwt>
<pdfrwt beam="1">  1        4 0.12084063E+00 0.27707032E+03</pdfrwt>
<pdfrwt beam="2">  1       -4 0.37590693E-02 0.27707032E+03</pdfrwt>
<totfact> 0.38461234E+02</totfact>
</mgrwt>
</event>
<event>
 9    1  0.2073852E-002  0.2760413E+03  0.7818608E-02  0.1097871E+00
          2   -1    0    0  501    0  0.00000000000E+00  0.00000000000E+00  0.19546339066E+03  0.19546339066E+03  0.00000000000E+00 0. -1.
         -2   -1    0    0    0  501 -0.00000000000E+00 -0.00000000000E+00 -0.97459168023E+02  0.97459168023E+02  0.00000000000E+00 0. -1.
         36    2    1    2    0    0  0.00000000000E+00  0.71054273576E-14  0.98004222635E+02  0.29292255868E+03  0.27604129715E+03 0.  0.
         25    2    3    3    0    0 -0.70403725721E+01 -0.26104414632E+02 -0.19467060205E+01  0.12974710232E+03  0.12688385866E+03 0.  0.
         25    2    3    3    0    0  0.70403725721E+01  0.26104414632E+02  0.99950928656E+02  0.16317545636E+03  0.12611516209E+03 0.  0.
          5    1    4    4  502    0  0.52191910566E+02  0.10352742537E+02 -0.21131660837E+02  0.57443989209E+02  0.47000000000E+01 0.  1.
         -5    1    4    4    0  502 -0.59232283138E+02 -0.36457157169E+02  0.19184954816E+02  0.72303113113E+02  0.47000000000E+01 0.  1.
          5    1    5    5  503    0  0.43025552985E+02 -0.70333573889E+01  0.10498490742E+03  0.11377428141E+03  0.47000000000E+01 0.  1.
         -5    1    5    5    0  503 -0.35985180413E+02  0.33137772021E+02 -0.50339787609E+01  0.49401174946E+02  0.47000000000E+01 0.  1.
<mgrwt>
<rscale>  0 0.27604130E+03</rscale>
<asrwt>0</asrwt>
<pdfrwt beam="1">  1        2 0.30071291E-01 0.27604130E+03</pdfrwt>
<pdfrwt beam="2">  1       -2 0.14993718E-01 0.27604130E+03</pdfrwt>
<totfact> 0.59482871E+03</totfact>
</mgrwt>
</event>
<event>
 9    1  0.2073852E-002  0.2756477E+03  0.7818608E-02  0.1098090E+00
         -2   -1    0    0    0  501 -0.00000000000E+00  0.00000000000E+00  0.80860123743E+01  0.80860123743E+01  0.00000000000E+00 0. -1.
          2   -1    0    0  501    0  0.00000000000E+00 -0.00000000000E+00 -0.23491700630E+04  0.23491700630E+04  0.00000000000E+00 0. -1.
         36    2    1    2    0    0  0.00000000000E+00  0.00000000000E+00 -0.23410840507E+04  0.23572560754E+04  0.27564773316E+03 0.  0.
         25    2    3    3    0    0 -0.55614741829E+02  0.63714090785E+01 -0.10442963605E+04  0.10531900883E+04  0.12458282050E+03 0.  0.
         25    2    3    3    0    0  0.55614741829E+02 -0.63714090785E+01 -0.12967876902E+04  0.13040659871E+04  0.12568289875E+03 0.  0.
          5    1    4    4  502    0 -0.74423271882E+01  0.62093471054E+02 -0.49519864879E+03  0.49915406353E+03  0.47000000000E+01 0. -1.
         -5    1    4    4    0  502 -0.48172414640E+02 -0.55722061976E+02 -0.54909771171E+03  0.55403602476E+03  0.47000000000E+01 0. -1.
          5    1    5    5  503    0 -0.38689197981E+02 -0.16139617284E+02 -0.35058212860E+03  0.35311083272E+03  0.47000000000E+01 0. -1.
         -5    1    5    5    0  503  0.94303939809E+02  0.97682082055E+01 -0.94620556156E+03  0.95095515440E+03  0.47000000000E+01 0. -1.
<mgrwt>
<rscale>  0 0.27564773E+03</rscale>
<asrwt>0</asrwt>
<pdfrwt beam="1">  1        2 0.36141111E+00 0.27564773E+03</pdfrwt>
<pdfrwt beam="2">  1       -2 0.12440008E-02 0.27564773E+03</pdfrwt>
<totfact> 0.75141845E+03</totfact>
</mgrwt>
</event>
<event>
 9    1  0.2073852E-002  0.2710109E+03  0.7818608E-02  0.1100702E+00
          2   -1    0    0  501    0  0.00000000000E+00  0.00000000000E+00  0.87123895311E+03  0.87123895311E+03  0.00000000000E+00 0.  1.
         -2   -1    0    0    0  501 -0.00000000000E+00 -0.00000000000E+00 -0.21075417963E+02  0.21075417963E+02  0.00000000000E+00 0.  1.
         36    2    1    2    0    0  0.00000000000E+00  0.00000000000E+00  0.85016353514E+03  0.89231437107E+03  0.27101088600E+03 0.  0.
         25    2    3    3    0    0 -0.21440084229E+02  0.40050508962E+02  0.30371187328E+03  0.32969093365E+03  0.11996453342E+03 0.  0.
         25    2    3    3    0    0  0.21440084229E+02 -0.40050508962E+02  0.54645166186E+03  0.56262343742E+03  0.12598409862E+03 0.  0.
          5    1    4    4  502    0 -0.38841791146E+02  0.43868191969E+02  0.30557004993E+03  0.31117237735E+03  0.47000000000E+01 0. -1.
         -5    1    4    4    0  502  0.17401706917E+02 -0.38176830070E+01 -0.18581766505E+01  0.18518556305E+02  0.47000000000E+01 0. -1.
          5    1    5    5  503    0 -0.33291082216E+02  0.29858169957E+02  0.17636445258E+03  0.18200636418E+03  0.47000000000E+01 0. -1.
         -5    1    5    5    0  503  0.54731166444E+02 -0.69908678919E+02  0.37008720928E+03  0.38061707324E+03  0.47000000000E+01 0. -1.
<mgrwt>
<rscale>  0 0.27101089E+03</rscale>
<asrwt>0</asrwt>
<pdfrwt beam="1">  1        2 0.13403673E+00 0.27101089E+03</pdfrwt>
<pdfrwt beam="2">  1       -2 0.32423727E-02 0.27101089E+03</pdfrwt>
<totfact> 0.11918981E+04</totfact>
</mgrwt>
</event>
<event>
 9    1  0.2073852E-002  0.2746270E+03  0.7818608E-02  0.1098660E+00
          1   -1    0    0  501    0  0.00000000000E+00  0.00000000000E+00  0.98722352060E+03  0.98722352060E+03  0.00000000000E+00 0.  1.
         -1   -1    0    0    0  501 -0.00000000000E+00 -0.00000000000E+00 -0.19099022200E+02  0.19099022200E+02  0.00000000000E+00 0.  1.
         36    2    1    2    0    0  0.35527136788E-14  0.00000000000E+00  0.96812449840E+03  0.10063225428E+04  0.27462704846E+03 0.  0.
         25    2    3    3    0    0 -0.17707725703E+02  0.41532803936E+02  0.25346221004E+03  0.27977297318E+03  0.10950473621E+03 0.  0.
         25    2    3    3    0    0  0.17707725703E+02 -0.41532803936E+02  0.71466228835E+03  0.72654956961E+03  0.12285582347E+03 0.  0.
          5    1    4    4  502    0 -0.34851593065E+02  0.44681006934E+02  0.25536601517E+03  0.26161979593E+03  0.47000000000E+01 0. -1.
         -5    1    4    4    0  502  0.17143867363E+02 -0.31482029983E+01 -0.19038051290E+01  0.18153177249E+02  0.47000000000E+01 0. -1.
          5    1    5    5  503    0 -0.51298722407E+02 -0.35724245514E+01  0.25700100723E+03  0.26213723286E+03  0.47000000000E+01 0. -1.
         -5    1    5    5    0  503  0.69006448110E+02 -0.37960379384E+02  0.45766128113E+03  0.46441233675E+03  0.47000000000E+01 0. -1.
<mgrwt>
<rscale>  0 0.27462705E+03</rscale>
<asrwt>0</asrwt>
<pdfrwt beam="1">  1        1 0.15188050E+00 0.27462705E+03</pdfrwt>
<pdfrwt beam="2">  1       -1 0.29383119E-02 0.27462705E+03</pdfrwt>
<totfact> 0.63549697E+03</totfact>
</mgrwt>
</event>
<event>
 9    1  0.2073852E-002  0.2751154E+03  0.7818608E-02  0.1098387E+00
         -2   -1    0    0    0  501 -0.00000000000E+00  0.00000000000E+00  0.18958001103E+02  0.18958001103E+02  0.00000000000E+00 0. -1.
          2   -1    0    0  501    0  0.00000000000E+00 -0.00000000000E+00 -0.99810715902E+03  0.99810715902E+03  0.00000000000E+00 0. -1.
         36    2    1    2    0    0  0.00000000000E+00  0.00000000000E+00 -0.97914915792E+03  0.10170651601E+04  0.27511536941E+03 0.  0.
         25    2    3    3    0    0  0.20013976260E+02  0.53372431590E+02 -0.43983412208E+03  0.46063219754E+03  0.12441378850E+03 0.  0.
         25    2    3    3    0    0 -0.20013976260E+02 -0.53372431590E+02 -0.53931503584E+03  0.55643296258E+03  0.12453015003E+03 0.  0.
          5    1    4    4  502    0 -0.42191338576E+01 -0.34777218567E+02 -0.21485020432E+03  0.21773827482E+03  0.47000000000E+01 0.  1.
         -5    1    4    4    0  502  0.24233110118E+02  0.88149650157E+02 -0.22498391775E+03  0.24289392272E+03  0.47000000000E+01 0.  1.
          5    1    5    5  503    0 -0.74071361336E+01  0.31370787368E+02 -0.50157594264E+02  0.59806907863E+02  0.47000000000E+01 0. -1.
         -5    1    5    5    0  503 -0.12606840126E+02 -0.84743218958E+02 -0.48915744158E+03  0.49662605472E+03  0.47000000000E+01 0. -1.
<mgrwt>
<rscale>  0 0.27511537E+03</rscale>
<asrwt>0</asrwt>
<pdfrwt beam="1">  1        2 0.15355498E+00 0.27511537E+03</pdfrwt>
<pdfrwt beam="2">  1       -2 0.29166149E-02 0.27511537E+03</pdfrwt>
<totfact> 0.11601956E+04</totfact>
</mgrwt>
</event>
<event>
 9    1  0.2073852E-002  0.2767883E+03  0.7818608E-02  0.1097456E+00
          1   -1    0    0  501    0  0.00000000000E+00  0.00000000000E+00  0.49326549604E+03  0.49326549604E+03  0.00000000000E+00 0. -1.
         -1   -1    0    0    0  501 -0.00000000000E+00 -0.00000000000E+00 -0.38828858292E+02  0.38828858292E+02  0.00000000000E+00 0. -1.
         36    2    1    2    0    0  0.35527136788E-14  0.00000000000E+00  0.45443663774E+03  0.53209435433E+03  0.27678826598E+03 0.  0.
         25    2    3    3    0    0  0.42326691757E+01  0.47323330484E+02  0.12247292355E+03  0.17814533770E+03  0.12032759968E+03 0.  0.
         25    2    3    3    0    0 -0.42326691757E+01 -0.47323330484E+02  0.33196371420E+03  0.35394901663E+03  0.11323685679E+03 0.  0.
          5    1    4    4  502    0  0.59645914672E+02  0.39429553971E+02  0.82099738654E+02  0.10897147310E+03  0.47000000000E+01 0.  1.
         -5    1    4    4    0  502 -0.55413245496E+02  0.78937765127E+01  0.40373184895E+02  0.69173864592E+02  0.47000000000E+01 0.  1.
          5    1    5    5  503    0 -0.15658415216E+02 -0.62719786361E+02  0.88553065754E+02  0.10973920458E+03  0.47000000000E+01 0. -1.
         -5    1    5    5    0  503  0.11425746040E+02  0.15396455877E+02  0.24341064844E+03  0.24420981205E+03  0.47000000000E+01 0. -1.
<mgrwt>
<rscale>  0 0.27678827E+03</rscale>
<asrwt>0</asrwt>
<pdfrwt beam="1">  1        1 0.75886995E-01 0.27678827E+03</pdfrwt>
<pdfrwt beam="2">  1       -1 0.59736709E-02 0.27678827E+03</pdfrwt>
<totfact> 0.61573242E+03</totfact>
</mgrwt>
</event>
<event>
 9    1  0.2073852E-002  0.2750558E+03  0.7818608E-02  0.1098420E+00
         -2   -1    0    0    0  501 -0.00000000000E+00  0.00000000000E+00  0.49042231610E+02  0.49042231610E+02  0.00000000000E+00 0. -1.
          2   -1    0    0  501    0  0.00000000000E+00 -0.00000000000E+00 -0.38566593034E+03  0.38566593034E+03  0.00000000000E+00 0. -1.
         36    2    1    2    0    0  0.00000000000E+00  0.71054273576E-14 -0.33662369873E+03  0.43470816195E+03  0.27505576075E+03 0.  0.
         25    2    3    3    0    0 -0.18297953186E+02 -0.46894653825E+02 -0.13225087480E+03  0.18977813606E+03  0.12645759523E+03 0.  0.
         25    2    3    3    0    0  0.18297953186E+02  0.46894653825E+02 -0.20437282393E+03  0.24493002589E+03  0.12525391322E+03 0.  0.
          5    1    4    4  502    0  0.13569273161E+02 -0.34686269830E+02 -0.14742971007E+03  0.15213438764E+03  0.47000000000E+01 0. -1.
         -5    1    4    4    0  502 -0.31867226347E+02 -0.12208383995E+02  0.15178835273E+02  0.37643748419E+02  0.47000000000E+01 0. -1.
          5    1    5    5  503    0  0.60524906623E+01 -0.34126615216E+02 -0.12843738084E+03  0.13311464723E+03  0.47000000000E+01 0. -1.
         -5    1    5    5    0  503  0.12245462524E+02  0.81021269040E+02 -0.75935443086E+02  0.11181537866E+03  0.47000000000E+01 0. -1.
<mgrwt>
<rscale>  0 0.27505576E+03</rscale>
<asrwt>0</asrwt>
<pdfrwt beam="1">  1        2 0.59333217E-01 0.27505576E+03</pdfrwt>
<pdfrwt beam="2">  1       -2 0.75449590E-02 0.27505576E+03</pdfrwt>
<totfact> 0.85550824E+03</totfact>
</mgrwt>
</event>
<event>
 9    1  0.2073852E-002  0.2752064E+03  0.7818608E-02  0.1098336E+00
          1   -1    0    0  501    0  0.00000000000E+00  0.00000000000E+00  0.58029889042E+03  0.58029889042E+03  0.00000000000E+00 0. -1.
         -1   -1    0    0    0  501 -0.00000000000E+00 -0.00000000000E+00 -0.32629118761E+02  0.32629118761E+02  0.00000000000E+00 0. -1.
         36    2    1    2    0    0  0.00000000000E+00  0.35527136788E-14  0.54766977166E+03  0.61292800918E+03  0.27520640554E+03 0.  0.
         25    2    3    3    0    0 -0.87737667645E+01  0.66381172518E+01  0.22431088192E+03  0.26549687468E+03  0.14160570303E+03 0.  0.
         25    2    3    3    0    0  0.87737667645E+01 -0.66381172518E+01  0.32335888973E+03  0.34743113450E+03  0.12659533194E+03 0.  0.
          5    1    4    4  502    0 -0.47459969502E+02  0.18506223912E+02  0.21842552171E+03  0.22433619316E+03  0.47000000000E+01 0. -1.
         -5    1    4    4    0  502  0.38686202738E+02 -0.11868106660E+02  0.58853602167E+01  0.41160681516E+02  0.47000000000E+01 0. -1.
          5    1    5    5  503    0 -0.33596891710E+00 -0.65345251870E+02  0.13871754352E+03  0.15341043542E+03  0.47000000000E+01 0. -1.
         -5    1    5    5    0  503  0.91097356816E+01  0.58707134619E+02  0.18464134621E+03  0.19402069908E+03  0.47000000000E+01 0. -1.
<mgrwt>
<rscale>  0 0.27520641E+03</rscale>
<asrwt>0</asrwt>
<pdfrwt beam="1">  1        1 0.89276745E-01 0.27520641E+03</pdfrwt>
<pdfrwt beam="2">  1       -1 0.50198649E-02 0.27520641E+03</pdfrwt>
<totfact> 0.64218672E+03</totfact>
</mgrwt>
</event>
<event>
 9    1  0.2073852E-002  0.2764819E+03  0.7818608E-02  0.1097626E+00
          2   -1    0    0  501    0  0.00000000000E+00  0.00000000000E+00  0.15890333317E+04  0.15890333317E+04  0.00000000000E+00 0.  1.
         -2   -1    0    0    0  501 -0.00000000000E+00 -0.00000000000E+00 -0.12026527876E+02  0.12026527876E+02  0.00000000000E+00 0.  1.
         36    2    1    2    0    0  0.35527136788E-14 -0.71054273576E-14  0.15770068038E+04  0.16010598595E+04  0.27648185228E+03 0.  0.
         25    2    3    3    0    0  0.13389245317E+02  0.35033712602E+02  0.51369869218E+03  0.53024096405E+03  0.12594641994E+03 0.  0.
         25    2    3    3    0    0 -0.13389245317E+02 -0.35033712602E+02  0.10633081116E+04  0.10708188955E+04  0.12092284247E+03 0.  0.
          5    1    4    4  502    0 -0.49833759845E+02 -0.77944989401E+01  0.14241587249E+03  0.15115729744E+03  0.47000000000E+01 0. -1.
         -5    1    4    4    0  502  0.63223005161E+02  0.42828211542E+02  0.37128281969E+03  0.37908366660E+03  0.47000000000E+01 0. -1.
          5    1    5    5  503    0 -0.34498409200E+02 -0.14044688104E+02  0.99999159448E+03  0.10006960940E+04  0.47000000000E+01 0. -1.
         -5    1    5    5    0  503  0.21109163884E+02 -0.20989024499E+02  0.63316517117E+02  0.70122801492E+02  0.47000000000E+01 0. -1.
<mgrwt>
<rscale>  0 0.27648185E+03</rscale>
<asrwt>0</asrwt>
<pdfrwt beam="1">  1        2 0.24446650E+00 0.27648185E+03</pdfrwt>
<pdfrwt beam="2">  1       -2 0.18502363E-02 0.27648185E+03</pdfrwt>
<totfact> 0.10604409E+04</totfact>
</mgrwt>
</event>
<event>
 9    1  0.2073852E-002  0.2750662E+03  0.7818608E-02  0.1098415E+00
          1   -1    0    0  501    0  0.00000000000E+00  0.00000000000E+00  0.37881058304E+03  0.37881058304E+03  0.00000000000E+00 0.  1.
         -1   -1    0    0    0  501 -0.00000000000E+00 -0.00000000000E+00 -0.49933552511E+02  0.49933552511E+02  0.00000000000E+00 0.  1.
         36    2    1    2    0    0 -0.53290705182E-14  0.00000000000E+00  0.32887703053E+03  0.42874413555E+03  0.27506623304E+03 0.  0.
         25    2    3    3    0    0 -0.67564852332E+00 -0.46091005193E+02  0.10209517495E+03  0.16578982896E+03  0.12222113311E+03 0.  0.
         25    2    3    3    0    0  0.67564852332E+00  0.46091005193E+02  0.22678185558E+03  0.26295430659E+03  0.12486040234E+03 0.  0.
          5    1    4    4  502    0  0.10614532418E+02  0.37975734240E+02  0.10947489822E+02  0.41191773728E+02  0.47000000000E+01 0. -1.
         -5    1    4    4    0  502 -0.11290180941E+02 -0.84066739433E+02  0.91147685126E+02  0.12459805523E+03  0.47000000000E+01 0. -1.
          5    1    5    5  503    0 -0.39473724824E+02  0.39174563193E+02  0.21221781702E+03  0.21943407486E+03  0.47000000000E+01 0.  1.
         -5    1    5    5    0  503  0.40149373347E+02  0.69164419999E+01  0.14564038569E+02  0.43520231727E+02  0.47000000000E+01 0.  1.
<mgrwt>
<rscale>  0 0.27506623E+03</rscale>
<asrwt>0</asrwt>
<pdfrwt beam="1">  1        1 0.58278549E-01 0.27506623E+03</pdfrwt>
<pdfrwt beam="2">  1       -1 0.76820852E-02 0.27506623E+03</pdfrwt>
<totfact> 0.59215407E+03</totfact>
</mgrwt>
</event>
<event>
 9    1  0.2073852E-002  0.2753050E+03  0.7818608E-02  0.1098281E+00
          4   -1    0    0  501    0  0.00000000000E+00  0.00000000000E+00  0.33544475674E+03  0.33544475674E+03  0.00000000000E+00 0. -1.
         -4   -1    0    0    0  501 -0.00000000000E+00 -0.00000000000E+00 -0.56486835443E+02  0.56486835443E+02  0.00000000000E+00 0. -1.
         36    2    1    2    0    0  0.00000000000E+00  0.00000000000E+00  0.27895792130E+03  0.39193159218E+03  0.27530501466E+03 0.  0.
         25    2    3    3    0    0  0.13209242217E+02  0.38041002633E+02  0.79342677142E+02  0.15285700876E+03  0.12429160370E+03 0.  0.
         25    2    3    3    0    0 -0.13209242217E+02 -0.38041002633E+02  0.19961524416E+03  0.23907458343E+03  0.12525497507E+03 0.  0.
          5    1    4    4  502    0  0.64367274350E+02  0.42453814238E+02  0.34830513029E+02  0.84739170331E+02  0.47000000000E+01 0. -1.
         -5    1    4    4    0  502 -0.51158032133E+02 -0.44128116044E+01  0.44512164113E+02  0.68117838427E+02  0.47000000000E+01 0. -1.
          5    1    5    5  503    0 -0.68259073188E+02 -0.27085403033E+02  0.93991631624E+02  0.11937100546E+03  0.47000000000E+01 0.  1.
         -5    1    5    5    0  503  0.55049830971E+02 -0.10955599601E+02  0.10562361253E+03  0.11970357796E+03  0.47000000000E+01 0.  1.
<mgrwt>
<rscale>  0 0.27530501E+03</rscale>
<asrwt>0</asrwt>
<pdfrwt beam="1">  1        4 0.51606884E-01 0.27530501E+03</pdfrwt>
<pdfrwt beam="2">  1       -4 0.86902826E-02 0.27530501E+03</pdfrwt>
<totfact> 0.65509250E+02</totfact>
</mgrwt>
</event>
<event>
 9    1  0.2073852E-002  0.2744587E+03  0.7818608E-02  0.1098755E+00
          2   -1    0    0  501    0  0.00000000000E+00  0.00000000000E+00  0.12045673425E+02  0.12045673425E+02  0.00000000000E+00 0. -1.
         -2   -1    0    0    0  501 -0.00000000000E+00 -0.00000000000E+00 -0.15633742665E+04  0.15633742665E+04  0.00000000000E+00 0. -1.
         36    2    1    2    0    0  0.00000000000E+00  0.00000000000E+00 -0.15513285931E+04  0.15754199399E+04  0.27445870986E+03 0.  0.
         25    2    3    3    0    0  0.32588788829E+02  0.28419737488E+01 -0.10149731580E+04  0.10232674186E+04  0.12583955084E+03 0.  0.
         25    2    3    3    0    0 -0.32588788829E+02 -0.28419737488E+01 -0.53635543505E+03  0.55215252129E+03  0.12698483408E+03 0.  0.
          5    1    4    4  502    0  0.45677629163E+02  0.56989406920E+02 -0.63500383381E+03  0.63920747591E+03  0.47000000000E+01 0.  1.
         -5    1    4    4    0  502 -0.13088840335E+02 -0.54147433171E+02 -0.37996932420E+03  0.38405994271E+03  0.47000000000E+01 0.  1.
          5    1    5    5  503    0 -0.62104465062E+02 -0.46759723098E+02 -0.33066269197E+03  0.33971067417E+03  0.47000000000E+01 0.  1.
         -5    1    5    5    0  503  0.29515676234E+02  0.43917749349E+02 -0.20569274308E+03  0.21244184712E+03  0.47000000000E+01 0.  1.
<mgrwt>
<rscale>  0 0.27445871E+03</rscale>
<asrwt>0</asrwt>
<pdfrwt beam="1">  1        2 0.18531798E-02 0.27445871E+03</pdfrwt>
<pdfrwt beam="2">  1       -2 0.24051922E+00 0.27445871E+03</pdfrwt>
<totfact> 0.49675754E+02</totfact>
</mgrwt>
</event>
<event>
 9    1  0.2073852E-002  0.2753787E+03  0.7818608E-02  0.1098240E+00
          2   -1    0    0  501    0  0.00000000000E+00  0.00000000000E+00  0.53442404872E+03  0.53442404872E+03  0.00000000000E+00 0. -1.
         -2   -1    0    0    0  501 -0.00000000000E+00 -0.00000000000E+00 -0.35474380378E+02  0.35474380378E+02  0.00000000000E+00 0. -1.
         36    2    1    2    0    0 -0.71054273576E-14  0.00000000000E+00  0.49894966835E+03  0.56989842910E+03  0.27537873547E+03 0.  0.
         25    2    3    3    0    0  0.31584232584E+02 -0.37407417644E+02  0.22385778695E+03  0.26389642130E+03  0.13088977711E+03 0.  0.
         25    2    3    3    0    0 -0.31584232584E+02  0.37407417644E+02  0.27509188140E+03  0.30600200781E+03  0.12475899538E+03 0.  0.
          5    1    4    4  502    0  0.66305302591E+02 -0.37732682527E+02  0.21437940936E+03  0.22759782433E+03  0.47000000000E+01 0.  1.
         -5    1    4    4    0  502 -0.34721070008E+02  0.32526488324E+00  0.94783775828E+01  0.36298596961E+02  0.47000000000E+01 0.  1.
          5    1    5    5  503    0 -0.73929924553E+02  0.24656177180E+01  0.19653376510E+03  0.21004600410E+03  0.47000000000E+01 0. -1.
         -5    1    5    5    0  503  0.42345691969E+02  0.34941799926E+02  0.78558116301E+02  0.95956003706E+02  0.47000000000E+01 0. -1.
<mgrwt>
<rscale>  0 0.27537874E+03</rscale>
<asrwt>0</asrwt>
<pdfrwt beam="1">  1        2 0.82219079E-01 0.27537874E+03</pdfrwt>
<pdfrwt beam="2">  1       -2 0.54575974E-02 0.27537874E+03</pdfrwt>
<totfact> 0.98284038E+03</totfact>
</mgrwt>
</event>
<event>
 9    1  0.2073852E-002  0.2758567E+03  0.7818608E-02  0.1097974E+00
          4   -1    0    0  501    0  0.00000000000E+00  0.00000000000E+00  0.21678866578E+03  0.21678866578E+03  0.00000000000E+00 0.  1.
         -4   -1    0    0    0  501 -0.00000000000E+00 -0.00000000000E+00 -0.87754738587E+02  0.87754738587E+02  0.00000000000E+00 0.  1.
         36    2    1    2    0    0  0.00000000000E+00  0.71054273576E-14  0.12903392719E+03  0.30454340437E+03  0.27585672146E+03 0.  0.
         25    2    3    3    0    0 -0.45509815469E+02  0.35203140134E+02  0.97321727866E+02  0.16873980750E+03  0.12526451828E+03 0.  0.
         25    2    3    3    0    0  0.45509815469E+02 -0.35203140134E+02  0.31712199326E+02  0.13580359687E+03  0.11885515957E+03 0.  0.
          5    1    4    4  502    0 -0.40767597575E+02  0.87901652536E+01 -0.21275820037E+02  0.47053315882E+02  0.47000000000E+01 0. -1.
         -5    1    4    4    0  502 -0.47422178940E+01  0.26412974880E+02  0.11859754790E+03  0.12168649161E+03  0.47000000000E+01 0. -1.
          5    1    5    5  503    0  0.40280326552E+02 -0.61453130304E+02 -0.20943600889E+02  0.76548784115E+02  0.47000000000E+01 0. -1.
         -5    1    5    5    0  503  0.52294889175E+01  0.26249990170E+02  0.52655800215E+02  0.59254812754E+02  0.47000000000E+01 0. -1.
<mgrwt>
<rscale>  0 0.27585672E+03</rscale>
<asrwt>0</asrwt>
<pdfrwt beam="1">  1        4 0.33352102E-01 0.27585672E+03</pdfrwt>
<pdfrwt beam="2">  1       -4 0.13500729E-01 0.27585672E+03</pdfrwt>
<totfact> 0.73778915E+02</totfact>
</mgrwt>
</event>
<event>
 9    1  0.2073852E-002  0.2746919E+03  0.7818608E-02  0.1098624E+00
         -1   -1    0    0    0  501 -0.00000000000E+00  0.00000000000E+00  0.28872965212E+02  0.28872965212E+02  0.00000000000E+00 0.  1.
          1   -1    0    0  501    0  0.00000000000E+00 -0.00000000000E+00 -0.65334157252E+03  0.65334157252E+03  0.00000000000E+00 0.  1.
         36    2    1    2    0    0 -0.35527136788E-14 -0.71054273576E-14 -0.62446860730E+03  0.68221453773E+03  0.27469188918E+03 0.  0.
         25    2    3    3    0    0 -0.27632185282E+02 -0.16683268885E+02 -0.21419143765E+03  0.25433707977E+03  0.13329482007E+03 0.  0.
         25    2    3    3    0    0  0.27632185282E+02  0.16683268885E+02 -0.41027716965E+03  0.42787745796E+03  0.11708925641E+03 0.  0.
          5    1    4    4  502    0 -0.22663203068E+02 -0.31570797519E+02 -0.22895835262E+03  0.23228076387E+03  0.47000000000E+01 0. -1.
         -5    1    4    4    0  502 -0.49689822140E+01  0.14887528635E+02  0.14766914973E+02  0.22056315896E+02  0.47000000000E+01 0. -1.
          5    1    5    5  503    0  0.26852343302E+02  0.64582528455E+02 -0.19311663978E+03  0.20544604616E+03  0.47000000000E+01 0. -1.
         -5    1    5    5    0  503  0.77984197936E+00 -0.47899259571E+02 -0.21716052987E+03  0.22243141180E+03  0.47000000000E+01 0. -1.
<mgrwt>
<rscale>  0 0.27469189E+03</rscale>
<asrwt>0</asrwt>
<pdfrwt beam="1">  1        1 0.10051408E+00 0.27469189E+03</pdfrwt>
<pdfrwt beam="2">  1       -1 0.44419950E-02 0.27469189E+03</pdfrwt>
<totfact> 0.65311274E+03</totfact>
</mgrwt>
</event>
<event>
 9    1  0.2073852E-002  0.2754794E+03  0.7818608E-02  0.1098184E+00
         -1   -1    0    0    0  501 -0.00000000000E+00  0.00000000000E+00  0.10178571801E+03  0.10178571801E+03  0.00000000000E+00 0. -1.
          1   -1    0    0  501    0  0.00000000000E+00 -0.00000000000E+00 -0.18639373992E+03  0.18639373992E+03  0.00000000000E+00 0. -1.
         36    2    1    2    0    0 -0.71054273576E-14  0.00000000000E+00 -0.84608021902E+02  0.28817945793E+03  0.27547936874E+03 0.  0.
         25    2    3    3    0    0 -0.36310589310E+02 -0.46377723196E+02 -0.46127403094E+02  0.14619391865E+03  0.12560084565E+03 0.  0.
         25    2    3    3    0    0  0.36310589310E+02  0.46377723196E+02 -0.38480618807E+02  0.14198553928E+03  0.12332794994E+03 0.  0.
          5    1    4    4  502    0  0.19054332649E+02  0.34971030092E+02 -0.10712071246E+02  0.41507577727E+02  0.47000000000E+01 0.  1.
         -5    1    4    4    0  502 -0.55364921959E+02 -0.81348753288E+02 -0.35415331848E+02  0.10468634092E+03  0.47000000000E+01 0.  1.
          5    1    5    5  503    0  0.66616477340E+02  0.51341117268E+02  0.95575916777E+01  0.84776782990E+02  0.47000000000E+01 0.  1.
         -5    1    5    5    0  503 -0.30305888030E+02 -0.49633940719E+01 -0.48038210485E+02  0.57208756293E+02  0.47000000000E+01 0.  1.
<mgrwt>
<rscale>  0 0.27547937E+03</rscale>
<asrwt>0</asrwt>
<pdfrwt beam="1">  1        1 0.28675960E-01 0.27547937E+03</pdfrwt>
<pdfrwt beam="2">  1       -1 0.15659341E-01 0.27547937E+03</pdfrwt>
<totfact> 0.47812642E+03</totfact>
</mgrwt>
</event>
<event>
 9    1  0.2073852E-002  0.2717067E+03  0.7818608E-02  0.1100307E+00
          1   -1    0    0  501    0  0.00000000000E+00  0.00000000000E+00  0.23218972337E+03  0.23218972337E+03  0.00000000000E+00 0. -1.
         -1   -1    0    0    0  501 -0.00000000000E+00 -0.00000000000E+00 -0.79487313312E+02  0.79487313312E+02  0.00000000000E+00 0. -1.
         36    2    1    2    0    0 -0.71054273576E-14 -0.35527136788E-14  0.15270241006E+03  0.31167703669E+03  0.27170673374E+03 0.  0.
         25    2    3    3    0    0  0.48914850776E+02 -0.26547927577E+00  0.10394695997E+03  0.17069631411E+03  0.12625184378E+03 0.  0.
         25    2    3    3    0    0 -0.48914850776E+02  0.26547927577E+00  0.48755450094E+02  0.14098072258E+03  0.12290539906E+03 0.  0.
          5    1    4    4  502    0 -0.12947483390E+02 -0.17777834356E+02  0.10382347224E+03  0.10623131416E+03  0.47000000000E+01 0. -1.
         -5    1    4    4    0  502  0.61862334166E+02  0.17512355080E+02  0.12348772776E+00  0.64464999947E+02  0.47000000000E+01 0. -1.
          5    1    5    5  503    0  0.25513227188E+02 -0.29653398121E+02  0.46017456863E+02  0.60580071952E+02  0.47000000000E+01 0.  1.
         -5    1    5    5    0  503 -0.74428077964E+02  0.29918877396E+02  0.27379932316E+01  0.80400650626E+02  0.47000000000E+01 0.  1.
<mgrwt>
<rscale>  0 0.27170673E+03</rscale>
<asrwt>0</asrwt>
<pdfrwt beam="1">  1        1 0.35721496E-01 0.27170673E+03</pdfrwt>
<pdfrwt beam="2">  1       -1 0.12228817E-01 0.27170673E+03</pdfrwt>
<totfact> 0.53528874E+03</totfact>
</mgrwt>
</event>
<event>
 9    1  0.2073852E-002  0.2761253E+03  0.7818608E-02  0.1097824E+00
          2   -1    0    0  501    0  0.00000000000E+00  0.00000000000E+00  0.11960644665E+04  0.11960644665E+04  0.00000000000E+00 0. -1.
         -2   -1    0    0    0  501 -0.00000000000E+00 -0.00000000000E+00 -0.15936674527E+02  0.15936674527E+02  0.00000000000E+00 0. -1.
         36    2    1    2    0    0 -0.35527136788E-14  0.35527136788E-14  0.11801277919E+04  0.12120011410E+04  0.27612526227E+03 0.  0.
         25    2    3    3    0    0 -0.11234656702E+02  0.91235983245E+01  0.80886433766E+03  0.82076142054E+03  0.13848586622E+03 0.  0.
         25    2    3    3    0    0  0.11234656702E+02 -0.91235983245E+01  0.37126345428E+03  0.39123972046E+03  0.12256634458E+03 0.  0.
          5    1    4    4  502    0  0.30322685529E+02  0.21634875744E+02  0.61029004608E+02  0.71653070483E+02  0.47000000000E+01 0. -1.
         -5    1    4    4    0  502 -0.41557342231E+02 -0.12511277420E+02  0.74783533305E+03  0.74910835005E+03  0.47000000000E+01 0. -1.
          5    1    5    5  503    0 -0.19666571741E+02  0.31292950818E+02  0.30646378795E+03  0.30872020689E+03  0.47000000000E+01 0.  1.
         -5    1    5    5    0  503  0.30901228443E+02 -0.40416549142E+02  0.64799666323E+02  0.82519513567E+02  0.47000000000E+01 0.  1.
<mgrwt>
<rscale>  0 0.27612526E+03</rscale>
<asrwt>0</asrwt>
<pdfrwt beam="1">  1        2 0.18400985E+00 0.27612526E+03</pdfrwt>
<pdfrwt beam="2">  1       -2 0.24517970E-02 0.27612526E+03</pdfrwt>
<totfact> 0.11475516E+04</totfact>
</mgrwt>
</event>
<event>
 9    1  0.2073852E-002  0.2740059E+03  0.7818608E-02  0.1099009E+00
          1   -1    0    0  501    0  0.00000000000E+00  0.00000000000E+00  0.77830401176E+03  0.77830401176E+03  0.00000000000E+00 0. -1.
         -1   -1    0    0    0  501 -0.00000000000E+00 -0.00000000000E+00 -0.24116293520E+02  0.24116293520E+02  0.00000000000E+00 0. -1.
         36    2    1    2    0    0  0.35527136788E-14  0.00000000000E+00  0.75418771824E+03  0.80242030528E+03  0.27400589771E+03 0.  0.
         25    2    3    3    0    0 -0.79953189644E+01 -0.49259552431E+02  0.28628173810E+03  0.31586056628E+03  0.12377493741E+03 0.  0.
         25    2    3    3    0    0  0.79953189644E+01  0.49259552431E+02  0.46790598013E+03  0.48655973899E+03  0.12374952417E+03 0.  0.
          5    1    4    4  502    0 -0.39940266710E+02 -0.60957495913E+02  0.26629144165E+03  0.27612363736E+03  0.47000000000E+01 0. -1.
         -5    1    4    4    0  502  0.31944947745E+02  0.11697943482E+02  0.19990296458E+02  0.39736928928E+02  0.47000000000E+01 0. -1.
          5    1    5    5  503    0 -0.31024385066E+02 -0.43426229254E+01  0.29968283209E+02  0.43606866903E+02  0.47000000000E+01 0. -1.
         -5    1    5    5    0  503  0.39019704030E+02  0.53602175357E+02  0.43793769693E+03  0.44295287209E+03  0.47000000000E+01 0. -1.
<mgrwt>
<rscale>  0 0.27400590E+03</rscale>
<asrwt>0</asrwt>
<pdfrwt beam="1">  1        1 0.11973906E+00 0.27400590E+03</pdfrwt>
<pdfrwt beam="2">  1       -1 0.37101996E-02 0.27400590E+03</pdfrwt>
<totfact> 0.65993150E+03</totfact>
</mgrwt>
</event>
<event>
 8    1  0.2073852E-002  0.3058933E+03  0.7818608E-02  0.1082331E+00
         -2   -1    0    0    0  501 -0.00000000000E+00  0.00000000000E+00  0.46643112687E+02  0.46643112687E+02  0.00000000000E+00 0.  1.
          2   -1    0    0  501    0  0.00000000000E+00 -0.00000000000E+00 -0.50152488686E+03  0.50152488686E+03  0.00000000000E+00 0.  1.
         25    2    1    2    0    0  0.50204807314E+02 -0.59326837338E+02 -0.30825189482E+03  0.34174363338E+03  0.12541644226E+03 0.  0.
         25    2    1    2    0    0 -0.50204807314E+02  0.59326837338E+02 -0.14662987935E+03  0.20642436617E+03  0.12276196936E+03 0.  0.
          5    1    3    3  502    0  0.85088089417E+02 -0.31821188044E+02 -0.26243858830E+03  0.27775650055E+03  0.47000000000E+01 0. -1.
         -5    1    3    3    0  502 -0.34883282103E+02 -0.27505649293E+02 -0.45813306517E+02  0.63987132827E+02  0.47000000000E+01 0. -1.
          5    1    4    4  503    0  0.29655071560E+02 -0.16521751466E+02 -0.26054454480E+02  0.43050158408E+02  0.47000000000E+01 0. -1.
         -5    1    4    4    0  503 -0.79859878874E+02  0.75848588804E+02 -0.12057542487E+03  0.16337420776E+03  0.47000000000E+01 0. -1.
<mgrwt>
<rscale>  0 0.30589333E+03</rscale>
<asrwt>0</asrwt>
<pdfrwt beam="1">  1        2 0.77157673E-01 0.30589333E+03</pdfrwt>
<pdfrwt beam="2">  1       -2 0.71758637E-02 0.30589333E+03</pdfrwt>
<totfact> 0.69503451E+03</totfact>
</mgrwt>
</event>
<event>
 9    1  0.2073852E-002  0.2745436E+03  0.7818608E-02  0.1098707E+00
          3   -1    0    0  501    0  0.00000000000E+00  0.00000000000E+00  0.20250732963E+02  0.20250732963E+02  0.00000000000E+00 0. -1.
         -3   -1    0    0    0  501 -0.00000000000E+00 -0.00000000000E+00 -0.93051168262E+03  0.93051168262E+03  0.00000000000E+00 0. -1.
         36    2    1    2    0    0 -0.71054273576E-14  0.00000000000E+00 -0.91026094966E+03  0.95076241558E+03  0.27454357471E+03 0.  0.
         25    2    3    3    0    0  0.38115414361E+02 -0.54223302303E+01 -0.58429835996E+03  0.59822312319E+03  0.12240974303E+03 0.  0.
         25    2    3    3    0    0 -0.38115414361E+02  0.54223302303E+01 -0.32596258970E+03  0.35253929240E+03  0.12864741087E+03 0.  0.
          5    1    4    4  502    0 -0.28651377823E+02 -0.10280305181E+02 -0.43633162882E+02  0.53409072533E+02  0.47000000000E+01 0.  1.
         -5    1    4    4    0  502  0.66766792184E+02  0.48579749512E+01 -0.54066519708E+03  0.54481405065E+03  0.47000000000E+01 0.  1.
          5    1    5    5  503    0 -0.26026887564E+02 -0.12282786865E+02 -0.35449812673E+01  0.29375544618E+02  0.47000000000E+01 0.  1.
         -5    1    5    5    0  503 -0.12088526797E+02  0.17705117096E+02 -0.32241760843E+03  0.32316374778E+03  0.47000000000E+01 0.  1.
<mgrwt>
<rscale>  0 0.27454357E+03</rscale>
<asrwt>0</asrwt>
<pdfrwt beam="1">  1        3 0.31154970E-02 0.27454357E+03</pdfrwt>
<pdfrwt beam="2">  1       -3 0.14315566E+00 0.27454357E+03</pdfrwt>
<totfact> 0.46822168E+02</totfact>
</mgrwt>
</event>
<event>
 9    1  0.2073852E-002  0.2741684E+03  0.7818608E-02  0.1098917E+00
         -2   -1    0    0    0  501 -0.00000000000E+00  0.00000000000E+00  0.61541876205E+01  0.61541876205E+01  0.00000000000E+00 0.  1.
          2   -1    0    0  501    0  0.00000000000E+00 -0.00000000000E+00 -0.30535424087E+04  0.30535424087E+04  0.00000000000E+00 0.  1.
         36    2    1    2    0    0  0.35527136788E-14  0.35527136788E-14 -0.30473882211E+04  0.30596965964E+04  0.27416836353E+03 0.  0.
         25    2    3    3    0    0 -0.41660380078E+01 -0.12553012825E+02 -0.19385547812E+04  0.19424929497E+04  0.12291983456E+03 0.  0.
         25    2    3    3    0    0  0.41660380078E+01  0.12553012825E+02 -0.11088334399E+04  0.11172036467E+04  0.13585822291E+03 0.  0.
          5    1    4    4  502    0 -0.34310925802E+02 -0.57579132971E+02 -0.12431370118E+04  0.12449515317E+04  0.47000000000E+01 0. -1.
         -5    1    4    4    0  502  0.30144887794E+02  0.45026120146E+02 -0.69541776942E+03  0.69754141797E+03  0.47000000000E+01 0. -1.
          5    1    5    5  503    0  0.14644762284E+02  0.17868142968E+02 -0.29351705883E+02  0.37647738760E+02  0.47000000000E+01 0.  1.
         -5    1    5    5    0  503 -0.10478724276E+02 -0.53151301431E+01 -0.10794817340E+04  0.10795559079E+04  0.47000000000E+01 0.  1.
<mgrwt>
<rscale>  0 0.27416836E+03</rscale>
<asrwt>0</asrwt>
<pdfrwt beam="1">  1        2 0.46977732E+00 0.27416836E+03</pdfrwt>
<pdfrwt beam="2">  1       -2 0.94679493E-03 0.27416836E+03</pdfrwt>
<totfact> 0.44691957E+03</totfact>
</mgrwt>
</event>
<event>
 9    1  0.2073852E-002  0.2753220E+03  0.7818608E-02  0.1098272E+00
          4   -1    0    0  501    0  0.00000000000E+00  0.00000000000E+00  0.23941526607E+02  0.23941526607E+02  0.00000000000E+00 0. -1.
         -4   -1    0    0    0  501 -0.00000000000E+00 -0.00000000000E+00 -0.79153464740E+03  0.79153464740E+03  0.00000000000E+00 0. -1.
         36    2    1    2    0    0  0.35527136788E-14  0.00000000000E+00 -0.76759312079E+03  0.81547617401E+03  0.27532197748E+03 0.  0.
         25    2    3    3    0    0  0.65136032320E+01  0.55641402860E+02 -0.36381594666E+03  0.38897105295E+03  0.12569027110E+03 0.  0.
         25    2    3    3    0    0 -0.65136032320E+01 -0.55641402860E+02 -0.40377717414E+03  0.42650512106E+03  0.12542814357E+03 0.  0.
          5    1    4    4  502    0  0.47759231448E+02 -0.15793535545E+02 -0.18864649630E+03  0.19529457370E+03  0.47000000000E+01 0.  1.
         -5    1    4    4    0  502 -0.41245628216E+02  0.71434938405E+02 -0.17516945036E+03  0.19367647924E+03  0.47000000000E+01 0.  1.
          5    1    5    5  503    0 -0.38160096782E+02 -0.69101261408E+02 -0.36897168596E+03  0.37735046357E+03  0.47000000000E+01 0. -1.
         -5    1    5    5    0  503  0.31646493550E+02  0.13459858548E+02 -0.34805488179E+02  0.49154657496E+02  0.47000000000E+01 0. -1.
<mgrwt>
<rscale>  0 0.27532198E+03</rscale>
<asrwt>0</asrwt>
<pdfrwt beam="1">  1        4 0.36833123E-02 0.27532198E+03</pdfrwt>
<pdfrwt beam="2">  1       -4 0.12177454E+00 0.27532198E+03</pdfrwt>
<totfact> 0.38958342E+02</totfact>
</mgrwt>
</event>
<event>
 9    1  0.2073852E-002  0.2760068E+03  0.7818608E-02  0.1097890E+00
          2   -1    0    0  501    0  0.00000000000E+00  0.00000000000E+00  0.91511021003E+03  0.91511021003E+03  0.00000000000E+00 0. -1.
         -2   -1    0    0    0  501 -0.00000000000E+00 -0.00000000000E+00 -0.20811637731E+02  0.20811637731E+02  0.00000000000E+00 0. -1.
         36    2    1    2    0    0 -0.14210854715E-13  0.00000000000E+00  0.89429857230E+03  0.93592184776E+03  0.27600682727E+03 0.  0.
         25    2    3    3    0    0  0.45379753551E+02 -0.19766259041E+02  0.53746730765E+03  0.55317764223E+03  0.12117908256E+03 0.  0.
         25    2    3    3    0    0 -0.45379753551E+02  0.19766259041E+02  0.35683126465E+03  0.38274420553E+03  0.12928475704E+03 0.  0.
          5    1    4    4  502    0 -0.53786806641E+01 -0.14028633508E+02  0.45997882824E+03  0.46024813437E+03  0.47000000000E+01 0. -1.
         -5    1    4    4    0  502  0.50758434215E+02 -0.57376255328E+01  0.77488479410E+02  0.92929507865E+02  0.47000000000E+01 0. -1.
          5    1    5    5  503    0 -0.91762019134E+01  0.72945720551E+02  0.20192430006E+03  0.21494369910E+03  0.47000000000E+01 0. -1.
         -5    1    5    5    0  503 -0.36203551637E+02 -0.53179461511E+02  0.15490696459E+03  0.16780050643E+03  0.47000000000E+01 0. -1.
<mgrwt>
<rscale>  0 0.27600683E+03</rscale>
<asrwt>0</asrwt>
<pdfrwt beam="1">  1        2 0.14078616E+00 0.27600683E+03</pdfrwt>
<pdfrwt beam="2">  1       -2 0.32017911E-02 0.27600683E+03</pdfrwt>
<totfact> 0.11381827E+04</totfact>
</mgrwt>
</event>
<event>
 9    1  0.2073852E-002  0.2806014E+03  0.7818608E-02  0.1095361E+00
         -1   -1    0    0    0  501 -0.00000000000E+00  0.00000000000E+00  0.75071003842E+01  0.75071003842E+01  0.00000000000E+00 0. -1.
          1   -1    0    0  501    0  0.00000000000E+00 -0.00000000000E+00 -0.26220894637E+04  0.26220894637E+04  0.00000000000E+00 0. -1.
         36    2    1    2    0    0  0.00000000000E+00  0.71054273576E-14 -0.26145823633E+04  0.26295965641E+04  0.28060141710E+03 0.  0.
         25    2    3    3    0    0  0.59009306755E+02 -0.33162567383E+02 -0.11473114542E+04  0.11563726659E+04  0.12764135359E+03 0.  0.
         25    2    3    3    0    0 -0.59009306755E+02  0.33162567383E+02 -0.14672709091E+04  0.14732238982E+04  0.11367884383E+03 0.  0.
          5    1    4    4  502    0 -0.30372381968E+02  0.22812436544E+02 -0.25965861694E+03  0.26246442845E+03  0.47000000000E+01 0. -1.
         -5    1    4    4    0  502  0.89381688723E+02 -0.55975003928E+02 -0.88765283730E+03  0.89390823741E+03  0.47000000000E+01 0. -1.
          5    1    5    5  503    0 -0.71394334178E+02  0.65591429894E+02 -0.11138003353E+04  0.11180217634E+04  0.47000000000E+01 0. -1.
         -5    1    5    5    0  503  0.12385027423E+02 -0.32428862510E+02 -0.35347057379E+03  0.35520213479E+03  0.47000000000E+01 0. -1.
<mgrwt>
<rscale>  0 0.28060142E+03</rscale>
<asrwt>0</asrwt>
<pdfrwt beam="1">  1        1 0.40339846E+00 0.28060142E+03</pdfrwt>
<pdfrwt beam="2">  1       -1 0.11549383E-02 0.28060142E+03</pdfrwt>
<totfact> 0.20049651E+03</totfact>
</mgrwt>
</event>
<event>
 9    1  0.2073852E-002  0.2746492E+03  0.7818608E-02  0.1098648E+00
         -2   -1    0    0    0  501 -0.00000000000E+00  0.00000000000E+00  0.15511124837E+03  0.15511124837E+03  0.00000000000E+00 0.  1.
          2   -1    0    0  501    0  0.00000000000E+00 -0.00000000000E+00 -0.12157752027E+03  0.12157752027E+03  0.00000000000E+00 0.  1.
         36    2    1    2    0    0  0.71054273576E-14  0.00000000000E+00  0.33533728095E+02  0.27668876864E+03  0.27464916488E+03 0.  0.
         25    2    3    3    0    0  0.36884916086E+02 -0.11532998031E+02  0.56274238363E+02  0.14248149141E+03  0.12506269793E+03 0.  0.
         25    2    3    3    0    0 -0.36884916086E+02  0.11532998031E+02 -0.22740510267E+02  0.13420727722E+03  0.12649488280E+03 0.  0.
          5    1    4    4  502    0 -0.11726967663E+02  0.23870451592E+02 -0.27961696458E+02  0.38875013809E+02  0.47000000000E+01 0. -1.
         -5    1    4    4    0  502  0.48611883749E+02 -0.35403449623E+02  0.84235934821E+02  0.10360647761E+03  0.47000000000E+01 0. -1.
          5    1    5    5  503    0  0.16384966761E+01  0.23052614175E+01  0.50505767960E+02  0.50802770582E+02  0.47000000000E+01 0.  1.
         -5    1    5    5    0  503 -0.38523412762E+02  0.92277366132E+01 -0.73246278227E+02  0.83404506640E+02  0.47000000000E+01 0.  1.
<mgrwt>
<rscale>  0 0.27464916E+03</rscale>
<asrwt>0</asrwt>
<pdfrwt beam="1">  1        2 0.18704234E-01 0.27464916E+03</pdfrwt>
<pdfrwt beam="2">  1       -2 0.23863269E-01 0.27464916E+03</pdfrwt>
<totfact> 0.46043219E+03</totfact>
</mgrwt>
</event>
<event>
 9    1  0.2073852E-002  0.2754496E+03  0.7818608E-02  0.1098201E+00
         -2   -1    0    0    0  501 -0.00000000000E+00  0.00000000000E+00  0.15508588859E+03  0.15508588859E+03  0.00000000000E+00 0.  1.
          2   -1    0    0  501    0  0.00000000000E+00 -0.00000000000E+00 -0.12230723002E+03  0.12230723002E+03  0.00000000000E+00 0.  1.
         36    2    1    2    0    0  0.00000000000E+00  0.00000000000E+00  0.32778658573E+02  0.27739311861E+03  0.27544963568E+03 0.  0.
         25    2    3    3    0    0 -0.18068043168E+02 -0.88933381710E+01  0.66719379878E+02  0.14618832726E+03  0.12850683145E+03 0.  0.
         25    2    3    3    0    0  0.18068043168E+02  0.88933381710E+01 -0.33940721305E+02  0.13120479135E+03  0.12512865005E+03 0.  0.
          5    1    4    4  502    0 -0.10024793922E+02  0.82269938544E+01 -0.37606984524E+02  0.40056899606E+02  0.47000000000E+01 0. -1.
         -5    1    4    4    0  502 -0.80432492453E+01 -0.17120332025E+02  0.10432636440E+03  0.10613142766E+03  0.47000000000E+01 0. -1.
          5    1    5    5  503    0 -0.44724653792E+02  0.35135061141E+02 -0.25359199762E+02  0.62449549164E+02  0.47000000000E+01 0. -1.
         -5    1    5    5    0  503  0.62792696960E+02 -0.26241722970E+02 -0.85815215434E+01  0.68755242185E+02  0.47000000000E+01 0. -1.
<mgrwt>
<rscale>  0 0.27544964E+03</rscale>
<asrwt>0</asrwt>
<pdfrwt beam="1">  1        2 0.18816497E-01 0.27544964E+03</pdfrwt>
<pdfrwt beam="2">  1       -2 0.23859368E-01 0.27544964E+03</pdfrwt>
<totfact> 0.45744016E+03</totfact>
</mgrwt>
</event>
<event>
 9    1  0.2073852E-002  0.2762302E+03  0.7818608E-02  0.1097766E+00
          2   -1    0    0  501    0  0.00000000000E+00  0.00000000000E+00  0.16378542452E+03  0.16378542452E+03  0.00000000000E+00 0.  1.
         -2   -1    0    0    0  501 -0.00000000000E+00 -0.00000000000E+00 -0.11646813887E+03  0.11646813887E+03  0.00000000000E+00 0.  1.
         36    2    1    2    0    0  0.00000000000E+00 -0.71054273576E-14  0.47317285652E+02  0.28025356339E+03  0.27623021969E+03 0.  0.
         25    2    3    3    0    0 -0.35667652602E+02  0.20782437048E+02  0.64756447183E+02  0.14742864269E+03  0.12584798808E+03 0.  0.
         25    2    3    3    0    0  0.35667652602E+02 -0.20782437048E+02 -0.17439161531E+02  0.13282492070E+03  0.12503697082E+03 0.  0.
          5    1    4    4  502    0 -0.39391658550E+02  0.34305565327E+02  0.97939138019E+02  0.11109788176E+03  0.47000000000E+01 0.  1.
         -5    1    4    4    0  502  0.37240059476E+01 -0.13523128279E+02 -0.33182690837E+02  0.36330760932E+02  0.47000000000E+01 0.  1.
          5    1    5    5  503    0 -0.43363396070E+02 -0.16725187799E+02 -0.25363005525E+02  0.53155320288E+02  0.47000000000E+01 0.  1.
         -5    1    5    5    0  503  0.79031048673E+02 -0.40572492493E+01  0.79238439944E+01  0.79669600409E+02  0.47000000000E+01 0.  1.
<mgrwt>
<rscale>  0 0.27623022E+03</rscale>
<asrwt>0</asrwt>
<pdfrwt beam="1">  1        2 0.25197758E-01 0.27623022E+03</pdfrwt>
<pdfrwt beam="2">  1       -2 0.17918175E-01 0.27623022E+03</pdfrwt>
<totfact> 0.53732836E+03</totfact>
</mgrwt>
</event>
<event>
 9    1  0.2073852E-002  0.2751811E+03  0.7818608E-02  0.1098350E+00
         -2   -1    0    0    0  501 -0.00000000000E+00  0.00000000000E+00  0.34676345970E+02  0.34676345970E+02  0.00000000000E+00 0. -1.
          2   -1    0    0  501    0  0.00000000000E+00 -0.00000000000E+00 -0.54593860757E+03  0.54593860757E+03  0.00000000000E+00 0. -1.
         36    2    1    2    0    0  0.00000000000E+00  0.00000000000E+00 -0.51126226160E+03  0.58061495354E+03  0.27518107518E+03 0.  0.
         25    2    3    3    0    0 -0.24266486366E+01  0.31582075059E+02 -0.19460970561E+03  0.23755663454E+03  0.13250245662E+03 0.  0.
         25    2    3    3    0    0  0.24266486366E+01 -0.31582075059E+02 -0.31665255599E+03  0.34305831899E+03  0.12812826749E+03 0.  0.
          5    1    4    4  502    0  0.53014212981E+02  0.54170527490E+01 -0.28891876382E+02  0.60800343415E+02  0.47000000000E+01 0. -1.
         -5    1    4    4    0  502 -0.55440861617E+02  0.26165022310E+02 -0.16571782923E+03  0.17675629113E+03  0.47000000000E+01 0. -1.
          5    1    5    5  503    0 -0.34622768459E+02  0.37276558679E+02 -0.93388405462E+02  0.10645075010E+03  0.47000000000E+01 0.  1.
         -5    1    5    5    0  503  0.37049417096E+02 -0.68858633739E+02 -0.22326415052E+03  0.23660756889E+03  0.47000000000E+01 0.  1.
<mgrwt>
<rscale>  0 0.27518108E+03</rscale>
<asrwt>0</asrwt>
<pdfrwt beam="1">  1        2 0.83990551E-01 0.27518108E+03</pdfrwt>
<pdfrwt beam="2">  1       -2 0.53348227E-02 0.27518108E+03</pdfrwt>
<totfact> 0.99320904E+03</totfact>
</mgrwt>
</event>
<event>
 9    1  0.2073852E-002  0.2753446E+03  0.7818608E-02  0.1098259E+00
          1   -1    0    0  501    0  0.00000000000E+00  0.00000000000E+00  0.22990568531E+03  0.22990568531E+03  0.00000000000E+00 0.  1.
         -1   -1    0    0    0  501 -0.00000000000E+00 -0.00000000000E+00 -0.82441012495E+02  0.82441012495E+02  0.00000000000E+00 0.  1.
         36    2    1    2    0    0  0.00000000000E+00  0.00000000000E+00  0.14746467282E+03  0.31234669781E+03  0.27534456578E+03 0.  0.
         25    2    3    3    0    0 -0.20027574446E+02  0.42066619022E+02  0.25037112905E+02  0.13571355222E+03  0.12498242701E+03 0.  0.
         25    2    3    3    0    0  0.20027574446E+02 -0.42066619022E+02  0.12242755991E+03  0.17663314558E+03  0.11849074444E+03 0.  0.
          5    1    4    4  502    0 -0.65234556712E+02  0.12167833813E+02  0.42063256697E+02  0.78708393028E+02  0.47000000000E+01 0.  1.
         -5    1    4    4    0  502  0.45206982266E+02  0.29898785209E+02 -0.17026143792E+02  0.57005159196E+02  0.47000000000E+01 0.  1.
          5    1    5    5  503    0 -0.10114297373E+02 -0.39574315806E+02  0.13678098844E+03  0.14282700823E+03  0.47000000000E+01 0. -1.
         -5    1    5    5    0  503  0.30141871818E+02 -0.24923032160E+01 -0.14353428526E+02  0.33806137350E+02  0.47000000000E+01 0. -1.
<mgrwt>
<rscale>  0 0.27534457E+03</rscale>
<asrwt>0</asrwt>
<pdfrwt beam="1">  1        1 0.35370105E-01 0.27534457E+03</pdfrwt>
<pdfrwt beam="2">  1       -1 0.12683233E-01 0.27534457E+03</pdfrwt>
<totfact> 0.51210869E+03</totfact>
</mgrwt>
</event>
<event>
 9    1  0.2073852E-002  0.2737395E+03  0.7818608E-02  0.1099158E+00
         -2   -1    0    0    0  501 -0.00000000000E+00  0.00000000000E+00  0.62867126836E+02  0.62867126836E+02  0.00000000000E+00 0. -1.
          2   -1    0    0  501    0  0.00000000000E+00 -0.00000000000E+00 -0.29798295001E+03  0.29798295001E+03  0.00000000000E+00 0. -1.
         36    2    1    2    0    0  0.00000000000E+00  0.00000000000E+00 -0.23511582318E+03  0.36085007685E+03  0.27373952520E+03 0.  0.
         25    2    3    3    0    0 -0.36498479750E+02  0.37426771673E+02 -0.10093314653E+03  0.17085827778E+03  0.12756233282E+03 0.  0.
         25    2    3    3    0    0  0.36498479750E+02 -0.37426771673E+02 -0.13418267665E+03  0.18999179907E+03  0.12393139530E+03 0.  0.
          5    1    4    4  502    0 -0.46386295505E+02  0.40985022455E+02 -0.12755258155E+03  0.14185630595E+03  0.47000000000E+01 0. -1.
         -5    1    4    4    0  502  0.98878157552E+01 -0.35582507820E+01  0.26619435023E+02  0.29001971829E+02  0.47000000000E+01 0. -1.
          5    1    5    5  503    0  0.59664387311E+02 -0.69601691175E+02 -0.11017634522E+03  0.14340554931E+03  0.47000000000E+01 0. -1.
         -5    1    5    5    0  503 -0.23165907561E+02  0.32174919502E+02 -0.24006331431E+02  0.46586249762E+02  0.47000000000E+01 0. -1.
<mgrwt>
<rscale>  0 0.27373953E+03</rscale>
<asrwt>0</asrwt>
<pdfrwt beam="1">  1        2 0.45843530E-01 0.27373953E+03</pdfrwt>
<pdfrwt beam="2">  1       -2 0.96718657E-02 0.27373953E+03</pdfrwt>
<totfact> 0.76494797E+03</totfact>
</mgrwt>
</event>
<event>
 9    1  0.2073852E-002  0.2766762E+03  0.7818608E-02  0.1097518E+00
          1   -1    0    0  501    0  0.00000000000E+00  0.00000000000E+00  0.97291515910E+01  0.97291515910E+01  0.00000000000E+00 0.  1.
         -1   -1    0    0    0  501 -0.00000000000E+00 -0.00000000000E+00 -0.19670190984E+04  0.19670190984E+04  0.00000000000E+00 0.  1.
         36    2    1    2    0    0  0.00000000000E+00 -0.71054273576E-14 -0.19572899468E+04  0.19767482500E+04  0.27667617889E+03 0.  0.
         25    2    3    3    0    0 -0.49147969295E+02 -0.21773338755E+02 -0.85175607966E+03  0.86286836688E+03  0.12713692674E+03 0.  0.
         25    2    3    3    0    0  0.49147969295E+02  0.21773338755E+02 -0.11055338672E+04  0.11138798832E+04  0.12503464097E+03 0.  0.
          5    1    4    4  502    0 -0.17291207516E+02 -0.74293024242E+02 -0.46793939637E+03  0.47413901758E+03  0.47000000000E+01 0. -1.
         -5    1    4    4    0  502 -0.31856761779E+02  0.52519685488E+02 -0.38381668329E+03  0.38872934930E+03  0.47000000000E+01 0. -1.
          5    1    5    5  503    0  0.16499084648E+02 -0.43454422233E+02 -0.19927361617E+03  0.20467674686E+03  0.47000000000E+01 0.  1.
         -5    1    5    5    0  503  0.32648884648E+02  0.65227760988E+02 -0.90626025102E+03  0.90920313629E+03  0.47000000000E+01 0.  1.
<mgrwt>
<rscale>  0 0.27667618E+03</rscale>
<asrwt>0</asrwt>
<pdfrwt beam="1">  1        1 0.14967937E-02 0.27667618E+03</pdfrwt>
<pdfrwt beam="2">  1       -1 0.30261809E+00 0.27667618E+03</pdfrwt>
<totfact> 0.33941168E+02</totfact>
</mgrwt>
</event>
<event>
 9    1  0.2073852E-002  0.2737166E+03  0.7818608E-02  0.1099171E+00
          1   -1    0    0  501    0  0.00000000000E+00  0.00000000000E+00  0.14431797973E+04  0.14431797973E+04  0.00000000000E+00 0. -1.
         -1   -1    0    0    0  501 -0.00000000000E+00 -0.00000000000E+00 -0.12978419738E+02  0.12978419738E+02  0.00000000000E+00 0. -1.
         36    2    1    2    0    0  0.00000000000E+00  0.00000000000E+00  0.14302013775E+04  0.14561582170E+04  0.27371659187E+03 0.  0.
         25    2    3    3    0    0  0.15056728022E+02 -0.36763306426E+02  0.52337737997E+03  0.54001939295E+03  0.12695990369E+03 0.  0.
         25    2    3    3    0    0 -0.15056728022E+02  0.36763306426E+02  0.90682399757E+03  0.91613882406E+03  0.12410615064E+03 0.  0.
          5    1    4    4  502    0 -0.27366454463E+02 -0.44162081362E+02  0.46176584990E+03  0.46470313362E+03  0.47000000000E+01 0. -1.
         -5    1    4    4    0  502  0.42423182485E+02  0.73987749357E+01  0.61611530063E+02  0.75316259330E+02  0.47000000000E+01 0. -1.
          5    1    5    5  503    0 -0.59115581598E+02  0.25687996024E+02  0.26791393226E+03  0.27559842203E+03  0.47000000000E+01 0.  1.
         -5    1    5    5    0  503  0.44058853576E+02  0.11075310402E+02  0.63891006531E+03  0.64054040203E+03  0.47000000000E+01 0.  1.
<mgrwt>
<rscale>  0 0.27371659E+03</rscale>
<asrwt>0</asrwt>
<pdfrwt beam="1">  1        1 0.22202753E+00 0.27371659E+03</pdfrwt>
<pdfrwt beam="2">  1       -1 0.19966811E-02 0.27371659E+03</pdfrwt>
<totfact> 0.53664261E+03</totfact>
</mgrwt>
</event>
<event>
 9    1  0.2073852E-002  0.2748095E+03  0.7818608E-02  0.1098558E+00
          2   -1    0    0  501    0  0.00000000000E+00  0.00000000000E+00  0.31077067127E+04  0.31077067127E+04  0.00000000000E+00 0.  1.
         -2   -1    0    0    0  501 -0.00000000000E+00 -0.00000000000E+00 -0.60752414216E+01  0.60752414216E+01  0.00000000000E+00 0.  1.
         36    2    1    2    0    0  0.00000000000E+00  0.71054273576E-14  0.31016314713E+04  0.31137819542E+04  0.27480952347E+03 0.  0.
         25    2    3    3    0    0 -0.18393659338E+02 -0.48196157205E+02  0.98140289540E+03  0.98914683428E+03  0.11224357618E+03 0.  0.
         25    2    3    3    0    0  0.18393659338E+02  0.48196157205E+02  0.21202285759E+04  0.21246351199E+04  0.12666484208E+03 0.  0.
          5    1    4    4  502    0  0.12772784335E+02  0.28387774847E+02  0.13138416473E+03  0.13510328835E+03  0.47000000000E+01 0.  1.
         -5    1    4    4    0  502 -0.31166443673E+02 -0.76583932052E+02  0.85001873067E+03  0.85404354593E+03  0.47000000000E+01 0.  1.
          5    1    5    5  503    0 -0.20139871000E+02 -0.36365512635E+02  0.50562269462E+03  0.50735043532E+03  0.47000000000E+01 0.  1.
         -5    1    5    5    0  503  0.38533530339E+02  0.84561669841E+02  0.16146058813E+04  0.16172846845E+04  0.47000000000E+01 0.  1.
<mgrwt>
<rscale>  0 0.27480952E+03</rscale>
<asrwt>0</asrwt>
<pdfrwt beam="1">  1        2 0.47810746E+00 0.27480952E+03</pdfrwt>
<pdfrwt beam="2">  1       -2 0.93465501E-03 0.27480952E+03</pdfrwt>
<totfact> 0.42240695E+03</totfact>
</mgrwt>
</event>
<event>
 8    1  0.2073852E-002  0.2937835E+03  0.7818608E-02  0.1088390E+00
         -1   -1    0    0    0  501 -0.00000000000E+00  0.00000000000E+00  0.11822542279E+02  0.11822542279E+02  0.00000000000E+00 0. -1.
          1   -1    0    0  501    0  0.00000000000E+00 -0.00000000000E+00 -0.18250886718E+04  0.18250886718E+04  0.00000000000E+00 0. -1.
         25    2    1    2    0    0  0.99634837972E+01 -0.78940205927E+02 -0.90361188802E+03  0.91532712400E+03  0.12238657050E+03 0.  0.
         25    2    1    2    0    0 -0.99634837972E+01  0.78940205927E+02 -0.90965424152E+03  0.92158409010E+03  0.12456150642E+03 0.  0.
          5    1    3    3  502    0  0.61916286968E+02 -0.68572141435E+02 -0.60071034839E+03  0.60779172242E+03  0.47000000000E+01 0. -1.
         -5    1    3    3    0  502 -0.51952803171E+02 -0.10368064492E+02 -0.30290153962E+03  0.30753540158E+03  0.47000000000E+01 0. -1.
          5    1    4    4  503    0 -0.93408082515E+00  0.39293199934E+02 -0.66163656246E+02  0.77100891538E+02  0.47000000000E+01 0.  1.
         -5    1    4    4    0  503 -0.90294029721E+01  0.39647005993E+02 -0.84349058528E+03  0.84448319856E+03  0.47000000000E+01 0.  1.
<mgrwt>
<rscale>  0 0.29378351E+03</rscale>
<asrwt>0</asrwt>
<pdfrwt beam="1">  1        1 0.28078292E+00 0.29378351E+03</pdfrwt>
<pdfrwt beam="2">  1       -1 0.18188523E-02 0.29378351E+03</pdfrwt>
<totfact> 0.34525422E+03</totfact>
</mgrwt>
</event>
<event>
 9    1  0.2073852E-002  0.2710451E+03  0.7818608E-02  0.1100683E+00
          4   -1    0    0  501    0  0.00000000000E+00  0.00000000000E+00  0.42712050504E+02  0.42712050504E+02  0.00000000000E+00 0. -1.
         -4   -1    0    0    0  501 -0.00000000000E+00 -0.00000000000E+00 -0.43000424673E+03  0.43000424673E+03  0.00000000000E+00 0. -1.
         36    2    1    2    0    0 -0.35527136788E-14  0.00000000000E+00 -0.38729219622E+03  0.47271629723E+03  0.27104511140E+03 0.  0.
         25    2    3    3    0    0 -0.27046494035E+02 -0.48146540488E+02 -0.16573813516E+03  0.21320761395E+03  0.12222419972E+03 0.  0.
         25    2    3    3    0    0  0.27046494035E+02  0.48146540488E+02 -0.22155406106E+03  0.25950868328E+03  0.12332458200E+03 0.  0.
          5    1    4    4  502    0  0.28383492156E+01 -0.83987315914E+02 -0.12709394100E+03  0.15243649596E+03  0.47000000000E+01 0. -1.
         -5    1    4    4    0  502 -0.29884843250E+02  0.35840775427E+02 -0.38644194160E+02  0.60771117989E+02  0.47000000000E+01 0. -1.
          5    1    5    5  503    0 -0.80459660780E+01  0.77517752511E+02 -0.18483491222E+03  0.20064838475E+03  0.47000000000E+01 0. -1.
         -5    1    5    5    0  503  0.35092460113E+02 -0.29371212024E+02 -0.36719148838E+02  0.58860298537E+02  0.47000000000E+01 0. -1.
<mgrwt>
<rscale>  0 0.27104511E+03</rscale>
<asrwt>0</asrwt>
<pdfrwt beam="1">  1        4 0.65710846E-02 0.27104511E+03</pdfrwt>
<pdfrwt beam="2">  1       -4 0.66154500E-01 0.27104511E+03</pdfrwt>
<totfact> 0.61612599E+02</totfact>
</mgrwt>
</event>
<event>
 9    1  0.2073852E-002  0.2749217E+03  0.7818608E-02  0.1098495E+00
         -1   -1    0    0    0  501 -0.00000000000E+00  0.00000000000E+00  0.59433119033E+02  0.59433119033E+02  0.00000000000E+00 0.  1.
          1   -1    0    0  501    0  0.00000000000E+00 -0.00000000000E+00 -0.31792857473E+03  0.31792857473E+03  0.00000000000E+00 0.  1.
         36    2    1    2    0    0 -0.71054273576E-14  0.00000000000E+00 -0.25849545570E+03  0.37736169377E+03  0.27492171123E+03 0.  0.
         25    2    3    3    0    0 -0.31915631559E+02  0.41249698413E+02 -0.97866624713E+02  0.16653925613E+03  0.12424694139E+03 0.  0.
         25    2    3    3    0    0  0.31915631559E+02 -0.41249698413E+02 -0.16062883099E+03  0.21082243764E+03  0.12619165467E+03 0.  0.
          5    1    4    4  502    0 -0.46193084623E+02  0.38471509418E+02 -0.12307837762E+03  0.13705559143E+03  0.47000000000E+01 0.  1.
         -5    1    4    4    0  502  0.14277453064E+02  0.27781889951E+01  0.25211752905E+02  0.29483664708E+02  0.47000000000E+01 0.  1.
          5    1    5    5  503    0 -0.35434712876E+02  0.19342700175E+02 -0.25212487559E+02  0.47828009112E+02  0.47000000000E+01 0.  1.
         -5    1    5    5    0  503  0.67350344435E+02 -0.60592398588E+02 -0.13541634343E+03  0.16299442852E+03  0.47000000000E+01 0.  1.
<mgrwt>
<rscale>  0 0.27492171E+03</rscale>
<asrwt>0</asrwt>
<pdfrwt beam="1">  1        1 0.48912088E-01 0.27492171E+03</pdfrwt>
<pdfrwt beam="2">  1       -1 0.91435569E-02 0.27492171E+03</pdfrwt>
<totfact> 0.56635709E+03</totfact>
</mgrwt>
</event>
<event>
 9    1  0.2073852E-002  0.2760034E+03  0.7818608E-02  0.1097892E+00
         -1   -1    0    0    0  501 -0.00000000000E+00  0.00000000000E+00  0.96505239085E+02  0.96505239085E+02  0.00000000000E+00 0.  1.
          1   -1    0    0  501    0  0.00000000000E+00 -0.00000000000E+00 -0.19734123611E+03  0.19734123611E+03  0.00000000000E+00 0.  1.
         36    2    1    2    0    0 -0.71054273576E-14  0.00000000000E+00 -0.10083599702E+03  0.29384647519E+03  0.27600335630E+03 0.  0.
         25    2    3    3    0    0 -0.45152385573E+02 -0.32826061374E+02 -0.33362920978E+02  0.14149301909E+03  0.12566185470E+03 0.  0.
         25    2    3    3    0    0  0.45152385573E+02  0.32826061374E+02 -0.67473076044E+02  0.15235345610E+03  0.12467025053E+03 0.  0.
          5    1    4    4  502    0 -0.54335052213E+02 -0.46089356217E+02 -0.70740225767E+02  0.10051266685E+03  0.47000000000E+01 0. -1.
         -5    1    4    4    0  502  0.91826666397E+01  0.13263294843E+02  0.37377304789E+02  0.40980352244E+02  0.47000000000E+01 0. -1.
          5    1    5    5  503    0  0.74138524137E+02  0.60299431296E+02 -0.54429053863E+02  0.11007794548E+03  0.47000000000E+01 0.  1.
         -5    1    5    5    0  503 -0.28986138564E+02 -0.27473369922E+02 -0.13044022181E+02  0.42275510623E+02  0.47000000000E+01 0.  1.
<mgrwt>
<rscale>  0 0.27600336E+03</rscale>
<asrwt>0</asrwt>
<pdfrwt beam="1">  1        1 0.30360190E-01 0.27600336E+03</pdfrwt>
<pdfrwt beam="2">  1       -1 0.14846960E-01 0.27600336E+03</pdfrwt>
<totfact> 0.48420540E+03</totfact>
</mgrwt>
</event>
<event>
 9    1  0.2073852E-002  0.2749155E+03  0.7818608E-02  0.1098499E+00
          1   -1    0    0  501    0  0.00000000000E+00  0.00000000000E+00  0.17941221915E+04  0.17941221915E+04  0.00000000000E+00 0. -1.
         -1   -1    0    0    0  501 -0.00000000000E+00 -0.00000000000E+00 -0.10531404589E+02  0.10531404589E+02  0.00000000000E+00 0. -1.
         36    2    1    2    0    0 -0.71054273576E-14  0.00000000000E+00  0.17835907869E+04  0.18046535961E+04  0.27491545377E+03 0.  0.
         25    2    3    3    0    0 -0.15144919919E+02  0.38193813105E+02  0.58030796110E+03  0.59425740333E+03  0.12122869189E+03 0.  0.
         25    2    3    3    0    0  0.15144919919E+02 -0.38193813105E+02  0.12032828258E+04  0.12103961928E+04  0.12442366573E+03 0.  0.
          5    1    4    4  502    0 -0.11314434208E+02  0.41603216524E+02  0.60694020214E+02  0.74596904335E+02  0.47000000000E+01 0. -1.
         -5    1    4    4    0  502 -0.38304857111E+01 -0.34094034190E+01  0.51961394088E+03  0.51966049899E+03  0.47000000000E+01 0. -1.
          5    1    5    5  503    0  0.65244728902E+02 -0.26449739695E+02  0.46675494492E+03  0.47205797524E+03  0.47000000000E+01 0.  1.
         -5    1    5    5    0  503 -0.50099808983E+02 -0.11744073410E+02  0.73652788091E+03  0.73833821754E+03  0.47000000000E+01 0.  1.
<mgrwt>
<rscale>  0 0.27491545E+03</rscale>
<asrwt>0</asrwt>
<pdfrwt beam="1">  1        1 0.27601856E+00 0.27491545E+03</pdfrwt>
<pdfrwt beam="2">  1       -1 0.16202175E-02 0.27491545E+03</pdfrwt>
<totfact> 0.42819175E+03</totfact>
</mgrwt>
</event>
<event>
 9    1  0.2073852E-002  0.2757526E+03  0.7818608E-02  0.1098032E+00
         -2   -1    0    0    0  501 -0.00000000000E+00  0.00000000000E+00  0.99667862465E+01  0.99667862465E+01  0.00000000000E+00 0. -1.
          2   -1    0    0  501    0  0.00000000000E+00 -0.00000000000E+00 -0.19073219371E+04  0.19073219371E+04  0.00000000000E+00 0. -1.
         36    2    1    2    0    0  0.71054273576E-14  0.00000000000E+00 -0.18973551508E+04  0.19172887233E+04  0.27575257061E+03 0.  0.
         25    2    3    3    0    0 -0.57555503376E+02  0.34372449385E+02 -0.11871495543E+04  0.11956737772E+04  0.12576810355E+03 0.  0.
         25    2    3    3    0    0  0.57555503376E+02 -0.34372449385E+02 -0.71020559650E+03  0.72161494614E+03  0.10882113736E+03 0.  0.
          5    1    4    4  502    0 -0.22644628845E+02  0.21069051772E+02 -0.58026543027E+02  0.65923090445E+02  0.47000000000E+01 0. -1.
         -5    1    4    4    0  502 -0.34910874530E+02  0.13303397612E+02 -0.11291230113E+04  0.11297506867E+04  0.47000000000E+01 0. -1.
          5    1    5    5  503    0  0.40425828227E+02 -0.68683868409E+02 -0.33303646261E+03  0.34247203798E+03  0.47000000000E+01 0.  1.
         -5    1    5    5    0  503  0.17129675149E+02  0.34311419025E+02 -0.37716913389E+03  0.37914290816E+03  0.47000000000E+01 0.  1.
<mgrwt>
<rscale>  0 0.27575257E+03</rscale>
<asrwt>0</asrwt>
<pdfrwt beam="1">  1        2 0.29343369E+00 0.27575257E+03</pdfrwt>
<pdfrwt beam="2">  1       -2 0.15333541E-02 0.27575257E+03</pdfrwt>
<totfact> 0.94956833E+03</totfact>
</mgrwt>
</event>
<event>
 9    1  0.2073852E-002  0.2756474E+03  0.7818608E-02  0.1098090E+00
         -1   -1    0    0    0  501 -0.00000000000E+00  0.00000000000E+00  0.10287302368E+02  0.10287302368E+02  0.00000000000E+00 0. -1.
          1   -1    0    0  501    0  0.00000000000E+00 -0.00000000000E+00 -0.18464865852E+04  0.18464865852E+04  0.00000000000E+00 0. -1.
         36    2    1    2    0    0  0.35527136788E-14  0.71054273576E-14 -0.18361992828E+04  0.18567738875E+04  0.27564735312E+03 0.  0.
         25    2    3    3    0    0 -0.21678404505E+02  0.53790762319E+02 -0.10213449543E+04  0.10304929041E+04  0.12412377009E+03 0.  0.
         25    2    3    3    0    0  0.21678404505E+02 -0.53790762319E+02 -0.81485432849E+03  0.82628098348E+03  0.12405356768E+03 0.  0.
          5    1    4    4  502    0 -0.69537941966E+02  0.54212616526E+02 -0.61329060545E+03  0.61961438807E+03  0.47000000000E+01 0. -1.
         -5    1    4    4    0  502  0.47859537460E+02 -0.42185420707E+00 -0.40805434886E+03  0.41087851600E+03  0.47000000000E+01 0. -1.
          5    1    5    5  503    0  0.82628063038E+01 -0.82345852310E+02 -0.74368422056E+03  0.74828966535E+03  0.47000000000E+01 0.  1.
         -5    1    5    5    0  503  0.13415598202E+02  0.28555089991E+02 -0.71170107933E+02  0.77991318124E+02  0.47000000000E+01 0.  1.
<mgrwt>
<rscale>  0 0.27564735E+03</rscale>
<asrwt>0</asrwt>
<pdfrwt beam="1">  1        1 0.28407506E+00 0.27564735E+03</pdfrwt>
<pdfrwt beam="2">  1       -1 0.15826608E-02 0.27564735E+03</pdfrwt>
<totfact> 0.40968431E+03</totfact>
</mgrwt>
</event>
<event>
 9    1  0.2073852E-002  0.2758574E+03  0.7818608E-02  0.1097973E+00
          2   -1    0    0  501    0  0.00000000000E+00  0.00000000000E+00  0.10235562258E+04  0.10235562258E+04  0.00000000000E+00 0. -1.
         -2   -1    0    0    0  501 -0.00000000000E+00 -0.00000000000E+00 -0.18586503801E+02  0.18586503801E+02  0.00000000000E+00 0. -1.
         36    2    1    2    0    0  0.00000000000E+00 -0.17763568394E-14  0.10049697220E+04  0.10421427296E+04  0.27585743914E+03 0.  0.
         25    2    3    3    0    0  0.20827464785E+02  0.95946072091E+01  0.28958327173E+03  0.31532050703E+03  0.12264873057E+03 0.  0.
         25    2    3    3    0    0 -0.20827464785E+02 -0.95946072091E+01  0.71538645027E+03  0.72682222257E+03  0.12636031901E+03 0.  0.
          5    1    4    4  502    0 -0.28721819124E+02  0.57442318130E+01  0.99848646538E+01  0.31300584900E+02  0.47000000000E+01 0. -1.
         -5    1    4    4    0  502  0.49549283909E+02  0.38503753961E+01  0.27959840708E+03  0.28401992213E+03  0.47000000000E+01 0. -1.
          5    1    5    5  503    0 -0.14426435337E+02 -0.58220620686E+02  0.57304403285E+03  0.57619381834E+03  0.47000000000E+01 0. -1.
         -5    1    5    5    0  503 -0.64010294478E+01  0.48626013477E+02  0.14234241742E+03  0.15062840424E+03  0.47000000000E+01 0. -1.
<mgrwt>
<rscale>  0 0.27585744E+03</rscale>
<asrwt>0</asrwt>
<pdfrwt beam="1">  1        2 0.15747014E+00 0.27585744E+03</pdfrwt>
<pdfrwt beam="2">  1       -2 0.28594629E-02 0.27585744E+03</pdfrwt>
<totfact> 0.11530022E+04</totfact>
</mgrwt>
</event>
<event>
 9    1  0.2073852E-002  0.2745636E+03  0.7818608E-02  0.1098696E+00
          2   -1    0    0  501    0  0.00000000000E+00  0.00000000000E+00  0.84686177689E+03  0.84686177689E+03  0.00000000000E+00 0.  1.
         -2   -1    0    0    0  501 -0.00000000000E+00 -0.00000000000E+00 -0.22254269304E+02  0.22254269304E+02  0.00000000000E+00 0.  1.
         36    2    1    2    0    0  0.00000000000E+00  0.35527136788E-14  0.82460750759E+03  0.86911604620E+03  0.27456358132E+03 0.  0.
         25    2    3    3    0    0 -0.49375905526E+02  0.16414172195E+02  0.49470704932E+03  0.51256217175E+03  0.12360222560E+03 0.  0.
         25    2    3    3    0    0  0.49375905526E+02 -0.16414172195E+02  0.32990045827E+03  0.35655387444E+03  0.12485570839E+03 0.  0.
          5    1    4    4  502    0 -0.90169893268E+02  0.40322345898E+01  0.36111702567E+03  0.37225591305E+03  0.47000000000E+01 0. -1.
         -5    1    4    4    0  502  0.40793987742E+02  0.12381937605E+02  0.13359002364E+03  0.14030625870E+03  0.47000000000E+01 0. -1.
          5    1    5    5  503    0  0.49796661700E+02 -0.15976028473E+02  0.34071989698E+03  0.34474204733E+03  0.47000000000E+01 0. -1.
         -5    1    5    5    0  503 -0.42075617405E+00 -0.43814372115E+00 -0.10819438709E+02  0.11811827109E+02  0.47000000000E+01 0. -1.
<mgrwt>
<rscale>  0 0.27456358E+03</rscale>
<asrwt>0</asrwt>
<pdfrwt beam="1">  1        2 0.13028640E+00 0.27456358E+03</pdfrwt>
<pdfrwt beam="2">  1       -2 0.34237344E-02 0.27456358E+03</pdfrwt>
<totfact> 0.11410063E+04</totfact>
</mgrwt>
</event>
<event>
 9    1  0.2073852E-002  0.2755202E+03  0.7818608E-02  0.1098161E+00
          2   -1    0    0  501    0  0.00000000000E+00  0.00000000000E+00  0.30299371337E+04  0.30299371337E+04  0.00000000000E+00 0.  1.
         -2   -1    0    0    0  501 -0.00000000000E+00 -0.00000000000E+00 -0.62634448840E+01  0.62634448840E+01  0.00000000000E+00 0.  1.
         36    2    1    2    0    0  0.00000000000E+00  0.00000000000E+00  0.30236736888E+04  0.30362005786E+04  0.27552019337E+03 0.  0.
         25    2    3    3    0    0  0.41151873726E+02  0.27249897521E+02  0.19589856729E+04  0.19632418110E+04  0.11940480846E+03 0.  0.
         25    2    3    3    0    0 -0.41151873726E+02 -0.27249897521E+02  0.10646880159E+04  0.10729587676E+04  0.12346623843E+03 0.  0.
          5    1    4    4  502    0 -0.37402934004E+02 -0.49715064821E+00  0.97350692844E+03  0.97423665316E+03  0.47000000000E+01 0. -1.
         -5    1    4    4    0  502  0.78554807730E+02  0.27747048169E+02  0.98547874444E+03  0.98900515785E+03  0.47000000000E+01 0. -1.
          5    1    5    5  503    0 -0.63401168758E+02  0.29337623883E+02  0.47635489158E+03  0.48147323613E+03  0.47000000000E+01 0.  1.
         -5    1    5    5    0  503  0.22249295032E+02 -0.56587521404E+02  0.58833312436E+03  0.59148553146E+03  0.47000000000E+01 0.  1.
<mgrwt>
<rscale>  0 0.27552019E+03</rscale>
<asrwt>0</asrwt>
<pdfrwt beam="1">  1        2 0.46614301E+00 0.27552019E+03</pdfrwt>
<pdfrwt beam="2">  1       -2 0.96360932E-03 0.27552019E+03</pdfrwt>
<totfact> 0.44998712E+03</totfact>
</mgrwt>
</event>
<event>
 9    1  0.2073852E-002  0.2752966E+03  0.7818608E-02  0.1098286E+00
         -2   -1    0    0    0  501 -0.00000000000E+00  0.00000000000E+00  0.34639950464E+02  0.34639950464E+02  0.00000000000E+00 0.  1.
          2   -1    0    0  501    0  0.00000000000E+00 -0.00000000000E+00 -0.54697136113E+03  0.54697136113E+03  0.00000000000E+00 0.  1.
         36    2    1    2    0    0  0.00000000000E+00  0.00000000000E+00 -0.51233141067E+03  0.58161131159E+03  0.27529664622E+03 0.  0.
         25    2    3    3    0    0 -0.51770646686E+02 -0.15743682195E+02 -0.18116148982E+03  0.22282160282E+03  0.11790639466E+03 0.  0.
         25    2    3    3    0    0  0.51770646686E+02  0.15743682195E+02 -0.33116992084E+03  0.35878970877E+03  0.12699793408E+03 0.  0.
          5    1    4    4  502    0  0.27070885393E+02  0.57802218649E+01 -0.11258016053E+03  0.11602855832E+03  0.47000000000E+01 0.  1.
         -5    1    4    4    0  502 -0.78841532080E+02 -0.21523904060E+02 -0.68581329291E+02  0.10679304450E+03  0.47000000000E+01 0.  1.
          5    1    5    5  503    0  0.53179448665E+01 -0.51760040348E+02 -0.90357735823E+02  0.10437429155E+03  0.47000000000E+01 0.  1.
         -5    1    5    5    0  503  0.46452701820E+02  0.67503722542E+02 -0.24081218502E+03  0.25441541722E+03  0.47000000000E+01 0.  1.
<mgrwt>
<rscale>  0 0.27529665E+03</rscale>
<asrwt>0</asrwt>
<pdfrwt beam="1">  1        2 0.84149444E-01 0.27529665E+03</pdfrwt>
<pdfrwt beam="2">  1       -2 0.53292229E-02 0.27529665E+03</pdfrwt>
<totfact> 0.99268093E+03</totfact>
</mgrwt>
</event>
<event>
 9    1  0.2073852E-002  0.2766214E+03  0.7818608E-02  0.1097549E+00
          1   -1    0    0  501    0  0.00000000000E+00  0.00000000000E+00  0.42862839564E+02  0.42862839564E+02  0.00000000000E+00 0. -1.
         -1   -1    0    0    0  501 -0.00000000000E+00 -0.00000000000E+00 -0.44630379639E+03  0.44630379639E+03  0.00000000000E+00 0. -1.
         36    2    1    2    0    0  0.00000000000E+00  0.00000000000E+00 -0.40344095683E+03  0.48916663595E+03  0.27662138761E+03 0.  0.
         25    2    3    3    0    0  0.30433985514E+02  0.65143511285E+01 -0.12948959860E+03  0.18624180406E+03  0.13019135604E+03 0.  0.
         25    2    3    3    0    0 -0.30433985514E+02 -0.65143511285E+01 -0.27395135822E+03  0.30292483190E+03  0.12548084660E+03 0.  0.
          5    1    4    4  502    0 -0.28138330194E+02  0.33223753876E+02 -0.25872231887E+01  0.43867609595E+02  0.47000000000E+01 0. -1.
         -5    1    4    4    0  502  0.58572315708E+02 -0.26709402748E+02 -0.12690237542E+03  0.14237419446E+03  0.47000000000E+01 0. -1.
          5    1    5    5  503    0  0.31767488294E+02  0.33548272393E+02 -0.16298266193E+03  0.16947005040E+03  0.47000000000E+01 0.  1.
         -5    1    5    5    0  503 -0.62201473808E+02 -0.40062623521E+02 -0.11096869629E+03  0.13345478150E+03  0.47000000000E+01 0.  1.
<mgrwt>
<rscale>  0 0.27662139E+03</rscale>
<asrwt>0</asrwt>
<pdfrwt beam="1">  1        1 0.65942831E-02 0.27662139E+03</pdfrwt>
<pdfrwt beam="2">  1       -1 0.68662121E-01 0.27662139E+03</pdfrwt>
<totfact> 0.25216905E+03</totfact>
</mgrwt>
</event>
<event>
 9    1  0.2073852E-002  0.2754360E+03  0.7818608E-02  0.1098208E+00
          2   -1    0    0  501    0  0.00000000000E+00  0.00000000000E+00  0.45024188857E+03  0.45024188857E+03  0.00000000000E+00 0. -1.
         -2   -1    0    0    0  501 -0.00000000000E+00 -0.00000000000E+00 -0.42124563210E+02  0.42124563210E+02  0.00000000000E+00 0. -1.
         36    2    1    2    0    0  0.71054273576E-14  0.71054273576E-14  0.40811732536E+03  0.49236645178E+03  0.27543596639E+03 0.  0.
         25    2    3    3    0    0 -0.34840389229E+02  0.44246744427E+02  0.25167024325E+03  0.28747514930E+03  0.12701347570E+03 0.  0.
         25    2    3    3    0    0  0.34840389229E+02 -0.44246744427E+02  0.15644708211E+03  0.20489130248E+03  0.11972104752E+03 0.  0.
          5    1    4    4  502    0 -0.55985026095E+02  0.54800540114E+02  0.72990140567E+02  0.10717776338E+03  0.47000000000E+01 0.  1.
         -5    1    4    4    0  502  0.21144636866E+02 -0.10553795688E+02  0.17868010269E+03  0.18029738591E+03  0.47000000000E+01 0.  1.
          5    1    5    5  503    0  0.41085797174E+02  0.29911462512E+02  0.33343243465E+02  0.60963925430E+02  0.47000000000E+01 0. -1.
         -5    1    5    5    0  503 -0.62454079449E+01 -0.74158206939E+02  0.12310383865E+03  0.14392737706E+03  0.47000000000E+01 0. -1.
<mgrwt>
<rscale>  0 0.27543597E+03</rscale>
<asrwt>0</asrwt>
<pdfrwt beam="1">  1        2 0.69267980E-01 0.27543597E+03</pdfrwt>
<pdfrwt beam="2">  1       -2 0.64807023E-02 0.27543597E+03</pdfrwt>
<totfact> 0.91434328E+03</totfact>
</mgrwt>
</event>
<event>
 9    1  0.2073852E-002  0.2751465E+03  0.7818608E-02  0.1098370E+00
          4   -1    0    0  501    0  0.00000000000E+00  0.00000000000E+00  0.16756085533E+03  0.16756085533E+03  0.00000000000E+00 0.  1.
         -4   -1    0    0    0  501 -0.00000000000E+00 -0.00000000000E+00 -0.11295236338E+03  0.11295236338E+03  0.00000000000E+00 0.  1.
         36    2    1    2    0    0 -0.14210854715E-13  0.00000000000E+00  0.54608491950E+02  0.28051321872E+03  0.27514646733E+03 0.  0.
         25    2    3    3    0    0  0.35913863254E+02 -0.41626063167E+02  0.27641057529E+02  0.13859096894E+03  0.12418089185E+03 0.  0.
         25    2    3    3    0    0 -0.35913863254E+02  0.41626063167E+02  0.26967434421E+02  0.14192224978E+03  0.12803182321E+03 0.  0.
          5    1    4    4  502    0 -0.44728552502E+02 -0.27762099759E+02  0.19050056314E+02  0.56181600525E+02  0.47000000000E+01 0. -1.
         -5    1    4    4    0  502  0.80642415757E+02 -0.13863963408E+02  0.85910012145E+01  0.82409368414E+02  0.47000000000E+01 0. -1.
          5    1    5    5  503    0  0.42693878153E+02  0.36924905008E+02 -0.48718855417E+01  0.56851043177E+02  0.47000000000E+01 0. -1.
         -5    1    5    5    0  503 -0.78607741407E+02  0.47011581590E+01  0.31839319963E+02  0.85071206603E+02  0.47000000000E+01 0. -1.
<mgrwt>
<rscale>  0 0.27514647E+03</rscale>
<asrwt>0</asrwt>
<pdfrwt beam="1">  1        4 0.25778593E-01 0.27514647E+03</pdfrwt>
<pdfrwt beam="2">  1       -4 0.17377287E-01 0.27514647E+03</pdfrwt>
<totfact> 0.77090238E+02</totfact>
</mgrwt>
</event>
<event>
 8    1  0.2073852E-002  0.2917277E+03  0.7818608E-02  0.1089451E+00
         -2   -1    0    0    0  501 -0.00000000000E+00  0.00000000000E+00  0.15877076033E+02  0.15877076033E+02  0.00000000000E+00 0.  1.
          2   -1    0    0  501    0  0.00000000000E+00 -0.00000000000E+00 -0.13400615928E+04  0.13400615928E+04  0.00000000000E+00 0.  1.
         25    2    1    2    0    0  0.33288258770E+02  0.49647701464E+02 -0.87894754766E+03  0.88966678637E+03  0.12403707834E+03 0.  0.
         25    2    1    2    0    0 -0.33288258770E+02 -0.49647701464E+02 -0.44523696916E+03  0.46627188251E+03  0.12490199071E+03 0.  0.
          5    1    3    3  502    0  0.27407350054E+02  0.84561985869E+02 -0.76727780825E+03  0.77242424698E+03  0.47000000000E+01 0.  1.
         -5    1    3    3    0  502  0.58809087158E+01 -0.34914284405E+02 -0.11166973941E+03  0.11724253939E+03  0.47000000000E+01 0.  1.
          5    1    4    4  503    0 -0.52828681556E+02  0.26785844300E+02 -0.18723996290E+03  0.19644145376E+03  0.47000000000E+01 0.  1.
         -5    1    4    4    0  503  0.19540422786E+02 -0.76433545763E+02 -0.25799700625E+03  0.26983042875E+03  0.47000000000E+01 0.  1.
<mgrwt>
<rscale>  0 0.29172768E+03</rscale>
<asrwt>0</asrwt>
<pdfrwt beam="1">  1        2 0.20616351E+00 0.29172768E+03</pdfrwt>
<pdfrwt beam="2">  1       -2 0.24426249E-02 0.29172768E+03</pdfrwt>
<totfact> 0.95991130E+03</totfact>
</mgrwt>
</event>
<event>
 9    1  0.2073852E-002  0.2749280E+03  0.7818608E-02  0.1098492E+00
          2   -1    0    0  501    0  0.00000000000E+00  0.00000000000E+00  0.40872514493E+04  0.40872514493E+04  0.00000000000E+00 0.  1.
         -2   -1    0    0    0  501 -0.00000000000E+00 -0.00000000000E+00 -0.46232424441E+01  0.46232424441E+01  0.00000000000E+00 0.  1.
         36    2    1    2    0    0 -0.71054273576E-14  0.00000000000E+00  0.40826282068E+04  0.40918746917E+04  0.27492802243E+03 0.  0.
         25    2    3    3    0    0  0.30230048191E+02 -0.29553516085E+02  0.14410821688E+04  0.14470457792E+04  0.12424332439E+03 0.  0.
         25    2    3    3    0    0 -0.30230048191E+02  0.29553516085E+02  0.26415460380E+04  0.26448289125E+04  0.12476874405E+03 0.  0.
          5    1    4    4  502    0  0.72455001966E+02 -0.24636925485E+02  0.11795720597E+04  0.11820613518E+04  0.47000000000E+01 0. -1.
         -5    1    4    4    0  502 -0.42224953775E+02 -0.49165905993E+01  0.26151010911E+03  0.26498442738E+03  0.47000000000E+01 0. -1.
          5    1    5    5  503    0  0.18180577196E+02 -0.37460623290E+02  0.52747390271E+03  0.52913574792E+03  0.47000000000E+01 0.  1.
         -5    1    5    5    0  503 -0.48410625387E+02  0.67014139375E+02  0.21140721353E+04  0.21156931646E+04  0.47000000000E+01 0.  1.
<mgrwt>
<rscale>  0 0.27492802E+03</rscale>
<asrwt>0</asrwt>
<pdfrwt beam="1">  1        2 0.62880503E+00 0.27492802E+03</pdfrwt>
<pdfrwt beam="2">  1       -2 0.71127133E-03 0.27492802E+03</pdfrwt>
<totfact> 0.13365188E+03</totfact>
</mgrwt>
</event>
<event>
 9    1  0.2073852E-002  0.2776215E+03  0.7818608E-02  0.1096995E+00
         -1   -1    0    0    0  501 -0.00000000000E+00  0.00000000000E+00  0.14276516309E+03  0.14276516309E+03  0.00000000000E+00 0.  1.
          1   -1    0    0  501    0  0.00000000000E+00 -0.00000000000E+00 -0.13496586481E+03  0.13496586481E+03  0.00000000000E+00 0.  1.
         36    2    1    2    0    0  0.00000000000E+00  0.00000000000E+00  0.77992982852E+01  0.27773102790E+03  0.27762149558E+03 0.  0.
         25    2    3    3    0    0  0.53885636022E+02 -0.19573292389E+02  0.25879740979E+01  0.13766242415E+03  0.12512981207E+03 0.  0.
         25    2    3    3    0    0 -0.53885636022E+02  0.19573292389E+02  0.52113241873E+01  0.14006860375E+03  0.12769213097E+03 0.  0.
          5    1    4    4  502    0  0.65949743674E+02 -0.34613588582E+02  0.47567193169E+02  0.88499700966E+02  0.47000000000E+01 0.  1.
         -5    1    4    4    0  502 -0.12064107652E+02  0.15040296193E+02 -0.44979219071E+02  0.49162723188E+02  0.47000000000E+01 0.  1.
          5    1    5    5  503    0 -0.41081931259E+02  0.33729698423E+02  0.60924257891E+02  0.80989337763E+02  0.47000000000E+01 0.  1.
         -5    1    5    5    0  503 -0.12803704762E+02 -0.14156406034E+02 -0.55712933704E+02  0.59079265985E+02  0.47000000000E+01 0.  1.
<mgrwt>
<rscale>  0 0.27762150E+03</rscale>
<asrwt>0</asrwt>
<pdfrwt beam="1">  1        1 0.20763979E-01 0.27762150E+03</pdfrwt>
<pdfrwt beam="2">  1       -1 0.21963871E-01 0.27762150E+03</pdfrwt>
<totfact> 0.41786234E+03</totfact>
</mgrwt>
</event>
<event>
 9    1  0.2073852E-002  0.2751470E+03  0.7818608E-02  0.1098369E+00
          2   -1    0    0  501    0  0.00000000000E+00  0.00000000000E+00  0.53548142161E+01  0.53548142161E+01  0.00000000000E+00 0. -1.
         -2   -1    0    0    0  501 -0.00000000000E+00 -0.00000000000E+00 -0.35344765871E+04  0.35344765871E+04  0.00000000000E+00 0. -1.
         36    2    1    2    0    0  0.71054273576E-14 -0.14210854715E-13 -0.35291217729E+04  0.35398314014E+04  0.27514698236E+03 0.  0.
         25    2    3    3    0    0  0.42731625703E+02 -0.47596650950E+02 -0.17196990373E+04  0.17251560125E+04  0.12127265019E+03 0.  0.
         25    2    3    3    0    0 -0.42731625703E+02  0.47596650950E+02 -0.18094227357E+04  0.18146753889E+04  0.12224850746E+03 0.  0.
          5    1    4    4  502    0 -0.37408190794E+02 -0.89081309025E+01 -0.27553295666E+03  0.27824310906E+03  0.47000000000E+01 0.  1.
         -5    1    4    4    0  502  0.80139816496E+02 -0.38688520048E+02 -0.14441660806E+04  0.14469129034E+04  0.47000000000E+01 0.  1.
          5    1    5    5  503    0  0.18343110968E+01 -0.34759381962E+01 -0.13714380740E+04  0.13714517591E+04  0.47000000000E+01 0. -1.
         -5    1    5    5    0  503 -0.44565936799E+02  0.51072589146E+02 -0.43798466170E+03  0.44322362975E+03  0.47000000000E+01 0. -1.
<mgrwt>
<rscale>  0 0.27514698E+03</rscale>
<asrwt>0</asrwt>
<pdfrwt beam="1">  1        2 0.82381727E-03 0.27514698E+03</pdfrwt>
<pdfrwt beam="2">  1       -2 0.54376583E+00 0.27514698E+03</pdfrwt>
<totfact> 0.20797724E+01</totfact>
</mgrwt>
</event>
<event>
 9    1  0.2073852E-002  0.2745028E+03  0.7818608E-02  0.1098730E+00
         -1   -1    0    0    0  501 -0.00000000000E+00  0.00000000000E+00  0.82878378979E+03  0.82878378979E+03  0.00000000000E+00 0. -1.
          1   -1    0    0  501    0  0.00000000000E+00 -0.00000000000E+00 -0.22729631914E+02  0.22729631914E+02  0.00000000000E+00 0. -1.
         36    2    1    2    0    0  0.71054273576E-14 -0.35527136788E-14  0.80605415788E+03  0.85151342170E+03  0.27450282679E+03 0.  0.
         25    2    3    3    0    0  0.23321945915E+02  0.12546631848E+02  0.47185274171E+03  0.49300751291E+03  0.14039254536E+03 0.  0.
         25    2    3    3    0    0 -0.23321945915E+02 -0.12546631848E+02  0.33420141617E+03  0.35850590880E+03  0.12702192307E+03 0.  0.
          5    1    4    4  502    0 -0.49318217225E+02  0.40897782737E+02  0.23377131563E+03  0.24243768930E+03  0.47000000000E+01 0. -1.
         -5    1    4    4    0  502  0.72640163140E+02 -0.28351150890E+02  0.23808142608E+03  0.25056982360E+03  0.47000000000E+01 0. -1.
          5    1    5    5  503    0 -0.61904559542E+02 -0.12655669579E+02  0.30035975827E+03  0.30696972953E+03  0.47000000000E+01 0. -1.
         -5    1    5    5    0  503  0.38582613627E+02  0.10903773100E+00  0.33841657902E+02  0.51536179263E+02  0.47000000000E+01 0. -1.
<mgrwt>
<rscale>  0 0.27450283E+03</rscale>
<asrwt>0</asrwt>
<pdfrwt beam="1">  1        1 0.34968671E-02 0.27450283E+03</pdfrwt>
<pdfrwt beam="2">  1       -1 0.12750518E+00 0.27450283E+03</pdfrwt>
<totfact> 0.15672162E+03</totfact>
</mgrwt>
</event>
<event>
 9    1  0.2073852E-002  0.2752641E+03  0.7818608E-02  0.1098304E+00
          2   -1    0    0  501    0  0.00000000000E+00  0.00000000000E+00  0.10523269325E+03  0.10523269325E+03  0.00000000000E+00 0. -1.
         -2   -1    0    0    0  501 -0.00000000000E+00 -0.00000000000E+00 -0.18000663034E+03  0.18000663034E+03  0.00000000000E+00 0. -1.
         36    2    1    2    0    0  0.71054273576E-14  0.35527136788E-14 -0.74773937084E+02  0.28523932359E+03  0.27526410964E+03 0.  0.
         25    2    3    3    0    0 -0.32288573624E+02  0.23883845873E+02 -0.73611339106E+02  0.15532085996E+03  0.13074000999E+03 0.  0.
         25    2    3    3    0    0  0.32288573624E+02 -0.23883845873E+02 -0.11625979786E+01  0.12991846363E+03  0.12354944548E+03 0.  0.
          5    1    4    4  502    0 -0.34280139690E+02  0.12088340222E+02  0.32166500131E+02  0.48765045649E+02  0.47000000000E+01 0.  1.
         -5    1    4    4    0  502  0.19915660661E+01  0.11795505651E+02 -0.10577783924E+03  0.10655581431E+03  0.47000000000E+01 0.  1.
          5    1    5    5  503    0 -0.36435398127E+02  0.30425732354E+01 -0.32925358552E+02  0.49426356576E+02  0.47000000000E+01 0. -1.
         -5    1    5    5    0  503  0.68723971751E+02 -0.26926419108E+02  0.31762760573E+02  0.80492107057E+02  0.47000000000E+01 0. -1.
<mgrwt>
<rscale>  0 0.27526411E+03</rscale>
<asrwt>0</asrwt>
<pdfrwt beam="1">  1        2 0.16189645E-01 0.27526411E+03</pdfrwt>
<pdfrwt beam="2">  1       -2 0.27693328E-01 0.27526411E+03</pdfrwt>
<totfact> 0.41847887E+03</totfact>
</mgrwt>
</event>
<event>
 9    1  0.2073852E-002  0.2648662E+03  0.7818608E-02  0.1104254E+00
          1   -1    0    0  501    0  0.00000000000E+00  0.00000000000E+00  0.76247708532E+02  0.76247708532E+02  0.00000000000E+00 0.  1.
         -1   -1    0    0    0  501 -0.00000000000E+00 -0.00000000000E+00 -0.23002034808E+03  0.23002034808E+03  0.00000000000E+00 0.  1.
         36    2    1    2    0    0  0.17763568394E-14  0.71054273576E-14 -0.15377263955E+03  0.30626805661E+03  0.26486618853E+03 0.  0.
         25    2    3    3    0    0 -0.68658912819E+01  0.51927561413E+02 -0.84857269030E+02  0.15669356541E+03  0.12086564953E+03 0.  0.
         25    2    3    3    0    0  0.68658912819E+01 -0.51927561413E+02 -0.68915370520E+02  0.14957449120E+03  0.12198191680E+03 0.  0.
          5    1    4    4  502    0 -0.51263486860E+01 -0.27703552438E+02 -0.69905872232E+02  0.75516138944E+02  0.47000000000E+01 0. -1.
         -5    1    4    4    0  502 -0.17395425959E+01  0.79631113852E+02 -0.14951396798E+02  0.81177426468E+02  0.47000000000E+01 0. -1.
          5    1    5    5  503    0 -0.37322451687E+02 -0.64104411021E+02 -0.71887065502E+02  0.10340300334E+03  0.47000000000E+01 0.  1.
         -5    1    5    5    0  503  0.44188342969E+02  0.12176849608E+02  0.29716949812E+01  0.46171487866E+02  0.47000000000E+01 0.  1.
<mgrwt>
<rscale>  0 0.26486619E+03</rscale>
<asrwt>0</asrwt>
<pdfrwt beam="1">  1        1 0.11730417E-01 0.26486619E+03</pdfrwt>
<pdfrwt beam="2">  1       -1 0.35387746E-01 0.26486619E+03</pdfrwt>
<totfact> 0.39405153E+03</totfact>
</mgrwt>
</event>
<event>
 9    1  0.2073852E-002  0.2735428E+03  0.7818608E-02  0.1099269E+00
         -2   -1    0    0    0  501 -0.00000000000E+00  0.00000000000E+00  0.85935569787E+02  0.85935569787E+02  0.00000000000E+00 0.  1.
          2   -1    0    0  501    0  0.00000000000E+00 -0.00000000000E+00 -0.21767952607E+03  0.21767952607E+03  0.00000000000E+00 0.  1.
         36    2    1    2    0    0  0.00000000000E+00  0.00000000000E+00 -0.13174395628E+03  0.30361509586E+03  0.27354278718E+03 0.  0.
         25    2    3    3    0    0  0.68070578491E+01  0.49069913374E+02 -0.98413073699E+02  0.16626435790E+03  0.12451711207E+03 0.  0.
         25    2    3    3    0    0 -0.68070578491E+01 -0.49069913374E+02 -0.33330882585E+02  0.13735073796E+03  0.12369351256E+03 0.  0.
          5    1    4    4  502    0  0.59016777467E+02  0.52738913468E+01 -0.21038321107E+02  0.63051525815E+02  0.47000000000E+01 0.  1.
         -5    1    4    4    0  502 -0.52209719618E+02  0.43796022027E+02 -0.77374752591E+02  0.10321283208E+03  0.47000000000E+01 0.  1.
          5    1    5    5  503    0 -0.49017934073E+02 -0.51498981373E+02  0.15155963450E+02  0.72847073869E+02  0.47000000000E+01 0.  1.
         -5    1    5    5    0  503  0.42210876223E+02  0.24290679988E+01 -0.48486846035E+02  0.64503664092E+02  0.47000000000E+01 0.  1.
<mgrwt>
<rscale>  0 0.27354279E+03</rscale>
<asrwt>0</asrwt>
<pdfrwt beam="1">  1        2 0.33489158E-01 0.27354279E+03</pdfrwt>
<pdfrwt beam="2">  1       -2 0.13220857E-01 0.27354279E+03</pdfrwt>
<totfact> 0.64989104E+03</totfact>
</mgrwt>
</event>
<event>
 9    1  0.2073852E-002  0.2748883E+03  0.7818608E-02  0.1098514E+00
         -2   -1    0    0    0  501 -0.00000000000E+00  0.00000000000E+00  0.10922841791E+03  0.10922841791E+03  0.00000000000E+00 0. -1.
          2   -1    0    0  501    0  0.00000000000E+00 -0.00000000000E+00 -0.17294857844E+03  0.17294857844E+03  0.00000000000E+00 0. -1.
         36    2    1    2    0    0 -0.21316282073E-13  0.71054273576E-14 -0.63720160527E+02  0.28217699634E+03  0.27488833807E+03 0.  0.
         25    2    3    3    0    0 -0.57859405350E+02  0.14489843338E+02 -0.11405018610E+02  0.13636435109E+03  0.12209625486E+03 0.  0.
         25    2    3    3    0    0  0.57859405350E+02 -0.14489843338E+02 -0.52315141917E+02  0.14581264526E+03  0.12233882089E+03 0.  0.
          5    1    4    4  502    0 -0.75644075475E+02  0.53454462389E+02 -0.60006604317E+01  0.92938171003E+02  0.47000000000E+01 0. -1.
         -5    1    4    4    0  502  0.17784670125E+02 -0.38964619051E+02 -0.54043581785E+01  0.43426180082E+02  0.47000000000E+01 0. -1.
          5    1    5    5  503    0  0.49988206105E+02  0.29819364432E+02  0.18952347019E+02  0.61394598315E+02  0.47000000000E+01 0. -1.
         -5    1    5    5    0  503  0.78711992451E+01 -0.44309207770E+02 -0.71267488936E+02  0.84418046945E+02  0.47000000000E+01 0. -1.
<mgrwt>
<rscale>  0 0.27488834E+03</rscale>
<asrwt>0</asrwt>
<pdfrwt beam="1">  1        2 0.26607474E-01 0.27488834E+03</pdfrwt>
<pdfrwt beam="2">  1       -2 0.16804372E-01 0.27488834E+03</pdfrwt>
<totfact> 0.56318683E+03</totfact>
</mgrwt>
</event>
<event>
 9    1  0.2073852E-002  0.2748262E+03  0.7818608E-02  0.1098549E+00
         -2   -1    0    0    0  501 -0.00000000000E+00  0.00000000000E+00  0.15306323289E+02  0.15306323289E+02  0.00000000000E+00 0.  1.
          2   -1    0    0  501    0  0.00000000000E+00 -0.00000000000E+00 -0.12336311669E+04  0.12336311669E+04  0.00000000000E+00 0.  1.
         36    2    1    2    0    0  0.14210854715E-13 -0.71054273576E-14 -0.12183248436E+04  0.12489374901E+04  0.27482618113E+03 0.  0.
         25    2    3    3    0    0 -0.39422473286E+02 -0.44954166966E+02 -0.51786746287E+03  0.53666105829E+03  0.12744949534E+03 0.  0.
         25    2    3    3    0    0  0.39422473286E+02  0.44954166966E+02 -0.70045738069E+03  0.71227643185E+03  0.11455201731E+03 0.  0.
          5    1    4    4  502    0 -0.34681433983E+02 -0.86404620976E+02 -0.41905275685E+03  0.42929694084E+03  0.47000000000E+01 0. -1.
         -5    1    4    4    0  502 -0.47410393025E+01  0.41450454011E+02 -0.98814706019E+02  0.10736411746E+03  0.47000000000E+01 0. -1.
          5    1    5    5  503    0 -0.83949957745E+01  0.53464693114E+02 -0.57660435308E+03  0.57915768091E+03  0.47000000000E+01 0.  1.
         -5    1    5    5    0  503  0.47817469060E+02 -0.85105261482E+01 -0.12385302761E+03  0.13311875094E+03  0.47000000000E+01 0.  1.
<mgrwt>
<rscale>  0 0.27482618E+03</rscale>
<asrwt>0</asrwt>
<pdfrwt beam="1">  1        2 0.18978942E+00 0.27482618E+03</pdfrwt>
<pdfrwt beam="2">  1       -2 0.23548188E-02 0.27482618E+03</pdfrwt>
<totfact> 0.11597572E+04</totfact>
</mgrwt>
</event>
<event>
 9    1  0.2073852E-002  0.2756539E+03  0.7818608E-02  0.1098087E+00
          2   -1    0    0  501    0  0.00000000000E+00  0.00000000000E+00  0.89835565000E+03  0.89835565000E+03  0.00000000000E+00 0. -1.
         -2   -1    0    0    0  501 -0.00000000000E+00 -0.00000000000E+00 -0.21145591791E+02  0.21145591791E+02  0.00000000000E+00 0. -1.
         36    2    1    2    0    0  0.00000000000E+00  0.71054273576E-14  0.87721005821E+03  0.91950124179E+03  0.27565385437E+03 0.  0.
         25    2    3    3    0    0 -0.21399644531E+01  0.57156754127E+02  0.48698836231E+03  0.50513988466E+03  0.12139672181E+03 0.  0.
         25    2    3    3    0    0  0.21399644531E+01 -0.57156754127E+02  0.39022169590E+03  0.41436135713E+03  0.12708614534E+03 0.  0.
          5    1    4    4  502    0  0.20912402873E+02  0.88996529695E+02  0.38510258308E+03  0.39583304610E+03  0.47000000000E+01 0.  1.
         -5    1    4    4    0  502 -0.23052367326E+02 -0.31839775568E+02  0.10188577923E+03  0.10930683856E+03  0.47000000000E+01 0.  1.
          5    1    5    5  503    0  0.63118679271E+02 -0.32980802112E+02  0.16595916528E+03  0.18065501798E+03  0.47000000000E+01 0.  1.
         -5    1    5    5    0  503 -0.60978714818E+02 -0.24175952015E+02  0.22426253062E+03  0.23370633915E+03  0.47000000000E+01 0.  1.
<mgrwt>
<rscale>  0 0.27565385E+03</rscale>
<asrwt>0</asrwt>
<pdfrwt beam="1">  1        2 0.13820853E+00 0.27565385E+03</pdfrwt>
<pdfrwt beam="2">  1       -2 0.32531687E-02 0.27565385E+03</pdfrwt>
<totfact> 0.11393567E+04</totfact>
</mgrwt>
</event>
<event>
 9    1  0.2073852E-002  0.2779589E+03  0.7818608E-02  0.1096809E+00
         -3   -1    0    0    0  501 -0.00000000000E+00  0.00000000000E+00  0.21193808322E+03  0.21193808322E+03  0.00000000000E+00 0.  1.
          3   -1    0    0  501    0  0.00000000000E+00 -0.00000000000E+00 -0.91136475353E+02  0.91136475353E+02  0.00000000000E+00 0.  1.
         36    2    1    2    0    0  0.35527136788E-14  0.00000000000E+00  0.12080160786E+03  0.30307455857E+03  0.27795891709E+03 0.  0.
         25    2    3    3    0    0 -0.11445244725E+02  0.32506628687E+02  0.22301534294E+02  0.14040508549E+03  0.13427045492E+03 0.  0.
         25    2    3    3    0    0  0.11445244725E+02 -0.32506628687E+02  0.98500073571E+02  0.16266947308E+03  0.12478548972E+03 0.  0.
          5    1    4    4  502    0  0.60076152408E+02  0.84909062310E+01  0.22302520826E+02  0.64813054333E+02  0.47000000000E+01 0. -1.
         -5    1    4    4    0  502 -0.71521397133E+02  0.24015722456E+02 -0.98653223420E-03  0.75592031153E+02  0.47000000000E+01 0. -1.
          5    1    5    5  503    0 -0.38622053858E+01  0.34734593406E+02  0.85296171747E+02  0.92298079743E+02  0.47000000000E+01 0.  1.
         -5    1    5    5    0  503  0.15307450111E+02 -0.67241222093E+02  0.13203901824E+02  0.70371393342E+02  0.47000000000E+01 0.  1.
<mgrwt>
<rscale>  0 0.27795892E+03</rscale>
<asrwt>0</asrwt>
<pdfrwt beam="1">  1        3 0.14020996E-01 0.27795892E+03</pdfrwt>
<pdfrwt beam="2">  1       -3 0.32605859E-01 0.27795892E+03</pdfrwt>
<totfact> 0.97455856E+02</totfact>
</mgrwt>
</event>
<event>
 9    1  0.2073852E-002  0.2747590E+03  0.7818608E-02  0.1098586E+00
          2   -1    0    0  501    0  0.00000000000E+00  0.00000000000E+00  0.77889854454E+03  0.77889854454E+03  0.00000000000E+00 0.  1.
         -2   -1    0    0    0  501 -0.00000000000E+00 -0.00000000000E+00 -0.24230528265E+02  0.24230528265E+02  0.00000000000E+00 0.  1.
         36    2    1    2    0    0  0.00000000000E+00  0.00000000000E+00  0.75466801627E+03  0.80312907280E+03  0.27475897218E+03 0.  0.
         25    2    3    3    0    0  0.22064793410E+02  0.47603643120E+02  0.48490290817E+03  0.50095325075E+03  0.11432570635E+03 0.  0.
         25    2    3    3    0    0 -0.22064793410E+02 -0.47603643120E+02  0.26976510810E+03  0.30217582206E+03  0.12563459691E+03 0.  0.
          5    1    4    4  502    0 -0.78321997205E+01  0.60486331151E+02  0.44525651904E+03  0.44943898068E+03  0.47000000000E+01 0. -1.
         -5    1    4    4    0  502  0.29896993130E+02 -0.12882688031E+02  0.39646389133E+02  0.51514270066E+02  0.47000000000E+01 0. -1.
          5    1    5    5  503    0  0.38916899153E+02 -0.51613077977E+02  0.81171059158E+02  0.10387139020E+03  0.47000000000E+01 0.  1.
         -5    1    5    5    0  503 -0.60981692563E+02  0.40094348562E+01  0.18859404894E+03  0.19830443185E+03  0.47000000000E+01 0.  1.
<mgrwt>
<rscale>  0 0.27475897E+03</rscale>
<asrwt>0</asrwt>
<pdfrwt beam="1">  1        2 0.11983053E+00 0.27475897E+03</pdfrwt>
<pdfrwt beam="2">  1       -2 0.37277742E-02 0.27475897E+03</pdfrwt>
<totfact> 0.11181554E+04</totfact>
</mgrwt>
</event>
<event>
 9    1  0.2073852E-002  0.2746301E+03  0.7818608E-02  0.1098659E+00
         -1   -1    0    0    0  501 -0.00000000000E+00  0.00000000000E+00  0.91723551350E+02  0.91723551350E+02  0.00000000000E+00 0.  1.
          1   -1    0    0  501    0  0.00000000000E+00 -0.00000000000E+00 -0.20556791080E+03  0.20556791080E+03  0.00000000000E+00 0.  1.
         36    2    1    2    0    0  0.35527136788E-14 -0.71054273576E-14 -0.11384435945E+03  0.29729146215E+03  0.27463006989E+03 0.  0.
         25    2    3    3    0    0 -0.29545593678E+02  0.45203428907E+02 -0.35037157970E+02  0.13985214064E+03  0.12415605790E+03 0.  0.
         25    2    3    3    0    0  0.29545593678E+02 -0.45203428907E+02 -0.78807201481E+02  0.15743932151E+03  0.12514101191E+03 0.  0.
          5    1    4    4  502    0  0.33617055286E+02  0.55906474574E+02  0.25019699798E+01  0.65452197513E+02  0.47000000000E+01 0. -1.
         -5    1    4    4    0  502 -0.63162648965E+02 -0.10703045667E+02 -0.37539127950E+02  0.74399943132E+02  0.47000000000E+01 0. -1.
          5    1    5    5  503    0  0.10021337597E+02  0.35705659288E+02  0.67470774544E+01  0.37985975920E+02  0.47000000000E+01 0.  1.
         -5    1    5    5    0  503  0.19524256082E+02 -0.80909088195E+02 -0.85554278936E+02  0.11945334559E+03  0.47000000000E+01 0.  1.
<mgrwt>
<rscale>  0 0.27463007E+03</rscale>
<asrwt>0</asrwt>
<pdfrwt beam="1">  1        1 0.31625832E-01 0.27463007E+03</pdfrwt>
<pdfrwt beam="2">  1       -1 0.14111316E-01 0.27463007E+03</pdfrwt>
<totfact> 0.49834533E+03</totfact>
</mgrwt>
</event>
<event>
 9    1  0.2073852E-002  0.2742787E+03  0.7818608E-02  0.1098855E+00
          2   -1    0    0  501    0  0.00000000000E+00  0.00000000000E+00  0.24418084547E+03  0.24418084547E+03  0.00000000000E+00 0.  1.
         -2   -1    0    0    0  501 -0.00000000000E+00 -0.00000000000E+00 -0.77021613283E+02  0.77021613283E+02  0.00000000000E+00 0.  1.
         36    2    1    2    0    0  0.71054273576E-14  0.00000000000E+00  0.16715923219E+03  0.32120245875E+03  0.27427870972E+03 0.  0.
         25    2    3    3    0    0  0.34582949411E+02  0.50668352504E+02  0.73755543282E+02  0.15401875320E+03  0.12049329375E+03 0.  0.
         25    2    3    3    0    0 -0.34582949411E+02 -0.50668352504E+02  0.93403688904E+02  0.16718370555E+03  0.12434982897E+03 0.  0.
          5    1    4    4  502    0  0.49515019858E+02  0.84304957463E+02  0.57406126956E+02  0.11347517991E+03  0.47000000000E+01 0.  1.
         -5    1    4    4    0  502 -0.14932070447E+02 -0.33636604959E+02  0.16349416326E+02  0.40543573291E+02  0.47000000000E+01 0.  1.
          5    1    5    5  503    0 -0.36615879172E+02 -0.82358198469E+02  0.99686893785E+02  0.13447364892E+03  0.47000000000E+01 0.  1.
         -5    1    5    5    0  503  0.20329297607E+01  0.31689845965E+02 -0.62832048809E+01  0.32710056623E+02  0.47000000000E+01 0.  1.
<mgrwt>
<rscale>  0 0.27427871E+03</rscale>
<asrwt>0</asrwt>
<pdfrwt beam="1">  1        2 0.37566284E-01 0.27427871E+03</pdfrwt>
<pdfrwt beam="2">  1       -2 0.11849479E-01 0.27427871E+03</pdfrwt>
<totfact> 0.68525731E+03</totfact>
</mgrwt>
</event>
<event>
 9    1  0.2073852E-002  0.2718442E+03  0.7818608E-02  0.1100229E+00
          2   -1    0    0  501    0  0.00000000000E+00  0.00000000000E+00  0.76139499163E+02  0.76139499163E+02  0.00000000000E+00 0.  1.
         -2   -1    0    0    0  501 -0.00000000000E+00 -0.00000000000E+00 -0.24264440518E+03  0.24264440518E+03  0.00000000000E+00 0.  1.
         36    2    1    2    0    0 -0.71054273576E-14  0.14210854715E-13 -0.16650490602E+03  0.31878390434E+03  0.27184424574E+03 0.  0.
         25    2    3    3    0    0 -0.34328172578E+02 -0.38788305486E+02 -0.90058988969E+02  0.16551743344E+03  0.12885046839E+03 0.  0.
         25    2    3    3    0    0  0.34328172578E+02  0.38788305486E+02 -0.76445917048E+02  0.15326647090E+03  0.12232610839E+03 0.  0.
          5    1    4    4  502    0 -0.58190866980E+02  0.25325849388E+01 -0.10067869119E+03  0.11640824647E+03  0.47000000000E+01 0.  1.
         -5    1    4    4    0  502  0.23862694402E+02 -0.41320890425E+02  0.10619702223E+02  0.49109186971E+02  0.47000000000E+01 0.  1.
          5    1    5    5  503    0  0.56532817643E+02  0.71100125353E+02 -0.66124492486E+02  0.11245321606E+03  0.47000000000E+01 0.  1.
         -5    1    5    5    0  503 -0.22204645065E+02 -0.32311819867E+02 -0.10321424562E+02  0.40813254839E+02  0.47000000000E+01 0.  1.
<mgrwt>
<rscale>  0 0.27184425E+03</rscale>
<asrwt>0</asrwt>
<pdfrwt beam="1">  1        2 0.11713769E-01 0.27184425E+03</pdfrwt>
<pdfrwt beam="2">  1       -2 0.37329909E-01 0.27184425E+03</pdfrwt>
<totfact> 0.35601810E+03</totfact>
</mgrwt>
</event>
<event>
 9    1  0.2073852E-002  0.2755155E+03  0.7818608E-02  0.1098164E+00
         -2   -1    0    0    0  501 -0.00000000000E+00  0.00000000000E+00  0.47857510171E+02  0.47857510171E+02  0.00000000000E+00 0. -1.
          2   -1    0    0  501    0  0.00000000000E+00 -0.00000000000E+00 -0.39653551883E+03  0.39653551883E+03  0.00000000000E+00 0. -1.
         36    2    1    2    0    0 -0.35527136788E-14  0.71054273576E-14 -0.34867800866E+03  0.44439302901E+03  0.27551553586E+03 0.  0.
         25    2    3    3    0    0  0.59068574232E+01  0.24640769965E+02 -0.20446372089E+03  0.25153629403E+03  0.14430189030E+03 0.  0.
         25    2    3    3    0    0 -0.59068574232E+01 -0.24640769965E+02 -0.14421428777E+03  0.19285673498E+03  0.12551454465E+03 0.  0.
          5    1    4    4  502    0 -0.65196800529E+02  0.35215886910E+02 -0.11068741356E+03  0.13328381376E+03  0.47000000000E+01 0.  1.
         -5    1    4    4    0  502  0.71103657952E+02 -0.10575116945E+02 -0.93776307330E+02  0.11825248027E+03  0.47000000000E+01 0.  1.
          5    1    5    5  503    0  0.15074912956E+02  0.46522621062E+01  0.19292328825E+02  0.25361003427E+02  0.47000000000E+01 0. -1.
         -5    1    5    5    0  503 -0.20981770379E+02 -0.29293032071E+02 -0.16350661660E+03  0.16749573155E+03  0.47000000000E+01 0. -1.
<mgrwt>
<rscale>  0 0.27551554E+03</rscale>
<asrwt>0</asrwt>
<pdfrwt beam="1">  1        2 0.61005464E-01 0.27551554E+03</pdfrwt>
<pdfrwt beam="2">  1       -2 0.73626939E-02 0.27551554E+03</pdfrwt>
<totfact> 0.86232062E+03</totfact>
</mgrwt>
</event>
<event>
 9    1  0.2073852E-002  0.2744923E+03  0.7818608E-02  0.1098736E+00
          2   -1    0    0  501    0  0.00000000000E+00  0.00000000000E+00  0.43725342271E+03  0.43725342271E+03  0.00000000000E+00 0. -1.
         -2   -1    0    0    0  501 -0.00000000000E+00 -0.00000000000E+00 -0.43079155586E+02  0.43079155586E+02  0.00000000000E+00 0. -1.
         36    2    1    2    0    0  0.00000000000E+00  0.53290705182E-14  0.39417426712E+03  0.48033257829E+03  0.27449231849E+03 0.  0.
         25    2    3    3    0    0  0.53218736850E+02  0.64221412271E+01  0.24409043709E+03  0.27677387095E+03  0.11895442956E+03 0.  0.
         25    2    3    3    0    0 -0.53218736850E+02 -0.64221412271E+01  0.15008383003E+03  0.20355870735E+03  0.12663930452E+03 0.  0.
          5    1    4    4  502    0  0.18674285532E+01 -0.74088830960E+01  0.21648466214E+03  0.21667043587E+03  0.47000000000E+01 0. -1.
         -5    1    4    4    0  502  0.51351308296E+02  0.13831024323E+02  0.27605774949E+02  0.60103435077E+02  0.47000000000E+01 0. -1.
          5    1    5    5  503    0 -0.13219634281E+02  0.50783022526E+02  0.11230631606E+03  0.12405028308E+03  0.47000000000E+01 0.  1.
         -5    1    5    5    0  503 -0.39999102569E+02 -0.57205163754E+02  0.37777513978E+02  0.79508424263E+02  0.47000000000E+01 0.  1.
<mgrwt>
<rscale>  0 0.27449232E+03</rscale>
<asrwt>0</asrwt>
<pdfrwt beam="1">  1        2 0.67269754E-01 0.27449232E+03</pdfrwt>
<pdfrwt beam="2">  1       -2 0.66275627E-02 0.27449232E+03</pdfrwt>
<totfact> 0.91204192E+03</totfact>
</mgrwt>
</event>
<event>
 9    1  0.2073852E-002  0.2746187E+03  0.7818608E-02  0.1098665E+00
         -1   -1    0    0    0  501 -0.00000000000E+00  0.00000000000E+00  0.54877849086E+02  0.54877849086E+02  0.00000000000E+00 0. -1.
          1   -1    0    0  501    0  0.00000000000E+00 -0.00000000000E+00 -0.34356032843E+03  0.34356032843E+03  0.00000000000E+00 0. -1.
         36    2    1    2    0    0 -0.17763568394E-13  0.00000000000E+00 -0.28868247935E+03  0.39843817752E+03  0.27461865818E+03 0.  0.
         25    2    3    3    0    0  0.30183523114E+02  0.72603243602E+02 -0.17368575475E+03  0.21177862199E+03  0.92201774833E+02 0.  0.
         25    2    3    3    0    0 -0.30183523114E+02 -0.72603243602E+02 -0.11499672460E+03  0.18665955552E+03  0.12423874980E+03 0.  0.
          5    1    4    4  502    0  0.46037104521E+02  0.52860024819E+02 -0.17220324309E+03  0.18598291359E+03  0.47000000000E+01 0. -1.
         -5    1    4    4    0  502 -0.15853581407E+02  0.19743218783E+02 -0.14825116583E+01  0.25795708405E+02  0.47000000000E+01 0. -1.
          5    1    5    5  503    0  0.44752287708E+02 -0.28086673498E+02 -0.17636825891E+02  0.55899696875E+02  0.47000000000E+01 0.  1.
         -5    1    5    5    0  503 -0.74935810822E+02 -0.44516570104E+02 -0.97359898709E+02  0.13075985865E+03  0.47000000000E+01 0.  1.
<mgrwt>
<rscale>  0 0.27461866E+03</rscale>
<asrwt>0</asrwt>
<pdfrwt beam="1">  1        1 0.52855434E-01 0.27461866E+03</pdfrwt>
<pdfrwt beam="2">  1       -1 0.84427462E-02 0.27461866E+03</pdfrwt>
<totfact> 0.58033266E+03</totfact>
</mgrwt>
</event>
<event>
 9    1  0.2073852E-002  0.2744042E+03  0.7818608E-02  0.1098785E+00
          1   -1    0    0  501    0  0.00000000000E+00  0.00000000000E+00  0.28677518673E+03  0.28677518673E+03  0.00000000000E+00 0. -1.
         -1   -1    0    0    0  501 -0.00000000000E+00 -0.00000000000E+00 -0.65641727200E+02  0.65641727200E+02  0.00000000000E+00 0. -1.
         36    2    1    2    0    0  0.00000000000E+00  0.00000000000E+00  0.22113345953E+03  0.35241691393E+03  0.27440421699E+03 0.  0.
         25    2    3    3    0    0  0.34653544654E+02  0.40163358508E+02  0.12285668540E+03  0.18445649622E+03  0.12695066100E+03 0.  0.
         25    2    3    3    0    0 -0.34653544654E+02 -0.40163358508E+02  0.98276774135E+02  0.16796041771E+03  0.12545283599E+03 0.  0.
          5    1    4    4  502    0  0.15530424059E+02  0.80102498852E+02  0.41386304533E+02  0.91610701322E+02  0.47000000000E+01 0. -1.
         -5    1    4    4    0  502  0.19123120595E+02 -0.39939140344E+02  0.81470380864E+02  0.92845794901E+02  0.47000000000E+01 0. -1.
          5    1    5    5  503    0 -0.57312931979E+01  0.86740952858E+01 -0.27563722865E+02  0.29831802978E+02  0.47000000000E+01 0.  1.
         -5    1    5    5    0  503 -0.28922251456E+02 -0.48837453794E+02  0.12584049700E+03  0.13812861473E+03  0.47000000000E+01 0.  1.
<mgrwt>
<rscale>  0 0.27440422E+03</rscale>
<asrwt>0</asrwt>
<pdfrwt beam="1">  1        1 0.44119259E-01 0.27440422E+03</pdfrwt>
<pdfrwt beam="2">  1       -1 0.10098727E-01 0.27440422E+03</pdfrwt>
<totfact> 0.55318064E+03</totfact>
</mgrwt>
</event>
<event>
 9    1  0.2073852E-002  0.2737534E+03  0.7818608E-02  0.1099150E+00
         -2   -1    0    0    0  501 -0.00000000000E+00  0.00000000000E+00  0.10851303696E+03  0.10851303696E+03  0.00000000000E+00 0. -1.
          2   -1    0    0  501    0  0.00000000000E+00 -0.00000000000E+00 -0.17265425502E+03  0.17265425502E+03  0.00000000000E+00 0. -1.
         36    2    1    2    0    0 -0.71054273576E-14  0.00000000000E+00 -0.64141218060E+02  0.28116729197E+03  0.27375344787E+03 0.  0.
         25    2    3    3    0    0 -0.17223522856E+02 -0.41431739063E+02 -0.34267554423E+02  0.14206128907E+03  0.13036067591E+03 0.  0.
         25    2    3    3    0    0  0.17223522856E+02  0.41431739063E+02 -0.29873663637E+02  0.13910600290E+03  0.12823730161E+03 0.  0.
          5    1    4    4  502    0  0.35488407949E+02  0.21998278636E+00 -0.60080795246E+02  0.69937596817E+02  0.47000000000E+01 0.  1.
         -5    1    4    4    0  502 -0.52711930806E+02 -0.41651721849E+02  0.25813240823E+02  0.72123692252E+02  0.47000000000E+01 0.  1.
          5    1    5    5  503    0  0.38918405598E+02  0.72323940271E+02 -0.49798415136E+02  0.96163229879E+02  0.47000000000E+01 0. -1.
         -5    1    5    5    0  503 -0.21694882742E+02 -0.30892201209E+02  0.19924751499E+02  0.42942773024E+02  0.47000000000E+01 0. -1.
<mgrwt>
<rscale>  0 0.27375345E+03</rscale>
<asrwt>0</asrwt>
<pdfrwt beam="1">  1        2 0.26562193E-01 0.27375345E+03</pdfrwt>
<pdfrwt beam="2">  1       -2 0.16694313E-01 0.27375345E+03</pdfrwt>
<totfact> 0.57040378E+03</totfact>
</mgrwt>
</event>
<event>
 9    1  0.2073852E-002  0.2753189E+03  0.7818608E-02  0.1098273E+00
          1   -1    0    0  501    0  0.00000000000E+00  0.00000000000E+00  0.88472451532E+02  0.88472451532E+02  0.00000000000E+00 0.  1.
         -1   -1    0    0    0  501 -0.00000000000E+00 -0.00000000000E+00 -0.21419233579E+03  0.21419233579E+03  0.00000000000E+00 0.  1.
         36    2    1    2    0    0  0.00000000000E+00  0.00000000000E+00 -0.12571988426E+03  0.30266478732E+03  0.27531887728E+03 0.  0.
         25    2    3    3    0    0 -0.50483720756E+02 -0.23501800745E+02 -0.75184731009E+02  0.15795145510E+03  0.12725948960E+03 0.  0.
         25    2    3    3    0    0  0.50483720756E+02  0.23501800745E+02 -0.50535153248E+02  0.14471333222E+03  0.12364144171E+03 0.  0.
          5    1    4    4  502    0  0.20437649846E+02 -0.56700870838E+02 -0.31944129022E+02  0.68375460978E+02  0.47000000000E+01 0. -1.
         -5    1    4    4    0  502 -0.70921370603E+02  0.33199070092E+02 -0.43240601987E+02  0.89575994124E+02  0.47000000000E+01 0. -1.
          5    1    5    5  503    0 -0.23783196501E+02  0.39880787274E+02 -0.50161705101E+02  0.68515722926E+02  0.47000000000E+01 0.  1.
         -5    1    5    5    0  503  0.74266917257E+02 -0.16378986529E+02 -0.37344814742E+00  0.76197609294E+02  0.47000000000E+01 0.  1.
<mgrwt>
<rscale>  0 0.27531888E+03</rscale>
<asrwt>0</asrwt>
<pdfrwt beam="1">  1        1 0.13611146E-01 0.27531888E+03</pdfrwt>
<pdfrwt beam="2">  1       -1 0.32952667E-01 0.27531888E+03</pdfrwt>
<totfact> 0.36648079E+03</totfact>
</mgrwt>
</event>
<event>
 9    1  0.2073852E-002  0.2747697E+03  0.7818608E-02  0.1098580E+00
         -1   -1    0    0    0  501 -0.00000000000E+00  0.00000000000E+00  0.80054423229E+01  0.80054423229E+01  0.00000000000E+00 0. -1.
          1   -1    0    0  501    0  0.00000000000E+00 -0.00000000000E+00 -0.23577205637E+04  0.23577205637E+04  0.00000000000E+00 0. -1.
         36    2    1    2    0    0 -0.14210854715E-13  0.00000000000E+00 -0.23497151214E+04  0.23657260060E+04  0.27476969255E+03 0.  0.
         25    2    3    3    0    0 -0.42149483390E+02  0.37219440436E+02 -0.11202230489E+04  0.11282842080E+04  0.12232624061E+03 0.  0.
         25    2    3    3    0    0  0.42149483390E+02 -0.37219440436E+02 -0.12294920725E+04  0.12374417980E+04  0.12825592150E+03 0.  0.
          5    1    4    4  502    0  0.33358242330E+02 -0.18362983933E+02 -0.42961272449E+03  0.43132256440E+03  0.47000000000E+01 0.  1.
         -5    1    4    4    0  502 -0.75507725720E+02  0.55582424369E+02 -0.69061032436E+03  0.69696164361E+03  0.47000000000E+01 0.  1.
          5    1    5    5  503    0 -0.15492925786E+02 -0.48856825278E+02 -0.96845330686E+03  0.96982004397E+03  0.47000000000E+01 0. -1.
         -5    1    5    5    0  503  0.57642409176E+02  0.11637384842E+02 -0.26103876569E+03  0.26762175407E+03  0.47000000000E+01 0. -1.
<mgrwt>
<rscale>  0 0.27476969E+03</rscale>
<asrwt>0</asrwt>
<pdfrwt beam="1">  1        1 0.36272632E+00 0.27476969E+03</pdfrwt>
<pdfrwt beam="2">  1       -1 0.12316062E-02 0.27476969E+03</pdfrwt>
<totfact> 0.27389182E+03</totfact>
</mgrwt>
</event>
<event>
 9    1  0.2073852E-002  0.2754012E+03  0.7818608E-02  0.1098228E+00
          2   -1    0    0  501    0  0.00000000000E+00  0.00000000000E+00  0.21931083095E+04  0.21931083095E+04  0.00000000000E+00 0.  1.
         -2   -1    0    0    0  501 -0.00000000000E+00 -0.00000000000E+00 -0.86459253592E+01  0.86459253592E+01  0.00000000000E+00 0.  1.
         36    2    1    2    0    0 -0.35527136788E-14  0.00000000000E+00  0.21844623842E+04  0.22017542349E+04  0.27540116738E+03 0.  0.
         25    2    3    3    0    0 -0.14430692051E+02 -0.59376407369E+02  0.10742207188E+04  0.10831066748E+04  0.12424215707E+03 0.  0.
         25    2    3    3    0    0  0.14430692051E+02  0.59376407369E+02  0.11102416654E+04  0.11186475601E+04  0.12248267480E+03 0.  0.
          5    1    4    4  502    0 -0.69485578190E+02 -0.34542191823E+02  0.57979606561E+03  0.58498459492E+03  0.47000000000E+01 0.  1.
         -5    1    4    4    0  502  0.55054886138E+02 -0.24834215546E+02  0.49442465320E+03  0.49812207985E+03  0.47000000000E+01 0.  1.
          5    1    5    5  503    0  0.31422138624E+02  0.38405024174E+02  0.10620007553E+04  0.10631697847E+04  0.47000000000E+01 0. -1.
         -5    1    5    5    0  503 -0.16991446573E+02  0.20971383196E+02  0.48240910036E+02  0.55477775468E+02  0.47000000000E+01 0. -1.
<mgrwt>
<rscale>  0 0.27540117E+03</rscale>
<asrwt>0</asrwt>
<pdfrwt beam="1">  1        2 0.33740083E+00 0.27540117E+03</pdfrwt>
<pdfrwt beam="2">  1       -2 0.13301441E-02 0.27540117E+03</pdfrwt>
<totfact> 0.82600309E+03</totfact>
</mgrwt>
</event>
<event>
 9    1  0.2073852E-002  0.2751452E+03  0.7818608E-02  0.1098370E+00
         -2   -1    0    0    0  501 -0.00000000000E+00  0.00000000000E+00  0.15737243897E+02  0.15737243897E+02  0.00000000000E+00 0. -1.
          2   -1    0    0  501    0  0.00000000000E+00 -0.00000000000E+00 -0.12026389124E+04  0.12026389124E+04  0.00000000000E+00 0. -1.
         36    2    1    2    0    0  0.00000000000E+00  0.00000000000E+00 -0.11869016685E+04  0.12183761563E+04  0.27514521173E+03 0.  0.
         25    2    3    3    0    0  0.24143973909E+02  0.40439809462E+02 -0.46331127463E+03  0.48278185783E+03  0.12728973006E+03 0.  0.
         25    2    3    3    0    0 -0.24143973909E+02 -0.40439809462E+02 -0.72359039389E+03  0.73559429849E+03  0.12368348384E+03 0.  0.
          5    1    4    4  502    0 -0.15767903374E+02  0.62894787506E+02 -0.12072822372E+03  0.13711956488E+03  0.47000000000E+01 0.  1.
         -5    1    4    4    0  502  0.39911877283E+02 -0.22454978044E+02 -0.34258305092E+03  0.34566229295E+03  0.47000000000E+01 0.  1.
          5    1    5    5  503    0  0.22925696601E+02 -0.31247080139E+01 -0.57174779439E+03  0.57223507561E+03  0.47000000000E+01 0. -1.
         -5    1    5    5    0  503 -0.47069670510E+02 -0.37315101448E+02 -0.15184259949E+03  0.16335922288E+03  0.47000000000E+01 0. -1.
<mgrwt>
<rscale>  0 0.27514521E+03</rscale>
<asrwt>0</asrwt>
<pdfrwt beam="1">  1        2 0.18502142E+00 0.27514521E+03</pdfrwt>
<pdfrwt beam="2">  1       -2 0.24211137E-02 0.27514521E+03</pdfrwt>
<totfact> 0.11589936E+04</totfact>
</mgrwt>
</event>
<event>
 9    1  0.2073852E-002  0.2729472E+03  0.7818608E-02  0.1099605E+00
          1   -1    0    0  501    0  0.00000000000E+00  0.00000000000E+00  0.73451289232E+02  0.73451289232E+02  0.00000000000E+00 0.  1.
         -1   -1    0    0    0  501 -0.00000000000E+00 -0.00000000000E+00 -0.25357008671E+03  0.25357008671E+03  0.00000000000E+00 0.  1.
         36    2    1    2    0    0  0.00000000000E+00  0.00000000000E+00 -0.18011879747E+03  0.32702137594E+03  0.27294724603E+03 0.  0.
         25    2    3    3    0    0  0.69907713958E+02 -0.25277371711E+02 -0.47213976548E+02  0.13095428864E+03  0.96921783624E+02 0.  0.
         25    2    3    3    0    0 -0.69907713958E+02  0.25277371711E+02 -0.13290482093E+03  0.19606708730E+03  0.12350132511E+03 0.  0.
          5    1    4    4  502    0  0.31102901327E+02 -0.28941994474E+02  0.24448195543E+02  0.49242601276E+02  0.47000000000E+01 0.  1.
         -5    1    4    4    0  502  0.38804812632E+02  0.36646227630E+01 -0.71662172092E+02  0.81711687367E+02  0.47000000000E+01 0.  1.
          5    1    5    5  503    0 -0.45125803215E+02  0.39436688818E+02 -0.64535869661E-01  0.60113931044E+02  0.47000000000E+01 0.  1.
         -5    1    5    5    0  503 -0.24781910744E+02 -0.14159317107E+02 -0.13284028506E+03  0.13595315625E+03  0.47000000000E+01 0.  1.
<mgrwt>
<rscale>  0 0.27294725E+03</rscale>
<asrwt>0</asrwt>
<pdfrwt beam="1">  1        1 0.11300198E-01 0.27294725E+03</pdfrwt>
<pdfrwt beam="2">  1       -1 0.39010783E-01 0.27294725E+03</pdfrwt>
<totfact> 0.34943531E+03</totfact>
</mgrwt>
</event>
<event>
 9    1  0.2073852E-002  0.2745809E+03  0.7818608E-02  0.1098686E+00
         -4   -1    0    0    0  501 -0.00000000000E+00  0.00000000000E+00  0.15582254955E+03  0.15582254955E+03  0.00000000000E+00 0.  1.
          4   -1    0    0  501    0  0.00000000000E+00 -0.00000000000E+00 -0.12096235521E+03  0.12096235521E+03  0.00000000000E+00 0.  1.
         36    2    1    2    0    0 -0.71054273576E-14 -0.71054273576E-14  0.34860194337E+02  0.27678490476E+03  0.27458086305E+03 0.  0.
         25    2    3    3    0    0  0.44355221782E+02  0.31219611127E+02  0.23494404055E+02  0.14072874897E+03  0.12771273995E+03 0.  0.
         25    2    3    3    0    0 -0.44355221782E+02 -0.31219611127E+02  0.11365790282E+02  0.13605615580E+03  0.12425798374E+03 0.  0.
          5    1    4    4  502    0  0.36339826710E+02  0.78894839445E+02  0.50418013914E+00  0.86990360926E+02  0.47000000000E+01 0. -1.
         -5    1    4    4    0  502  0.80153950713E+01 -0.47675228319E+02  0.22990223916E+02  0.53738388039E+02  0.47000000000E+01 0. -1.
          5    1    5    5  503    0  0.38303584998E+02 -0.31357162706E+02 -0.96175013580E+01  0.50646052255E+02  0.47000000000E+01 0.  1.
         -5    1    5    5    0  503 -0.82658806780E+02  0.13755157896E+00  0.20983291640E+02  0.85410103540E+02  0.47000000000E+01 0.  1.
<mgrwt>
<rscale>  0 0.27458086E+03</rscale>
<asrwt>0</asrwt>
<pdfrwt beam="1">  1        4 0.18609593E-01 0.27458086E+03</pdfrwt>
<pdfrwt beam="2">  1       -4 0.23972700E-01 0.27458086E+03</pdfrwt>
<totfact> 0.78022030E+02</totfact>
</mgrwt>
</event>
<event>
 9    1  0.2073852E-002  0.2749209E+03  0.7818608E-02  0.1098496E+00
          1   -1    0    0  501    0  0.00000000000E+00  0.00000000000E+00  0.51658662693E+02  0.51658662693E+02  0.00000000000E+00 0.  1.
         -1   -1    0    0    0  501 -0.00000000000E+00 -0.00000000000E+00 -0.36577353058E+03  0.36577353058E+03  0.00000000000E+00 0.  1.
         36    2    1    2    0    0  0.00000000000E+00  0.44408920985E-15 -0.31411486788E+03  0.41743219327E+03  0.27492087180E+03 0.  0.
         25    2    3    3    0    0 -0.19457772819E+02 -0.24367545233E+01 -0.21682376195E+03  0.25144073318E+03  0.12579887066E+03 0.  0.
         25    2    3    3    0    0  0.19457772819E+02  0.24367545233E+01 -0.97291105930E+02  0.16599146009E+03  0.13305285729E+03 0.  0.
          5    1    4    4  502    0 -0.42438497477E+02 -0.15453358527E+01 -0.22309066119E+03  0.22714521180E+03  0.47000000000E+01 0. -1.
         -5    1    4    4    0  502  0.22980724658E+02 -0.89141867059E+00  0.62668992413E+01  0.24295521380E+02  0.47000000000E+01 0. -1.
          5    1    5    5  503    0 -0.57017020102E+02  0.26516864917E+01 -0.33935831226E+02  0.66571034719E+02  0.47000000000E+01 0.  1.
         -5    1    5    5    0  503  0.76474792922E+02 -0.21493196844E+00 -0.63355274704E+02  0.99420425371E+02  0.47000000000E+01 0.  1.
<mgrwt>
<rscale>  0 0.27492087E+03</rscale>
<asrwt>0</asrwt>
<pdfrwt beam="1">  1        1 0.79474864E-02 0.27492087E+03</pdfrwt>
<pdfrwt beam="2">  1       -1 0.56272852E-01 0.27492087E+03</pdfrwt>
<totfact> 0.28750611E+03</totfact>
</mgrwt>
</event>
<event>
 9    1  0.2073852E-002  0.2749654E+03  0.7818608E-02  0.1098471E+00
          1   -1    0    0  501    0  0.00000000000E+00  0.00000000000E+00  0.11170695906E+04  0.11170695906E+04  0.00000000000E+00 0. -1.
         -1   -1    0    0    0  501 -0.00000000000E+00 -0.00000000000E+00 -0.16920606966E+02  0.16920606966E+02  0.00000000000E+00 0. -1.
         36    2    1    2    0    0  0.71054273576E-14  0.00000000000E+00  0.11001489836E+04  0.11339901976E+04  0.27496541962E+03 0.  0.
         25    2    3    3    0    0  0.14182524242E+02  0.55001017355E+01  0.78590949783E+03  0.79657963573E+03  0.12905030866E+03 0.  0.
         25    2    3    3    0    0 -0.14182524242E+02 -0.55001017355E+01  0.31423948580E+03  0.33741056183E+03  0.12193456314E+03 0.  0.
          5    1    4    4  502    0 -0.26177760267E+02 -0.45359657144E+02  0.52680067652E+03  0.52941837559E+03  0.47000000000E+01 0. -1.
         -5    1    4    4    0  502  0.40360284509E+02  0.50859758880E+02  0.25910882131E+03  0.26716126014E+03  0.47000000000E+01 0. -1.
          5    1    5    5  503    0  0.35905469921E+02  0.27923290495E+02  0.22534968404E+03  0.22994234716E+03  0.47000000000E+01 0.  1.
         -5    1    5    5    0  503 -0.50087994163E+02 -0.33423392231E+02  0.88889801761E+02  0.10746821467E+03  0.47000000000E+01 0.  1.
<mgrwt>
<rscale>  0 0.27496542E+03</rscale>
<asrwt>0</asrwt>
<pdfrwt beam="1">  1        1 0.17185680E+00 0.27496542E+03</pdfrwt>
<pdfrwt beam="2">  1       -1 0.26031712E-02 0.27496542E+03</pdfrwt>
<totfact> 0.60996371E+03</totfact>
</mgrwt>
</event>
<event>
 9    1  0.2073852E-002  0.2750883E+03  0.7818608E-02  0.1098402E+00
         -1   -1    0    0    0  501 -0.00000000000E+00  0.00000000000E+00  0.12202902458E+02  0.12202902458E+02  0.00000000000E+00 0. -1.
          1   -1    0    0  501    0  0.00000000000E+00 -0.00000000000E+00 -0.15503189254E+04  0.15503189254E+04  0.00000000000E+00 0. -1.
         36    2    1    2    0    0  0.71054273576E-14  0.00000000000E+00 -0.15381160229E+04  0.15625218279E+04  0.27508828129E+03 0.  0.
         25    2    3    3    0    0 -0.22427813140E+02 -0.46874223106E+02 -0.81227216110E+03  0.82365021799E+03  0.12614839797E+03 0.  0.
         25    2    3    3    0    0  0.22427813140E+02  0.46874223106E+02 -0.72584386185E+03  0.73887160987E+03  0.12799118913E+03 0.  0.
          5    1    4    4  502    0  0.39370292371E+02  0.61378197421E+01 -0.11865700751E+03  0.12525680893E+03  0.47000000000E+01 0. -1.
         -5    1    4    4    0  502 -0.61798105511E+02 -0.53012042848E+02 -0.69361515359E+03  0.69839340906E+03  0.47000000000E+01 0. -1.
          5    1    5    5  503    0  0.62828384052E+02  0.18045895993E+02 -0.59912380230E+03  0.60269766939E+03  0.47000000000E+01 0. -1.
         -5    1    5    5    0  503 -0.40400570912E+02  0.28828327113E+02 -0.12672005955E+03  0.13617394048E+03  0.47000000000E+01 0. -1.
<mgrwt>
<rscale>  0 0.27508828E+03</rscale>
<asrwt>0</asrwt>
<pdfrwt beam="1">  1        1 0.23851061E+00 0.27508828E+03</pdfrwt>
<pdfrwt beam="2">  1       -1 0.18773696E-02 0.27508828E+03</pdfrwt>
<totfact> 0.49858941E+03</totfact>
</mgrwt>
</event>
<event>
 9    1  0.2073852E-002  0.2869734E+03  0.7818608E-02  0.1091940E+00
         -1   -1    0    0    0  501 -0.00000000000E+00  0.00000000000E+00  0.19027777101E+03  0.19027777101E+03  0.00000000000E+00 0.  1.
          1   -1    0    0  501    0  0.00000000000E+00 -0.00000000000E+00 -0.10820199377E+03  0.10820199377E+03  0.00000000000E+00 0.  1.
         36    2    1    2    0    0 -0.71054273576E-14  0.00000000000E+00  0.82075777232E+02  0.29847976478E+03  0.28697340779E+03 0.  0.
         25    2    3    3    0    0  0.32380354847E+02 -0.29887354742E+01  0.71048531480E+02  0.14426303982E+03  0.12127040411E+03 0.  0.
         25    2    3    3    0    0 -0.32380354847E+02  0.29887354742E+01  0.11027245751E+02  0.15421672496E+03  0.15034552933E+03 0.  0.
          5    1    4    4  502    0  0.71399467015E+02 -0.29497468986E+02  0.51619858131E+02  0.93030555841E+02  0.47000000000E+01 0. -1.
         -5    1    4    4    0  502 -0.39019112168E+02  0.26508733511E+02  0.19428673349E+02  0.51232483981E+02  0.47000000000E+01 0. -1.
          5    1    5    5  503    0  0.54209449194E+02  0.27561759267E+02 -0.96233977947E+01  0.61749613286E+02  0.47000000000E+01 0.  1.
         -5    1    5    5    0  503 -0.86589804042E+02 -0.24573023793E+02  0.20650643546E+02  0.92467111673E+02  0.47000000000E+01 0.  1.
<mgrwt>
<rscale>  0 0.28697341E+03</rscale>
<asrwt>0</asrwt>
<pdfrwt beam="1">  1        1 0.16646461E-01 0.28697341E+03</pdfrwt>
<pdfrwt beam="2">  1       -1 0.29273503E-01 0.28697341E+03</pdfrwt>
<totfact> 0.34489243E+03</totfact>
</mgrwt>
</event>
<event>
 9    1  0.2073852E-002  0.2749664E+03  0.7818608E-02  0.1098470E+00
         -2   -1    0    0    0  501 -0.00000000000E+00  0.00000000000E+00  0.73917444012E+01  0.73917444012E+01  0.00000000000E+00 0.  1.
          2   -1    0    0  501    0  0.00000000000E+00 -0.00000000000E+00 -0.25571272021E+04  0.25571272021E+04  0.00000000000E+00 0.  1.
         36    2    1    2    0    0 -0.14210854715E-13  0.71054273576E-14 -0.25497354577E+04  0.25645189465E+04  0.27496640289E+03 0.  0.
         25    2    3    3    0    0  0.57677135582E+02 -0.17281586143E+02 -0.12130727459E+04  0.12203438964E+04  0.11861042718E+03 0.  0.
         25    2    3    3    0    0 -0.57677135582E+02  0.17281586143E+02 -0.13366627118E+04  0.13441750501E+04  0.12850702325E+03 0.  0.
          5    1    4    4  502    0  0.59556096981E+02 -0.58422023406E+02 -0.98477487683E+03  0.98831356843E+03  0.47000000000E+01 0.  1.
         -5    1    4    4    0  502 -0.18789613990E+01  0.41140437263E+02 -0.22829786906E+03  0.23203032796E+03  0.47000000000E+01 0.  1.
          5    1    5    5  503    0  0.40173044574E+02  0.57137144721E+01 -0.28789526516E+03  0.29077877113E+03  0.47000000000E+01 0. -1.
         -5    1    5    5    0  503 -0.97850180156E+02  0.11567871671E+02 -0.10487674466E+04  0.10533962789E+04  0.47000000000E+01 0. -1.
<mgrwt>
<rscale>  0 0.27496640E+03</rscale>
<asrwt>0</asrwt>
<pdfrwt beam="1">  1        2 0.39340479E+00 0.27496640E+03</pdfrwt>
<pdfrwt beam="2">  1       -2 0.11371897E-02 0.27496640E+03</pdfrwt>
<totfact> 0.65963888E+03</totfact>
</mgrwt>
</event>
<event>
 9    1  0.2073852E-002  0.2748627E+03  0.7818608E-02  0.1098528E+00
         -3   -1    0    0    0  501 -0.00000000000E+00  0.00000000000E+00  0.35291821921E+03  0.35291821921E+03  0.00000000000E+00 0.  1.
          3   -1    0    0  501    0  0.00000000000E+00 -0.00000000000E+00 -0.53517697373E+02  0.53517697373E+02  0.00000000000E+00 0.  1.
         36    2    1    2    0    0  0.71054273576E-14  0.00000000000E+00  0.29940052183E+03  0.40643591658E+03  0.27486265991E+03 0.  0.
         25    2    3    3    0    0 -0.34198575274E+02  0.46165945580E+02  0.12044505534E+03  0.18027152504E+03  0.12120220419E+03 0.  0.
         25    2    3    3    0    0  0.34198575274E+02 -0.46165945580E+02  0.17895546650E+03  0.22616439154E+03  0.12579521426E+03 0.  0.
          5    1    4    4  502    0  0.43957894968E+02  0.34551758260E+01  0.32169272600E+02  0.54783089267E+02  0.47000000000E+01 0.  1.
         -5    1    4    4    0  502 -0.78156470242E+02  0.42710769754E+02  0.88275782739E+02  0.12548843577E+03  0.47000000000E+01 0.  1.
          5    1    5    5  503    0  0.21544847756E+02  0.25052410257E+02  0.31363951719E+00  0.33376520104E+02  0.47000000000E+01 0.  1.
         -5    1    5    5    0  503  0.12653727519E+02 -0.71218355837E+02  0.17864182698E+03  0.19278787144E+03  0.47000000000E+01 0.  1.
<mgrwt>
<rscale>  0 0.27486266E+03</rscale>
<asrwt>0</asrwt>
<pdfrwt beam="1">  1        3 0.82334921E-02 0.27486266E+03</pdfrwt>
<pdfrwt beam="2">  1       -3 0.54295109E-01 0.27486266E+03</pdfrwt>
<totfact> 0.87441085E+02</totfact>
</mgrwt>
</event>
<event>
 9    1  0.2073852E-002  0.2749779E+03  0.7818608E-02  0.1098464E+00
         -1   -1    0    0    0  501 -0.00000000000E+00  0.00000000000E+00  0.14036985219E+03  0.14036985219E+03  0.00000000000E+00 0. -1.
          1   -1    0    0  501    0  0.00000000000E+00 -0.00000000000E+00 -0.13466713587E+03  0.13466713587E+03  0.00000000000E+00 0. -1.
         36    2    1    2    0    0  0.00000000000E+00  0.00000000000E+00  0.57027163268E+01  0.27503698806E+03  0.27497786061E+03 0.  0.
         25    2    3    3    0    0  0.13067861428E+02  0.15737165045E+02 -0.41087193366E+02  0.14036097687E+03  0.13264470966E+03 0.  0.
         25    2    3    3    0    0 -0.13067861428E+02 -0.15737165045E+02  0.46789909693E+02  0.13467601119E+03  0.12461903938E+03 0.  0.
          5    1    4    4  502    0  0.63182505623E+01  0.67655269231E+02 -0.53190119962E+02  0.86420105337E+02  0.47000000000E+01 0.  1.
         -5    1    4    4    0  502  0.67496108661E+01 -0.51918104185E+02  0.12102926596E+02  0.53940871528E+02  0.47000000000E+01 0.  1.
          5    1    5    5  503    0 -0.20843894477E+02  0.34726537413E+02  0.67919131274E+02  0.79218045486E+02  0.47000000000E+01 0.  1.
         -5    1    5    5    0  503  0.77760330484E+01 -0.50463702458E+02 -0.21129221581E+02  0.55457965707E+02  0.47000000000E+01 0.  1.
<mgrwt>
<rscale>  0 0.27497786E+03</rscale>
<asrwt>0</asrwt>
<pdfrwt beam="1">  1        1 0.20718021E-01 0.27497786E+03</pdfrwt>
<pdfrwt beam="2">  1       -1 0.21595362E-01 0.27497786E+03</pdfrwt>
<totfact> 0.43071703E+03</totfact>
</mgrwt>
</event>
<event>
 9    1  0.2073852E-002  0.2745907E+03  0.7818608E-02  0.1098681E+00
         -3   -1    0    0    0  501 -0.00000000000E+00  0.00000000000E+00  0.10810075133E+02  0.10810075133E+02  0.00000000000E+00 0.  1.
          3   -1    0    0  501    0  0.00000000000E+00 -0.00000000000E+00 -0.17437451840E+04  0.17437451840E+04  0.00000000000E+00 0.  1.
         36    2    1    2    0    0 -0.35527136788E-14  0.71054273576E-14 -0.17329351089E+04  0.17545552592E+04  0.27459072419E+03 0.  0.
         25    2    3    3    0    0  0.18179144934E+02 -0.48370320580E+02 -0.73929009260E+03  0.75175053405E+03  0.12613031042E+03 0.  0.
         25    2    3    3    0    0 -0.18179144934E+02  0.48370320580E+02 -0.99364501632E+03  0.10028047251E+04  0.12496691191E+03 0.  0.
          5    1    4    4  502    0 -0.13657349482E+02  0.36710359379E+02 -0.13477462542E+03  0.14042956717E+03  0.47000000000E+01 0.  1.
         -5    1    4    4    0  502  0.31836494416E+02 -0.85080679959E+02 -0.60451546718E+03  0.61132096687E+03  0.47000000000E+01 0.  1.
          5    1    5    5  503    0 -0.35852604717E+02 -0.34211739463E+02 -0.42456512892E+03  0.42747338055E+03  0.47000000000E+01 0. -1.
         -5    1    5    5    0  503  0.17673459783E+02  0.82582060043E+02 -0.56907988740E+03  0.57533134459E+03  0.47000000000E+01 0. -1.
<mgrwt>
<rscale>  0 0.27459072E+03</rscale>
<asrwt>0</asrwt>
<pdfrwt beam="1">  1        3 0.26826827E+00 0.27459072E+03</pdfrwt>
<pdfrwt beam="2">  1       -3 0.16630899E-02 0.27459072E+03</pdfrwt>
<totfact> 0.21051064E+02</totfact>
</mgrwt>
</event>
<event>
 9    1  0.2073852E-002  0.2753861E+03  0.7818608E-02  0.1098236E+00
          2   -1    0    0  501    0  0.00000000000E+00  0.00000000000E+00  0.19084264297E+04  0.19084264297E+04  0.00000000000E+00 0.  1.
         -2   -1    0    0    0  501 -0.00000000000E+00 -0.00000000000E+00 -0.99345629713E+01  0.99345629713E+01  0.00000000000E+00 0.  1.
         36    2    1    2    0    0  0.00000000000E+00 -0.71054273576E-14  0.18984918667E+04  0.19183609926E+04  0.27538614738E+03 0.  0.
         25    2    3    3    0    0  0.31508169638E+02 -0.63036600567E+02  0.10758534957E+04  0.10853287576E+04  0.12454473124E+03 0.  0.
         25    2    3    3    0    0 -0.31508169638E+02  0.63036600567E+02  0.82263837097E+03  0.83303223502E+03  0.11064554861E+03 0.  0.
          5    1    4    4  502    0 -0.47067391689E+02 -0.12567865454E+02  0.32199266886E+03  0.32569104901E+03  0.47000000000E+01 0. -1.
         -5    1    4    4    0  502  0.78575561327E+02 -0.50468735113E+02  0.75386082686E+03  0.75963770861E+03  0.47000000000E+01 0. -1.
          5    1    5    5  503    0 -0.44609505863E+02  0.64704144884E+02  0.81099879342E+03  0.81481149188E+03  0.47000000000E+01 0.  1.
         -5    1    5    5    0  503  0.13101336225E+02 -0.16675443166E+01  0.11639577549E+02  0.18220743136E+02  0.47000000000E+01 0.  1.
<mgrwt>
<rscale>  0 0.27538615E+03</rscale>
<asrwt>0</asrwt>
<pdfrwt beam="1">  1        2 0.29360377E+00 0.27538615E+03</pdfrwt>
<pdfrwt beam="2">  1       -2 0.15283958E-02 0.27538615E+03</pdfrwt>
<totfact> 0.95279115E+03</totfact>
</mgrwt>
</event>
<event>
 9    1  0.2073852E-002  0.2751765E+03  0.7818608E-02  0.1098353E+00
          2   -1    0    0  501    0  0.00000000000E+00  0.00000000000E+00  0.15668614116E+04  0.15668614116E+04  0.00000000000E+00 0. -1.
         -2   -1    0    0    0  501 -0.00000000000E+00 -0.00000000000E+00 -0.12081814199E+02  0.12081814199E+02  0.00000000000E+00 0. -1.
         36    2    1    2    0    0  0.00000000000E+00  0.35527136788E-14  0.15547795974E+04  0.15789432258E+04  0.27517651390E+03 0.  0.
         25    2    3    3    0    0  0.43412352207E+02 -0.27729772233E+02  0.89501923966E+03  0.90520749005E+03  0.12525010213E+03 0.  0.
         25    2    3    3    0    0 -0.43412352207E+02  0.27729772233E+02  0.65976035772E+03  0.67373573573E+03  0.12642206845E+03 0.  0.
          5    1    4    4  502    0  0.43596712142E+02  0.27704911859E+02  0.16246752180E+03  0.17054624326E+03  0.47000000000E+01 0.  1.
         -5    1    4    4    0  502 -0.18435993486E+00 -0.55434684092E+02  0.73255171786E+03  0.73466124678E+03  0.47000000000E+01 0.  1.
          5    1    5    5  503    0  0.39493427681E+01 -0.27885868265E+02  0.46168554412E+03  0.46256767138E+03  0.47000000000E+01 0.  1.
         -5    1    5    5    0  503 -0.47361694976E+02  0.55615640498E+02  0.19807481360E+03  0.21116806435E+03  0.47000000000E+01 0.  1.
<mgrwt>
<rscale>  0 0.27517651E+03</rscale>
<asrwt>0</asrwt>
<pdfrwt beam="1">  1        2 0.24105544E+00 0.27517651E+03</pdfrwt>
<pdfrwt beam="2">  1       -2 0.18587419E-02 0.27517651E+03</pdfrwt>
<totfact> 0.10821704E+04</totfact>
</mgrwt>
</event>
<event>
 9    1  0.2073852E-002  0.2741729E+03  0.7818608E-02  0.1098915E+00
          1   -1    0    0  501    0  0.00000000000E+00  0.00000000000E+00  0.11828881136E+03  0.11828881136E+03  0.00000000000E+00 0. -1.
         -1   -1    0    0    0  501 -0.00000000000E+00 -0.00000000000E+00 -0.15887124069E+03  0.15887124069E+03  0.00000000000E+00 0. -1.
         36    2    1    2    0    0 -0.35527136788E-14  0.14210854715E-13 -0.40582429325E+02  0.27716005205E+03  0.27417286679E+03 0.  0.
         25    2    3    3    0    0 -0.21996904069E+01 -0.37986854194E+02 -0.42814222310E+02  0.13883536803E+03  0.12646881850E+03 0.  0.
         25    2    3    3    0    0  0.21996904069E+01  0.37986854194E+02  0.22317929846E+01  0.13832468402E+03  0.13296953629E+03 0.  0.
          5    1    4    4  502    0 -0.38779133932E+02  0.16735733151E+02  0.20677742035E+02  0.47260607363E+02  0.47000000000E+01 0.  1.
         -5    1    4    4    0  502  0.36579443525E+02 -0.54722587345E+02 -0.63491964345E+02  0.91574760664E+02  0.47000000000E+01 0.  1.
          5    1    5    5  503    0 -0.26297175465E+02 -0.42930093415E+02  0.11665832892E+02  0.51891386714E+02  0.47000000000E+01 0. -1.
         -5    1    5    5    0  503  0.28496865872E+02  0.80916947609E+02 -0.94340399074E+01  0.86433297310E+02  0.47000000000E+01 0. -1.
<mgrwt>
<rscale>  0 0.27417287E+03</rscale>
<asrwt>0</asrwt>
<pdfrwt beam="1">  1        1 0.18198279E-01 0.27417287E+03</pdfrwt>
<pdfrwt beam="2">  1       -1 0.24441729E-01 0.27417287E+03</pdfrwt>
<totfact> 0.41517217E+03</totfact>
</mgrwt>
</event>
<event>
 9    1  0.2073852E-002  0.2749666E+03  0.7818608E-02  0.1098470E+00
         -2   -1    0    0    0  501 -0.00000000000E+00  0.00000000000E+00  0.25451540119E+02  0.25451540119E+02  0.00000000000E+00 0.  1.
          2   -1    0    0  501    0  0.00000000000E+00 -0.00000000000E+00 -0.74265301675E+03  0.74265301675E+03  0.00000000000E+00 0.  1.
         36    2    1    2    0    0  0.14210854715E-13  0.00000000000E+00 -0.71720147663E+03  0.76810455687E+03  0.27496663834E+03 0.  0.
         25    2    3    3    0    0 -0.41666414359E+02  0.58308759118E+01 -0.34644563341E+03  0.37217425979E+03  0.12930202451E+03 0.  0.
         25    2    3    3    0    0  0.41666414359E+02 -0.58308759118E+01 -0.37075584322E+03  0.39593029708E+03  0.13240398658E+03 0.  0.
          5    1    4    4  502    0 -0.42986423469E+02 -0.43701111223E+02 -0.78828918574E+02  0.99968535692E+02  0.47000000000E+01 0. -1.
         -5    1    4    4    0  502  0.13200091093E+01  0.49531987135E+02 -0.26761671483E+03  0.27220572410E+03  0.47000000000E+01 0. -1.
          5    1    5    5  503    0  0.67952423428E+02 -0.38415488402E+02 -0.13151382469E+03  0.15300737787E+03  0.47000000000E+01 0. -1.
         -5    1    5    5    0  503 -0.26286009069E+02  0.32584612490E+02 -0.23924201854E+03  0.24292291921E+03  0.47000000000E+01 0. -1.
<mgrwt>
<rscale>  0 0.27496664E+03</rscale>
<asrwt>0</asrwt>
<pdfrwt beam="1">  1        2 0.11425429E+00 0.27496664E+03</pdfrwt>
<pdfrwt beam="2">  1       -2 0.39156221E-02 0.27496664E+03</pdfrwt>
<totfact> 0.11022943E+04</totfact>
</mgrwt>
</event>
<event>
 9    1  0.2073852E-002  0.2748462E+03  0.7818608E-02  0.1098538E+00
          2   -1    0    0  501    0  0.00000000000E+00  0.00000000000E+00  0.21353144652E+03  0.21353144652E+03  0.00000000000E+00 0.  1.
         -2   -1    0    0    0  501 -0.00000000000E+00 -0.00000000000E+00 -0.88441805309E+02  0.88441805309E+02  0.00000000000E+00 0.  1.
         36    2    1    2    0    0 -0.71054273576E-14  0.00000000000E+00  0.12508964121E+03  0.30197325183E+03  0.27484618695E+03 0.  0.
         25    2    3    3    0    0  0.59982227648E+02  0.48667512196E+01  0.69525969991E+02  0.15465752239E+03  0.12435246611E+03 0.  0.
         25    2    3    3    0    0 -0.59982227648E+02 -0.48667512196E+01  0.55563671215E+02  0.14731572943E+03  0.12244610928E+03 0.  0.
          5    1    4    4  502    0  0.72563106210E+02  0.19347737419E+02 -0.70508919459E+01  0.75574760359E+02  0.47000000000E+01 0. -1.
         -5    1    4    4    0  502 -0.12580878563E+02 -0.14480986199E+02  0.76576861937E+02  0.79082762033E+02  0.47000000000E+01 0. -1.
          5    1    5    5  503    0  0.80202012180E+01  0.35000658482E+01  0.75227006903E+02  0.75879948973E+02  0.47000000000E+01 0.  1.
         -5    1    5    5    0  503 -0.68002428866E+02 -0.83668170679E+01 -0.19663335688E+02  0.71435780459E+02  0.47000000000E+01 0.  1.
<mgrwt>
<rscale>  0 0.27484619E+03</rscale>
<asrwt>0</asrwt>
<pdfrwt beam="1">  1        2 0.32850992E-01 0.27484619E+03</pdfrwt>
<pdfrwt beam="2">  1       -2 0.13606432E-01 0.27484619E+03</pdfrwt>
<totfact> 0.63333615E+03</totfact>
</mgrwt>
</event>
<event>
 9    1  0.2073852E-002  0.2734682E+03  0.7818608E-02  0.1099311E+00
          1   -1    0    0  501    0  0.00000000000E+00  0.00000000000E+00  0.31170462731E+03  0.31170462731E+03  0.00000000000E+00 0. -1.
         -1   -1    0    0    0  501 -0.00000000000E+00 -0.00000000000E+00 -0.59980562334E+02  0.59980562334E+02  0.00000000000E+00 0. -1.
         36    2    1    2    0    0  0.00000000000E+00  0.35527136788E-14  0.25172406498E+03  0.37168518964E+03  0.27346823456E+03 0.  0.
         25    2    3    3    0    0  0.38845241927E+02 -0.26229050370E+02  0.76891737718E+02  0.15335994631E+03  0.12413709317E+03 0.  0.
         25    2    3    3    0    0 -0.38845241927E+02  0.26229050370E+02  0.17483232726E+03  0.21832524333E+03  0.12207642408E+03 0.  0.
          5    1    4    4  502    0  0.53679563681E+02  0.25964510045E+02  0.78718685222E+02  0.98865427436E+02  0.47000000000E+01 0.  1.
         -5    1    4    4    0  502 -0.14834321754E+02 -0.52193560415E+02 -0.18269475044E+01  0.54494518879E+02  0.47000000000E+01 0.  1.
          5    1    5    5  503    0 -0.28439387265E+02 -0.12925908634E+02 -0.66782144367E+01  0.32288796975E+02  0.47000000000E+01 0.  1.
         -5    1    5    5    0  503 -0.10405854662E+02  0.39154959004E+02  0.18151054169E+03  0.18603644635E+03  0.47000000000E+01 0.  1.
<mgrwt>
<rscale>  0 0.27346823E+03</rscale>
<asrwt>0</asrwt>
<pdfrwt beam="1">  1        1 0.47954557E-01 0.27346823E+03</pdfrwt>
<pdfrwt beam="2">  1       -1 0.92277790E-02 0.27346823E+03</pdfrwt>
<totfact> 0.57241154E+03</totfact>
</mgrwt>
</event>
<event>
 9    1  0.2073852E-002  0.2749355E+03  0.7818608E-02  0.1098488E+00
          2   -1    0    0  501    0  0.00000000000E+00  0.00000000000E+00  0.10923241285E+03  0.10923241285E+03  0.00000000000E+00 0. -1.
         -2   -1    0    0    0  501 -0.00000000000E+00 -0.00000000000E+00 -0.17300154136E+03  0.17300154136E+03  0.00000000000E+00 0. -1.
         36    2    1    2    0    0  0.00000000000E+00  0.00000000000E+00 -0.63769128509E+02  0.28223395421E+03  0.27493545271E+03 0.  0.
         25    2    3    3    0    0  0.27965996773E+01 -0.14713121596E+02  0.19638631180E+02  0.13047374746E+03  0.12811489385E+03 0.  0.
         25    2    3    3    0    0 -0.27965996773E+01  0.14713121596E+02 -0.83407759689E+02  0.15176020675E+03  0.12589681910E+03 0.  0.
          5    1    4    4  502    0 -0.58151565287E+02 -0.23529930147E+02  0.26641480460E+02  0.68316327764E+02  0.47000000000E+01 0. -1.
         -5    1    4    4    0  502  0.60948164965E+02  0.88168085508E+01 -0.70028492803E+01  0.62157419699E+02  0.47000000000E+01 0. -1.
          5    1    5    5  503    0  0.32406059319E+02  0.30898470923E+02  0.13734955378E+02  0.47070236723E+02  0.47000000000E+01 0. -1.
         -5    1    5    5    0  503 -0.35202658996E+02 -0.16185349327E+02 -0.97142715067E+02  0.10468997002E+03  0.47000000000E+01 0. -1.
<mgrwt>
<rscale>  0 0.27493545E+03</rscale>
<asrwt>0</asrwt>
<pdfrwt beam="1">  1        2 0.16804987E-01 0.27493545E+03</pdfrwt>
<pdfrwt beam="2">  1       -2 0.26615622E-01 0.27493545E+03</pdfrwt>
<totfact> 0.43000409E+03</totfact>
</mgrwt>
</event>
<event>
 9    1  0.2073852E-002  0.2742798E+03  0.7818608E-02  0.1098855E+00
          1   -1    0    0  501    0  0.00000000000E+00  0.00000000000E+00  0.17533137007E+03  0.17533137007E+03  0.00000000000E+00 0.  1.
         -1   -1    0    0    0  501 -0.00000000000E+00 -0.00000000000E+00 -0.10726749308E+03  0.10726749308E+03  0.00000000000E+00 0.  1.
         36    2    1    2    0    0  0.00000000000E+00  0.00000000000E+00  0.68063876998E+02  0.28259886315E+03  0.27427983175E+03 0.  0.
         25    2    3    3    0    0  0.50181238182E+01 -0.14027653107E+02 -0.17465131369E+02  0.12999076339E+03  0.12794768906E+03 0.  0.
         25    2    3    3    0    0 -0.50181238182E+01  0.14027653107E+02  0.85529008367E+02  0.15260809976E+03  0.12550722776E+03 0.  0.
          5    1    4    4  502    0 -0.55364936637E+02 -0.79226622203E+01 -0.35612183336E+02  0.66470763404E+02  0.47000000000E+01 0. -1.
         -5    1    4    4    0  502  0.60383060456E+02 -0.61049908868E+01  0.18147051967E+02  0.63519999991E+02  0.47000000000E+01 0. -1.
          5    1    5    5  503    0  0.57146726488E+02  0.12333372163E+02  0.63561290871E+02  0.86486924529E+02  0.47000000000E+01 0. -1.
         -5    1    5    5    0  503 -0.62164850307E+02  0.16942809442E+01  0.21967717496E+02  0.66121175228E+02  0.47000000000E+01 0. -1.
<mgrwt>
<rscale>  0 0.27427983E+03</rscale>
<asrwt>0</asrwt>
<pdfrwt beam="1">  1        1 0.26974057E-01 0.27427983E+03</pdfrwt>
<pdfrwt beam="2">  1       -1 0.16502691E-01 0.27427983E+03</pdfrwt>
<totfact> 0.47508843E+03</totfact>
</mgrwt>
</event>
<event>
 9    1  0.2073852E-002  0.2753022E+03  0.7818608E-02  0.1098283E+00
         -1   -1    0    0    0  501 -0.00000000000E+00  0.00000000000E+00  0.16624000176E+03  0.16624000176E+03  0.00000000000E+00 0.  1.
          1   -1    0    0  501    0  0.00000000000E+00 -0.00000000000E+00 -0.11397873600E+03  0.11397873600E+03  0.00000000000E+00 0.  1.
         36    2    1    2    0    0 -0.17763568394E-14  0.00000000000E+00  0.52261265763E+02  0.28021873776E+03  0.27530219958E+03 0.  0.
         25    2    3    3    0    0 -0.77215273313E+01 -0.31909456679E+02 -0.12111584769E+02  0.13209891371E+03  0.12737973586E+03 0.  0.
         25    2    3    3    0    0  0.77215273313E+01  0.31909456679E+02  0.64372850532E+02  0.14811982406E+03  0.12929726595E+03 0.  0.
          5    1    4    4  502    0  0.17568050133E+01  0.49183974127E+02 -0.89399190784E-01  0.49439333197E+02  0.47000000000E+01 0. -1.
         -5    1    4    4    0  502 -0.94783323446E+01 -0.81093430805E+02 -0.12022185578E+02  0.82659580509E+02  0.47000000000E+01 0. -1.
          5    1    5    5  503    0  0.67278186022E+02  0.27087175178E+02  0.27253693932E+02  0.77620378810E+02  0.47000000000E+01 0. -1.
         -5    1    5    5    0  503 -0.59556658691E+02  0.48222815008E+01  0.37119156599E+02  0.70499445246E+02  0.47000000000E+01 0. -1.
<mgrwt>
<rscale>  0 0.27530220E+03</rscale>
<asrwt>0</asrwt>
<pdfrwt beam="1">  1        1 0.17535190E-01 0.27530220E+03</pdfrwt>
<pdfrwt beam="2">  1       -1 0.25575385E-01 0.27530220E+03</pdfrwt>
<totfact> 0.40406715E+03</totfact>
</mgrwt>
</event>
<event>
 9    1  0.2073852E-002  0.2747303E+03  0.7818608E-02  0.1098602E+00
          2   -1    0    0  501    0  0.00000000000E+00  0.00000000000E+00  0.16964986502E+04  0.16964986502E+04  0.00000000000E+00 0.  1.
         -2   -1    0    0    0  501 -0.00000000000E+00 -0.00000000000E+00 -0.11122431823E+02  0.11122431823E+02  0.00000000000E+00 0.  1.
         36    2    1    2    0    0 -0.21316282073E-13  0.00000000000E+00  0.16853762184E+04  0.17076210821E+04  0.27473034470E+03 0.  0.
         25    2    3    3    0    0 -0.50456903773E+02  0.13207162390E+02  0.79414801889E+03  0.80568575972E+03  0.12545174063E+03 0.  0.
         25    2    3    3    0    0  0.50456903773E+02 -0.13207162390E+02  0.89122819951E+03  0.90193532233E+03  0.12837170165E+03 0.  0.
          5    1    4    4  502    0 -0.54901626769E+02  0.41978847941E+02  0.21707513962E+03  0.22785986601E+03  0.47000000000E+01 0. -1.
         -5    1    4    4    0  502  0.44447229965E+01 -0.28771685551E+02  0.57707287927E+03  0.57782589371E+03  0.47000000000E+01 0. -1.
          5    1    5    5  503    0 -0.20812567694E+02  0.59011842627E+01  0.63151538673E+03  0.63190328424E+03  0.47000000000E+01 0. -1.
         -5    1    5    5    0  503  0.71269471466E+02 -0.19108346653E+02  0.25971281278E+03  0.27003203809E+03  0.47000000000E+01 0. -1.
<mgrwt>
<rscale>  0 0.27473034E+03</rscale>
<asrwt>0</asrwt>
<pdfrwt beam="1">  1        2 0.26099959E+00 0.27473034E+03</pdfrwt>
<pdfrwt beam="2">  1       -2 0.17111447E-02 0.27473034E+03</pdfrwt>
<totfact> 0.10434199E+04</totfact>
</mgrwt>
</event>
<event>
 9    1  0.2073852E-002  0.2774880E+03  0.7818608E-02  0.1097069E+00
         -2   -1    0    0    0  501 -0.00000000000E+00  0.00000000000E+00  0.16684035278E+02  0.16684035278E+02  0.00000000000E+00 0.  1.
          2   -1    0    0  501    0  0.00000000000E+00 -0.00000000000E+00 -0.11537916031E+04  0.11537916031E+04  0.00000000000E+00 0.  1.
         36    2    1    2    0    0  0.00000000000E+00  0.00000000000E+00 -0.11371075678E+04  0.11704756384E+04  0.27748801639E+03 0.  0.
         25    2    3    3    0    0  0.47550130596E+02  0.42535839969E+02 -0.54313650474E+03  0.56088556262E+03  0.12459951434E+03 0.  0.
         25    2    3    3    0    0 -0.47550130596E+02 -0.42535839969E+02 -0.59397106307E+03  0.60959007575E+03  0.12135948287E+03 0.  0.
          5    1    4    4  502    0 -0.79277089554E+01  0.33363316986E+02 -0.33616587473E+02  0.48250641892E+02  0.47000000000E+01 0. -1.
         -5    1    4    4    0  502  0.55477839552E+02  0.91725229834E+01 -0.50951991727E+03  0.51263492073E+03  0.47000000000E+01 0. -1.
          5    1    5    5  503    0  0.38964964510E+02 -0.26971202538E+02 -0.25272642042E+03  0.25717396409E+03  0.47000000000E+01 0.  1.
         -5    1    5    5    0  503 -0.86515095106E+02 -0.15564637431E+02 -0.34124464265E+03  0.35241611166E+03  0.47000000000E+01 0.  1.
<mgrwt>
<rscale>  0 0.27748802E+03</rscale>
<asrwt>0</asrwt>
<pdfrwt beam="1">  1        2 0.17750645E+00 0.27748802E+03</pdfrwt>
<pdfrwt beam="2">  1       -2 0.25667740E-02 0.27748802E+03</pdfrwt>
<totfact> 0.11339144E+04</totfact>
</mgrwt>
</event>
<event>
 9    1  0.2073852E-002  0.2733808E+03  0.7818608E-02  0.1099360E+00
          2   -1    0    0  501    0  0.00000000000E+00  0.00000000000E+00  0.41542755081E+03  0.41542755081E+03  0.00000000000E+00 0. -1.
         -2   -1    0    0    0  501 -0.00000000000E+00 -0.00000000000E+00 -0.44976004634E+02  0.44976004634E+02  0.00000000000E+00 0. -1.
         36    2    1    2    0    0 -0.35527136788E-14  0.00000000000E+00  0.37045154618E+03  0.46040355545E+03  0.27338084388E+03 0.  0.
         25    2    3    3    0    0  0.17837866229E+02 -0.44873299067E+02  0.14894413023E+03  0.20082290659E+03  0.12575246892E+03 0.  0.
         25    2    3    3    0    0 -0.17837866229E+02  0.44873299067E+02  0.22150741594E+03  0.25958064886E+03  0.12643091197E+03 0.  0.
          5    1    4    4  502    0  0.44297051548E+02  0.30951124869E+02  0.61530206622E+02  0.82025954633E+02  0.47000000000E+01 0. -1.
         -5    1    4    4    0  502 -0.26459185319E+02 -0.75824423936E+02  0.87413923611E+02  0.11879695196E+03  0.47000000000E+01 0. -1.
          5    1    5    5  503    0  0.21881972814E+02  0.31505014847E+01  0.19445735380E+03  0.19576643952E+03  0.47000000000E+01 0.  1.
         -5    1    5    5    0  503 -0.39719839043E+02  0.41722797582E+02  0.27050062142E+02  0.63814209339E+02  0.47000000000E+01 0.  1.
<mgrwt>
<rscale>  0 0.27338084E+03</rscale>
<asrwt>0</asrwt>
<pdfrwt beam="1">  1        2 0.63911928E-01 0.27338084E+03</pdfrwt>
<pdfrwt beam="2">  1       -2 0.69193856E-02 0.27338084E+03</pdfrwt>
<totfact> 0.90230190E+03</totfact>
</mgrwt>
</event>
<event>
 9    1  0.2073852E-002  0.2744541E+03  0.7818608E-02  0.1098757E+00
         -2   -1    0    0    0  501 -0.00000000000E+00  0.00000000000E+00  0.39300553745E+02  0.39300553745E+02  0.00000000000E+00 0. -1.
          2   -1    0    0  501    0  0.00000000000E+00 -0.00000000000E+00 -0.47916029844E+03  0.47916029844E+03  0.00000000000E+00 0. -1.
         36    2    1    2    0    0  0.00000000000E+00  0.00000000000E+00 -0.43985974470E+03  0.51846085219E+03  0.27445411319E+03 0.  0.
         25    2    3    3    0    0  0.55474577121E+02 -0.18987649152E+02 -0.29232634386E+03  0.31707460018E+03  0.10790575165E+03 0.  0.
         25    2    3    3    0    0 -0.55474577121E+02  0.18987649152E+02 -0.14753340084E+03  0.20138625201E+03  0.12390463513E+03 0.  0.
          5    1    4    4  502    0 -0.17407321379E+02 -0.41856786373E+02 -0.12591138050E+03  0.13390582938E+03  0.47000000000E+01 0.  1.
         -5    1    4    4    0  502  0.72881898500E+02  0.22869137221E+02 -0.16641496336E+03  0.18316877080E+03  0.47000000000E+01 0.  1.
          5    1    5    5  503    0 -0.64037434364E+02 -0.36653273696E+02 -0.51964980242E+02  0.90369821534E+02  0.47000000000E+01 0. -1.
         -5    1    5    5    0  503  0.85628572433E+01  0.55640922848E+02 -0.95568420597E+02  0.11101643047E+03  0.47000000000E+01 0. -1.
<mgrwt>
<rscale>  0 0.27445411E+03</rscale>
<asrwt>0</asrwt>
<pdfrwt beam="1">  1        2 0.73716968E-01 0.27445411E+03</pdfrwt>
<pdfrwt beam="2">  1       -2 0.60462391E-02 0.27445411E+03</pdfrwt>
<totfact> 0.94951757E+03</totfact>
</mgrwt>
</event>
<event>
 9    1  0.2073852E-002  0.2753493E+03  0.7818608E-02  0.1098256E+00
         -3   -1    0    0    0  501 -0.00000000000E+00  0.00000000000E+00  0.36283251482E+02  0.36283251482E+02  0.00000000000E+00 0. -1.
          3   -1    0    0  501    0  0.00000000000E+00 -0.00000000000E+00 -0.52239847360E+03  0.52239847360E+03  0.00000000000E+00 0. -1.
         36    2    1    2    0    0  0.35527136788E-14 -0.35527136788E-14 -0.48611522212E+03  0.55868172508E+03  0.27534934314E+03 0.  0.
         25    2    3    3    0    0 -0.20365579902E+02  0.38335589147E+01 -0.34026350877E+03  0.36321677451E+03  0.12537031892E+03 0.  0.
         25    2    3    3    0    0  0.20365579902E+02 -0.38335589147E+01 -0.14585171335E+03  0.19546495057E+03  0.12846934108E+03 0.  0.
          5    1    4    4  502    0  0.18150847097E+02  0.24832108755E+02 -0.30541075257E+03  0.30699170129E+03  0.47000000000E+01 0.  1.
         -5    1    4    4    0  502 -0.38516426999E+02 -0.20998549840E+02 -0.34852756205E+02  0.56225073226E+02  0.47000000000E+01 0.  1.
          5    1    5    5  503    0 -0.38585680302E+02  0.40049032923E+02 -0.72854112941E+02  0.91774678070E+02  0.47000000000E+01 0. -1.
         -5    1    5    5    0  503  0.58951260204E+02 -0.43882591838E+02 -0.72997600406E+02  0.10369027250E+03  0.47000000000E+01 0. -1.
<mgrwt>
<rscale>  0 0.27534934E+03</rscale>
<asrwt>0</asrwt>
<pdfrwt beam="1">  1        3 0.80368997E-01 0.27534934E+03</pdfrwt>
<pdfrwt beam="2">  1       -3 0.55820386E-02 0.27534934E+03</pdfrwt>
<totfact> 0.71766410E+02</totfact>
</mgrwt>
</event>
<event>
 9    1  0.2073852E-002  0.2758817E+03  0.7818608E-02  0.1097960E+00
         -2   -1    0    0    0  501 -0.00000000000E+00  0.00000000000E+00  0.21141541095E+02  0.21141541095E+02  0.00000000000E+00 0.  1.
          2   -1    0    0  501    0  0.00000000000E+00 -0.00000000000E+00 -0.90001345845E+03  0.90001345845E+03  0.00000000000E+00 0.  1.
         36    2    1    2    0    0  0.00000000000E+00  0.35527136788E-14 -0.87887191735E+03  0.92115499954E+03  0.27588165229E+03 0.  0.
         25    2    3    3    0    0 -0.10508161022E+02 -0.26599228160E+02 -0.63505987523E+03  0.64552425298E+03  0.11217208059E+03 0.  0.
         25    2    3    3    0    0  0.10508161022E+02  0.26599228160E+02 -0.24381204212E+03  0.27563074657E+03  0.12533976298E+03 0.  0.
          5    1    4    4  502    0  0.25564948595E+02 -0.35201559096E+02 -0.55964593104E+03  0.56135405449E+03  0.47000000000E+01 0. -1.
         -5    1    4    4    0  502 -0.36073109618E+02  0.86023309352E+01 -0.75413944193E+02  0.84170198490E+02  0.47000000000E+01 0. -1.
          5    1    5    5  503    0 -0.44042894513E+02 -0.26749565718E+02 -0.88275277486E+02  0.10232267803E+03  0.47000000000E+01 0. -1.
         -5    1    5    5    0  503  0.54551055535E+02  0.53348793879E+02 -0.15553676463E+03  0.17330806854E+03  0.47000000000E+01 0. -1.
<mgrwt>
<rscale>  0 0.27588165E+03</rscale>
<asrwt>0</asrwt>
<pdfrwt beam="1">  1        2 0.13846361E+00 0.27588165E+03</pdfrwt>
<pdfrwt beam="2">  1       -2 0.32525448E-02 0.27588165E+03</pdfrwt>
<totfact> 0.11369051E+04</totfact>
</mgrwt>
</event>
<event>
 9    1  0.2073852E-002  0.2753607E+03  0.7818608E-02  0.1098250E+00
         -1   -1    0    0    0  501 -0.00000000000E+00  0.00000000000E+00  0.21871846159E+02  0.21871846159E+02  0.00000000000E+00 0. -1.
          1   -1    0    0  501    0  0.00000000000E+00 -0.00000000000E+00 -0.86667945724E+03  0.86667945724E+03  0.00000000000E+00 0. -1.
         36    2    1    2    0    0 -0.17763568394E-14  0.71054273576E-14 -0.84480761108E+03  0.88855130340E+03  0.27536070713E+03 0.  0.
         25    2    3    3    0    0 -0.13477496022E+02 -0.18395210036E+02 -0.24384762295E+03  0.27371952946E+03  0.12223211909E+03 0.  0.
         25    2    3    3    0    0  0.13477496022E+02  0.18395210036E+02 -0.60095998813E+03  0.61483177394E+03  0.12784825482E+03 0.  0.
          5    1    4    4  502    0 -0.56112084514E+02  0.83181032039E+01 -0.19611602551E+03  0.20420906525E+03  0.47000000000E+01 0. -1.
         -5    1    4    4    0  502  0.42634588492E+02 -0.26713313240E+02 -0.47731597445E+02  0.69510464211E+02  0.47000000000E+01 0. -1.
          5    1    5    5  503    0 -0.16637165771E+01  0.70227537744E+02 -0.25052755949E+03  0.26023224834E+03  0.47000000000E+01 0.  1.
         -5    1    5    5    0  503  0.15141212599E+02 -0.51832327708E+02 -0.35043242864E+03  0.35459952560E+03  0.47000000000E+01 0.  1.
<mgrwt>
<rscale>  0 0.27536071E+03</rscale>
<asrwt>0</asrwt>
<pdfrwt beam="1">  1        1 0.13333530E+00 0.27536071E+03</pdfrwt>
<pdfrwt beam="2">  1       -1 0.33648994E-02 0.27536071E+03</pdfrwt>
<totfact> 0.64508771E+03</totfact>
</mgrwt>
</event>
<event>
 9    1  0.2073852E-002  0.2752470E+03  0.7818608E-02  0.1098314E+00
          2   -1    0    0  501    0  0.00000000000E+00  0.00000000000E+00  0.26055372793E+04  0.26055372793E+04  0.00000000000E+00 0. -1.
         -2   -1    0    0    0  501 -0.00000000000E+00 -0.00000000000E+00 -0.72692229421E+01  0.72692229421E+01  0.00000000000E+00 0. -1.
         36    2    1    2    0    0 -0.14210854715E-13  0.71054273576E-14  0.25982680564E+04  0.26128065023E+04  0.27524702627E+03 0.  0.
         25    2    3    3    0    0  0.42883621866E+02 -0.49019777915E+02  0.10897660757E+04  0.10984423387E+04  0.12142293000E+03 0.  0.
         25    2    3    3    0    0 -0.42883621866E+02  0.49019777915E+02  0.15085019806E+04  0.15143641636E+04  0.11609759122E+03 0.  0.
          5    1    4    4  502    0 -0.39937458673E+00 -0.95427480800E+01  0.89356165258E+03  0.89362505588E+03  0.47000000000E+01 0. -1.
         -5    1    4    4    0  502  0.43282996453E+02 -0.39477029835E+02  0.19620442315E+03  0.20481728279E+03  0.47000000000E+01 0. -1.
          5    1    5    5  503    0 -0.48634776997E+02 -0.20416376826E+01  0.12391369053E+04  0.12401015563E+04  0.47000000000E+01 0. -1.
         -5    1    5    5    0  503  0.57511551313E+01  0.51061415598E+02  0.26936507534E+03  0.27426260730E+03  0.47000000000E+01 0. -1.
<mgrwt>
<rscale>  0 0.27524703E+03</rscale>
<asrwt>0</asrwt>
<pdfrwt beam="1">  1        2 0.40085114E+00 0.27524703E+03</pdfrwt>
<pdfrwt beam="2">  1       -2 0.11183441E-02 0.27524703E+03</pdfrwt>
<totfact> 0.63541862E+03</totfact>
</mgrwt>
</event>
<event>
 9    1  0.2073852E-002  0.2750035E+03  0.7818608E-02  0.1098450E+00
          2   -1    0    0  501    0  0.00000000000E+00  0.00000000000E+00  0.24516701920E+04  0.24516701920E+04  0.00000000000E+00 0.  1.
         -2   -1    0    0    0  501 -0.00000000000E+00 -0.00000000000E+00 -0.77117757947E+01  0.77117757947E+01  0.00000000000E+00 0.  1.
         36    2    1    2    0    0 -0.71054273576E-14 -0.71054273576E-14  0.24439584162E+04  0.24593819678E+04  0.27500349702E+03 0.  0.
         25    2    3    3    0    0 -0.16638930429E+02 -0.27151806051E+02  0.83106320317E+03  0.84137057876E+03  0.12737475643E+03 0.  0.
         25    2    3    3    0    0  0.16638930429E+02  0.27151806051E+02  0.16128952131E+04  0.16180113890E+04  0.12456248316E+03 0.  0.
          5    1    4    4  502    0  0.38857642321E+02  0.14569296692E+02  0.55866791191E+03  0.56022683493E+03  0.47000000000E+01 0. -1.
         -5    1    4    4    0  502 -0.55496572750E+02 -0.41721102742E+02  0.27239529125E+03  0.28114374384E+03  0.47000000000E+01 0. -1.
          5    1    5    5  503    0  0.12036471349E+02  0.21114164911E+02  0.57642250804E+02  0.62732795890E+02  0.47000000000E+01 0. -1.
         -5    1    5    5    0  503  0.46024590797E+01  0.60376411402E+01  0.15552529623E+04  0.15552785932E+04  0.47000000000E+01 0. -1.
<mgrwt>
<rscale>  0 0.27500350E+03</rscale>
<asrwt>0</asrwt>
<pdfrwt beam="1">  1        2 0.37717941E+00 0.27500350E+03</pdfrwt>
<pdfrwt beam="2">  1       -2 0.11864290E-02 0.27500350E+03</pdfrwt>
<totfact> 0.70849409E+03</totfact>
</mgrwt>
</event>
<event>
 9    1  0.2073852E-002  0.2742921E+03  0.7818608E-02  0.1098848E+00
         -2   -1    0    0    0  501 -0.00000000000E+00  0.00000000000E+00  0.15774700997E+02  0.15774700997E+02  0.00000000000E+00 0.  1.
          2   -1    0    0  501    0  0.00000000000E+00 -0.00000000000E+00 -0.11923545446E+04  0.11923545446E+04  0.00000000000E+00 0.  1.
         36    2    1    2    0    0  0.00000000000E+00 -0.71054273576E-14 -0.11765798436E+04  0.12081292456E+04  0.27429208099E+03 0.  0.
         25    2    3    3    0    0  0.23831788275E+02 -0.45082053572E+02 -0.71753402545E+03  0.72925556977E+03  0.11982596831E+03 0.  0.
         25    2    3    3    0    0 -0.23831788275E+02  0.45082053572E+02 -0.45904581817E+03  0.47887367584E+03  0.12647762074E+03 0.  0.
          5    1    4    4  502    0  0.41684678792E+02 -0.79336199549E+02 -0.54907758225E+03  0.55636330427E+03  0.47000000000E+01 0. -1.
         -5    1    4    4    0  502 -0.17852890518E+02  0.34254145977E+02 -0.16845644319E+03  0.17289226550E+03  0.47000000000E+01 0. -1.
          5    1    5    5  503    0  0.93596980132E+01  0.31447022177E+02 -0.43304650957E+03  0.43431312276E+03  0.47000000000E+01 0. -1.
         -5    1    5    5    0  503 -0.33191486288E+02  0.13635031394E+02 -0.25999308597E+02  0.44560553078E+02  0.47000000000E+01 0. -1.
<mgrwt>
<rscale>  0 0.27429208E+03</rscale>
<asrwt>0</asrwt>
<pdfrwt beam="1">  1        2 0.18343915E+00 0.27429208E+03</pdfrwt>
<pdfrwt beam="2">  1       -2 0.24268772E-02 0.27429208E+03</pdfrwt>
<totfact> 0.11704838E+04</totfact>
</mgrwt>
</event>
<event>
 9    1  0.2073852E-002  0.2741791E+03  0.7818608E-02  0.1098911E+00
         -2   -1    0    0    0  501 -0.00000000000E+00  0.00000000000E+00  0.15610328782E+02  0.15610328782E+02  0.00000000000E+00 0.  1.
          2   -1    0    0  501    0  0.00000000000E+00 -0.00000000000E+00 -0.12039171081E+04  0.12039171081E+04  0.00000000000E+00 0.  1.
         36    2    1    2    0    0  0.00000000000E+00 -0.71054273576E-14 -0.11883067793E+04  0.12195274369E+04  0.27417907932E+03 0.  0.
         25    2    3    3    0    0  0.41700148937E+02 -0.30335966389E+02 -0.90574893548E+03  0.91527967351E+03  0.12122942435E+03 0.  0.
         25    2    3    3    0    0 -0.41700148937E+02  0.30335966389E+02 -0.28255784385E+03  0.30424776339E+03  0.10034237953E+03 0.  0.
          5    1    4    4  502    0  0.74215423126E+02 -0.53421705371E+02 -0.63766687375E+03  0.64420721784E+03  0.47000000000E+01 0. -1.
         -5    1    4    4    0  502 -0.32515274189E+02  0.23085738982E+02 -0.26808206173E+03  0.27107245567E+03  0.47000000000E+01 0. -1.
          5    1    5    5  503    0 -0.32657038574E+02  0.45235473528E+02 -0.28055274898E+03  0.28608506636E+03  0.47000000000E+01 0. -1.
         -5    1    5    5    0  503 -0.90431103628E+01 -0.14899507139E+02 -0.20050948700E+01  0.18162697032E+02  0.47000000000E+01 0. -1.
<mgrwt>
<rscale>  0 0.27417908E+03</rscale>
<asrwt>0</asrwt>
<pdfrwt beam="1">  1        2 0.18521803E+00 0.27417908E+03</pdfrwt>
<pdfrwt beam="2">  1       -2 0.24015888E-02 0.27417908E+03</pdfrwt>
<totfact> 0.11708791E+04</totfact>
</mgrwt>
</event>
<event>
 9    1  0.2073852E-002  0.2752595E+03  0.7818608E-02  0.1098307E+00
         -2   -1    0    0    0  501 -0.00000000000E+00  0.00000000000E+00  0.30614093386E+02  0.30614093386E+02  0.00000000000E+00 0.  1.
          2   -1    0    0  501    0  0.00000000000E+00 -0.00000000000E+00 -0.61873297831E+03  0.61873297831E+03  0.00000000000E+00 0.  1.
         36    2    1    2    0    0  0.71054273576E-14 -0.10658141036E-13 -0.58811888493E+03  0.64934707170E+03  0.27525950795E+03 0.  0.
         25    2    3    3    0    0 -0.49160685226E+02  0.31366168067E+02 -0.30433219712E+03  0.33395686905E+03  0.12453310689E+03 0.  0.
         25    2    3    3    0    0  0.49160685226E+02 -0.31366168067E+02 -0.28378668781E+03  0.31539020265E+03  0.12464143082E+03 0.  0.
          5    1    4    4  502    0 -0.40998029769E+01 -0.15097512151E+02 -0.24647264534E+03  0.24701335624E+03  0.47000000000E+01 0. -1.
         -5    1    4    4    0  502 -0.45060882249E+02  0.46463680219E+02 -0.57859551775E+02  0.86943512812E+02  0.47000000000E+01 0. -1.
          5    1    5    5  503    0  0.74947468428E+02  0.19833918093E+02 -0.13318395621E+03  0.15417705252E+03  0.47000000000E+01 0. -1.
         -5    1    5    5    0  503 -0.25786783202E+02 -0.51200086160E+02 -0.15060273160E+03  0.16121315013E+03  0.47000000000E+01 0. -1.
<mgrwt>
<rscale>  0 0.27525951E+03</rscale>
<asrwt>0</asrwt>
<pdfrwt beam="1">  1        2 0.95189687E-01 0.27525951E+03</pdfrwt>
<pdfrwt beam="2">  1       -2 0.47098606E-02 0.27525951E+03</pdfrwt>
<totfact> 0.10389908E+04</totfact>
</mgrwt>
</event>
<event>
 9    1  0.2073852E-002  0.2754738E+03  0.7818608E-02  0.1098187E+00
          2   -1    0    0  501    0  0.00000000000E+00  0.00000000000E+00  0.93338737596E+03  0.93338737596E+03  0.00000000000E+00 0.  1.
         -2   -1    0    0    0  501 -0.00000000000E+00 -0.00000000000E+00 -0.20325380961E+02  0.20325380961E+02  0.00000000000E+00 0.  1.
         36    2    1    2    0    0  0.26645352591E-14  0.71054273576E-14  0.91306199499E+03  0.95371275692E+03  0.27547380275E+03 0.  0.
         25    2    3    3    0    0  0.73876918568E+01  0.41193783520E+02  0.57269907032E+03  0.58870249177E+03  0.12974934633E+03 0.  0.
         25    2    3    3    0    0 -0.73876918568E+01 -0.41193783520E+02  0.34036292467E+03  0.36501026515E+03  0.12503626426E+03 0.  0.
          5    1    4    4  502    0 -0.17042356516E+02 -0.51302792110E+01  0.49224809115E+03  0.49259215881E+03  0.47000000000E+01 0. -1.
         -5    1    4    4    0  502  0.24430048373E+02  0.46324062731E+02  0.80450979171E+02  0.96110332956E+02  0.47000000000E+01 0. -1.
          5    1    5    5  503    0 -0.28165676933E+01 -0.51517608055E+01 -0.10125213682E+02  0.12612836520E+02  0.47000000000E+01 0.  1.
         -5    1    5    5    0  503 -0.45711241635E+01 -0.36042022715E+02  0.35048813835E+03  0.35239742863E+03  0.47000000000E+01 0.  1.
<mgrwt>
<rscale>  0 0.27547380E+03</rscale>
<asrwt>0</asrwt>
<pdfrwt beam="1">  1        2 0.14359802E+00 0.27547380E+03</pdfrwt>
<pdfrwt beam="2">  1       -2 0.31269824E-02 0.27547380E+03</pdfrwt>
<totfact> 0.11477590E+04</totfact>
</mgrwt>
</event>
<event>
 9    1  0.2073852E-002  0.2743751E+03  0.7818608E-02  0.1098801E+00
         -2   -1    0    0    0  501 -0.00000000000E+00  0.00000000000E+00  0.10266996182E+03  0.10266996182E+03  0.00000000000E+00 0.  1.
          2   -1    0    0  501    0  0.00000000000E+00 -0.00000000000E+00 -0.18330995057E+03  0.18330995057E+03  0.00000000000E+00 0.  1.
         36    2    1    2    0    0  0.00000000000E+00  0.00000000000E+00 -0.80639988744E+02  0.28597991239E+03  0.27437511276E+03 0.  0.
         25    2    3    3    0    0  0.36444355161E+02  0.36816651325E+02 -0.30973078658E+02  0.13921629911E+03  0.12545194099E+03 0.  0.
         25    2    3    3    0    0 -0.36444355161E+02 -0.36816651325E+02 -0.49666910086E+02  0.14676361327E+03  0.12801991793E+03 0.  0.
          5    1    4    4  502    0  0.50205311874E+02  0.70745858622E+01 -0.70937445645E+02  0.87320297183E+02  0.47000000000E+01 0.  1.
         -5    1    4    4    0  502 -0.13760956713E+02  0.29742065462E+02  0.39964366988E+02  0.51896001930E+02  0.47000000000E+01 0.  1.
          5    1    5    5  503    0 -0.78080801997E+02  0.40760589865E+01 -0.38020641146E+02  0.87068278096E+02  0.47000000000E+01 0. -1.
         -5    1    5    5    0  503  0.41636446836E+02 -0.40892710311E+02 -0.11646268940E+02  0.59695335178E+02  0.47000000000E+01 0. -1.
<mgrwt>
<rscale>  0 0.27437511E+03</rscale>
<asrwt>0</asrwt>
<pdfrwt beam="1">  1        2 0.28201531E-01 0.27437511E+03</pdfrwt>
<pdfrwt beam="2">  1       -2 0.15795379E-01 0.27437511E+03</pdfrwt>
<totfact> 0.58545667E+03</totfact>
</mgrwt>
</event>
<event>
 9    1  0.2073852E-002  0.2754540E+03  0.7818608E-02  0.1098198E+00
         -3   -1    0    0    0  501 -0.00000000000E+00  0.00000000000E+00  0.52697978076E+02  0.52697978076E+02  0.00000000000E+00 0. -1.
          3   -1    0    0  501    0  0.00000000000E+00 -0.00000000000E+00 -0.35995172571E+03  0.35995172571E+03  0.00000000000E+00 0. -1.
         36    2    1    2    0    0 -0.71054273576E-14  0.35527136788E-14 -0.30725374763E+03  0.41264970378E+03  0.27545401177E+03 0.  0.
         25    2    3    3    0    0 -0.33813237254E+02  0.28840870041E+02 -0.90105258726E+02  0.15884371079E+03  0.12303347516E+03 0.  0.
         25    2    3    3    0    0  0.33813237254E+02 -0.28840870041E+02 -0.21714848890E+03  0.25380599299E+03  0.12364823107E+03 0.  0.
          5    1    4    4  502    0  0.20474181239E+02 -0.59156334753E+01  0.21013306302E+02  0.30295805957E+02  0.47000000000E+01 0.  1.
         -5    1    4    4    0  502 -0.54287418493E+02  0.34756503517E+02 -0.11111856503E+03  0.12854790483E+03  0.47000000000E+01 0.  1.
          5    1    5    5  503    0  0.38759484384E+02  0.79023612151E+01 -0.71049413431E+01  0.40463750864E+02  0.47000000000E+01 0.  1.
         -5    1    5    5    0  503 -0.49462471296E+01 -0.36743231256E+02 -0.21004354756E+03  0.21334224213E+03  0.47000000000E+01 0.  1.
<mgrwt>
<rscale>  0 0.27545401E+03</rscale>
<asrwt>0</asrwt>
<pdfrwt beam="1">  1        3 0.55377188E-01 0.27545401E+03</pdfrwt>
<pdfrwt beam="2">  1       -3 0.81073813E-02 0.27545401E+03</pdfrwt>
<totfact> 0.86214457E+02</totfact>
</mgrwt>
</event>
<event>
 9    1  0.2073852E-002  0.2751409E+03  0.7818608E-02  0.1098373E+00
         -1   -1    0    0    0  501 -0.00000000000E+00  0.00000000000E+00  0.19238492080E+02  0.19238492080E+02  0.00000000000E+00 0. -1.
          1   -1    0    0  501    0  0.00000000000E+00 -0.00000000000E+00 -0.98373738770E+03  0.98373738770E+03  0.00000000000E+00 0. -1.
         36    2    1    2    0    0  0.00000000000E+00  0.00000000000E+00 -0.96449889562E+03  0.10029758798E+04  0.27514086532E+03 0.  0.
         25    2    3    3    0    0 -0.44475089456E+02 -0.29656957254E+02 -0.40118720757E+03  0.42360930379E+03  0.12504438429E+03 0.  0.
         25    2    3    3    0    0  0.44475089456E+02  0.29656957254E+02 -0.56331168805E+03  0.57936657600E+03  0.12445080468E+03 0.  0.
          5    1    4    4  502    0 -0.78251553600E+02 -0.27754744676E+02 -0.36287906172E+03  0.37228609285E+03  0.47000000000E+01 0. -1.
         -5    1    4    4    0  502  0.33776464144E+02 -0.19022125781E+01 -0.38308145846E+02  0.51323210937E+02  0.47000000000E+01 0. -1.
          5    1    5    5  503    0  0.83915157281E+02  0.25537016129E+02 -0.46553931112E+03  0.47375397942E+03  0.47000000000E+01 0. -1.
         -5    1    5    5    0  503 -0.39440067825E+02  0.41199411253E+01 -0.97772376932E+02  0.10561259658E+03  0.47000000000E+01 0. -1.
<mgrwt>
<rscale>  0 0.27514087E+03</rscale>
<asrwt>0</asrwt>
<pdfrwt beam="1">  1        1 0.15134423E+00 0.27514087E+03</pdfrwt>
<pdfrwt beam="2">  1       -1 0.29597677E-02 0.27514087E+03</pdfrwt>
<totfact> 0.63255159E+03</totfact>
</mgrwt>
</event>
<event>
 9    1  0.2073852E-002  0.2717541E+03  0.7818608E-02  0.1100280E+00
          2   -1    0    0  501    0  0.00000000000E+00  0.00000000000E+00  0.12905235833E+04  0.12905235833E+04  0.00000000000E+00 0. -1.
         -2   -1    0    0    0  501 -0.00000000000E+00 -0.00000000000E+00 -0.14306263136E+02  0.14306263136E+02  0.00000000000E+00 0. -1.
         36    2    1    2    0    0  0.35527136788E-14 -0.71054273576E-14  0.12762173201E+04  0.13048298464E+04  0.27175407975E+03 0.  0.
         25    2    3    3    0    0 -0.10933529459E+02 -0.36459110062E+02  0.80336373185E+03  0.81361986549E+03  0.12302516447E+03 0.  0.
         25    2    3    3    0    0  0.10933529459E+02  0.36459110062E+02  0.47285358828E+03  0.49120998091E+03  0.12746733161E+03 0.  0.
          5    1    4    4  502    0 -0.66239925859E+02 -0.10846440799E+02  0.45128905055E+03  0.45627762404E+03  0.47000000000E+01 0.  1.
         -5    1    4    4    0  502  0.55306396399E+02 -0.25612669263E+02  0.35207468130E+03  0.35734224145E+03  0.47000000000E+01 0.  1.
          5    1    5    5  503    0  0.28129496196E+02  0.79757228286E+02  0.26770858099E+03  0.28078899258E+03  0.47000000000E+01 0.  1.
         -5    1    5    5    0  503 -0.17195966737E+02 -0.43298118225E+02  0.20514500729E+03  0.21042098833E+03  0.47000000000E+01 0.  1.
<mgrwt>
<rscale>  0 0.27175408E+03</rscale>
<asrwt>0</asrwt>
<pdfrwt beam="1">  1        2 0.19854200E+00 0.27175408E+03</pdfrwt>
<pdfrwt beam="2">  1       -2 0.22009646E-02 0.27175408E+03</pdfrwt>
<totfact> 0.11905829E+04</totfact>
</mgrwt>
</event>
<event>
 9    1  0.2073852E-002  0.2760392E+03  0.7818608E-02  0.1097872E+00
         -2   -1    0    0    0  501 -0.00000000000E+00  0.00000000000E+00  0.33162352571E+02  0.33162352571E+02  0.00000000000E+00 0. -1.
          2   -1    0    0  501    0  0.00000000000E+00 -0.00000000000E+00 -0.57442893787E+03  0.57442893787E+03  0.00000000000E+00 0. -1.
         36    2    1    2    0    0  0.00000000000E+00  0.00000000000E+00 -0.54126658530E+03  0.60759129044E+03  0.27603923609E+03 0.  0.
         25    2    3    3    0    0 -0.14311171143E+01  0.57138376037E+02 -0.32436545136E+03  0.35236009466E+03  0.12521121420E+03 0.  0.
         25    2    3    3    0    0  0.14311171143E+01 -0.57138376037E+02 -0.21690113395E+03  0.25523119579E+03  0.12177856660E+03 0.  0.
          5    1    4    4  502    0 -0.19913300233E+02 -0.22754403817E+01 -0.26639155563E+03  0.26718583059E+03  0.47000000000E+01 0.  1.
         -5    1    4    4    0  502  0.18482183119E+02  0.59413816419E+02 -0.57973895725E+02  0.85174264070E+02  0.47000000000E+01 0.  1.
          5    1    5    5  503    0  0.15432662655E+02  0.26067282972E+02 -0.10841065014E+02  0.32515980822E+02  0.47000000000E+01 0. -1.
         -5    1    5    5    0  503 -0.14001545541E+02 -0.83205659009E+02 -0.20606006893E+03  0.22271521497E+03  0.47000000000E+01 0. -1.
<mgrwt>
<rscale>  0 0.27603924E+03</rscale>
<asrwt>0</asrwt>
<pdfrwt beam="1">  1        2 0.88373682E-01 0.27603924E+03</pdfrwt>
<pdfrwt beam="2">  1       -2 0.51019005E-02 0.27603924E+03</pdfrwt>
<totfact> 0.10031463E+04</totfact>
</mgrwt>
</event>
<event>
 9    1  0.2073852E-002  0.2742820E+03  0.7818608E-02  0.1098854E+00
          1   -1    0    0  501    0  0.00000000000E+00  0.00000000000E+00  0.18065239426E+03  0.18065239426E+03  0.00000000000E+00 0.  1.
         -1   -1    0    0    0  501 -0.00000000000E+00 -0.00000000000E+00 -0.10410965719E+03  0.10410965719E+03  0.00000000000E+00 0.  1.
         36    2    1    2    0    0  0.00000000000E+00  0.53290705182E-14  0.76542737066E+02  0.28476205145E+03  0.27428203614E+03 0.  0.
         25    2    3    3    0    0  0.34626506466E+02 -0.11124850926E+02 -0.10285013485E+02  0.13133955294E+03  0.12578370087E+03 0.  0.
         25    2    3    3    0    0 -0.34626506466E+02  0.11124850926E+02  0.86827750550E+02  0.15342249851E+03  0.12114721428E+03 0.  0.
          5    1    4    4  502    0 -0.45261885039E+02  0.11096819571E+01  0.12563346380E+02  0.47220729596E+02  0.47000000000E+01 0. -1.
         -5    1    4    4    0  502  0.79888391505E+02 -0.12234532884E+02 -0.22848359865E+02  0.84118823343E+02  0.47000000000E+01 0. -1.
          5    1    5    5  503    0 -0.37691231473E+02  0.59257021293E+02  0.24617574697E+02  0.74566336148E+02  0.47000000000E+01 0.  1.
         -5    1    5    5    0  503  0.30647250069E+01 -0.48132170367E+02  0.62210175853E+02  0.78856162367E+02  0.47000000000E+01 0.  1.
<mgrwt>
<rscale>  0 0.27428204E+03</rscale>
<asrwt>0</asrwt>
<pdfrwt beam="1">  1        1 0.27792676E-01 0.27428204E+03</pdfrwt>
<pdfrwt beam="2">  1       -1 0.16016870E-01 0.27428204E+03</pdfrwt>
<totfact> 0.47978492E+03</totfact>
</mgrwt>
</event>
<event>
 9    1  0.2073852E-002  0.2756305E+03  0.7818608E-02  0.1098100E+00
          2   -1    0    0  501    0  0.00000000000E+00  0.00000000000E+00  0.21346504640E+03  0.21346504640E+03  0.00000000000E+00 0.  1.
         -2   -1    0    0    0  501 -0.00000000000E+00 -0.00000000000E+00 -0.88974940389E+02  0.88974940389E+02  0.00000000000E+00 0.  1.
         36    2    1    2    0    0  0.00000000000E+00 -0.71054273576E-14  0.12449010601E+03  0.30243998679E+03  0.27563047566E+03 0.  0.
         25    2    3    3    0    0  0.27220039842E+02  0.45738502053E+02  0.64234857010E+02  0.14985230344E+03  0.12448556082E+03 0.  0.
         25    2    3    3    0    0 -0.27220039842E+02 -0.45738502053E+02  0.60255249002E+02  0.15258768335E+03  0.12968949433E+03 0.  0.
          5    1    4    4  502    0 -0.19014036303E+02  0.23889031425E+02 -0.29664194209E+02  0.42828423004E+02  0.47000000000E+01 0. -1.
         -5    1    4    4    0  502  0.46234076145E+02  0.21849470629E+02  0.93899051219E+02  0.10702388044E+03  0.47000000000E+01 0. -1.
          5    1    5    5  503    0  0.41949266506E+02 -0.48819770870E+02  0.51644922653E+02  0.82658327009E+02  0.47000000000E+01 0. -1.
         -5    1    5    5    0  503 -0.69169306348E+02  0.30812688161E+01  0.86103263487E+01  0.69929356340E+02  0.47000000000E+01 0. -1.
<mgrwt>
<rscale>  0 0.27563048E+03</rscale>
<asrwt>0</asrwt>
<pdfrwt beam="1">  1        2 0.32840776E-01 0.27563048E+03</pdfrwt>
<pdfrwt beam="2">  1       -2 0.13688452E-01 0.27563048E+03</pdfrwt>
<totfact> 0.62741852E+03</totfact>
</mgrwt>
</event>
<event>
 9    1  0.2073852E-002  0.2748485E+03  0.7818608E-02  0.1098536E+00
          1   -1    0    0  501    0  0.00000000000E+00  0.00000000000E+00  0.29446785584E+03  0.29446785584E+03  0.00000000000E+00 0. -1.
         -1   -1    0    0    0  501 -0.00000000000E+00 -0.00000000000E+00 -0.64134061763E+02  0.64134061763E+02  0.00000000000E+00 0. -1.
         36    2    1    2    0    0  0.14210854715E-13  0.00000000000E+00  0.23033379408E+03  0.35860191761E+03  0.27484846482E+03 0.  0.
         25    2    3    3    0    0 -0.52391209891E+02  0.13593022299E+02  0.14716518707E+03  0.19879423930E+03  0.12219635086E+03 0.  0.
         25    2    3    3    0    0  0.52391209891E+02 -0.13593022299E+02  0.83168607005E+02  0.15980767831E+03  0.12526718535E+03 0.  0.
          5    1    4    4  502    0 -0.30499792277E+02  0.20236561927E+02 -0.11317717547E+02  0.38599695569E+02  0.47000000000E+01 0. -1.
         -5    1    4    4    0  502 -0.21891417614E+02 -0.66435396280E+01  0.15848290462E+03  0.16019454373E+03  0.47000000000E+01 0. -1.
          5    1    5    5  503    0  0.72258142731E+02 -0.38624095326E+02  0.94880614272E+02  0.12544911676E+03  0.47000000000E+01 0.  1.
         -5    1    5    5    0  503 -0.19866932840E+02  0.25031073027E+02 -0.11712007268E+02  0.34358561547E+02  0.47000000000E+01 0.  1.
<mgrwt>
<rscale>  0 0.27484846E+03</rscale>
<asrwt>0</asrwt>
<pdfrwt beam="1">  1        1 0.45302746E-01 0.27484846E+03</pdfrwt>
<pdfrwt beam="2">  1       -1 0.98667789E-02 0.27484846E+03</pdfrwt>
<totfact> 0.55467654E+03</totfact>
</mgrwt>
</event>
<event>
 9    1  0.2073852E-002  0.2744532E+03  0.7818608E-02  0.1098758E+00
         -2   -1    0    0    0  501 -0.00000000000E+00  0.00000000000E+00  0.79779370762E+02  0.79779370762E+02  0.00000000000E+00 0. -1.
          2   -1    0    0  501    0  0.00000000000E+00 -0.00000000000E+00 -0.23604020228E+03  0.23604020228E+03  0.00000000000E+00 0. -1.
         36    2    1    2    0    0  0.00000000000E+00 -0.14210854715E-13 -0.15626083152E+03  0.31581957304E+03  0.27445319319E+03 0.  0.
         25    2    3    3    0    0  0.87414555914E+01  0.60285444211E+02 -0.76978949612E+02  0.15696275020E+03  0.12247774671E+03 0.  0.
         25    2    3    3    0    0 -0.87414555914E+01 -0.60285444211E+02 -0.79281881906E+02  0.15885682284E+03  0.12344685308E+03 0.  0.
          5    1    4    4  502    0 -0.25577351334E+02  0.28525435419E+02  0.24090853517E+02  0.45501215261E+02  0.47000000000E+01 0.  1.
         -5    1    4    4    0  502  0.34318806925E+02  0.31760008793E+02 -0.10106980313E+03  0.11146153494E+03  0.47000000000E+01 0.  1.
          5    1    5    5  503    0  0.39610351745E+02 -0.16199241542E+01 -0.72018401500E+02  0.82342845920E+02  0.47000000000E+01 0.  1.
         -5    1    5    5    0  503 -0.48351807336E+02 -0.58665520057E+02 -0.72634804055E+01  0.76513976918E+02  0.47000000000E+01 0.  1.
<mgrwt>
<rscale>  0 0.27445319E+03</rscale>
<asrwt>0</asrwt>
<pdfrwt beam="1">  1        2 0.36313877E-01 0.27445319E+03</pdfrwt>
<pdfrwt beam="2">  1       -2 0.12273750E-01 0.27445319E+03</pdfrwt>
<totfact> 0.67162697E+03</totfact>
</mgrwt>
</event>
<event>
 9    1  0.2073852E-002  0.2738562E+03  0.7818608E-02  0.1099093E+00
          2   -1    0    0  501    0  0.00000000000E+00  0.00000000000E+00  0.11610371703E+04  0.11610371703E+04  0.00000000000E+00 0. -1.
         -2   -1    0    0    0  501 -0.00000000000E+00 -0.00000000000E+00 -0.16148748939E+02  0.16148748939E+02  0.00000000000E+00 0. -1.
         36    2    1    2    0    0 -0.35527136788E-14  0.14210854715E-13  0.11448884214E+04  0.11771859192E+04  0.27385615036E+03 0.  0.
         25    2    3    3    0    0 -0.21014615232E+02  0.52253016702E+02  0.59338830483E+03  0.60863933518E+03  0.12312663487E+03 0.  0.
         25    2    3    3    0    0  0.21014615232E+02 -0.52253016702E+02  0.55150011652E+03  0.56854658405E+03  0.12617784235E+03 0.  0.
          5    1    4    4  502    0 -0.45145142775E+02 -0.11628337472E+02  0.98918158610E+02  0.10945407371E+03  0.47000000000E+01 0. -1.
         -5    1    4    4    0  502  0.24130527543E+02  0.63881354174E+02  0.49447014622E+03  0.49918526148E+03  0.47000000000E+01 0. -1.
          5    1    5    5  503    0 -0.23599583944E+02  0.14584484556E+02  0.35617197227E+03  0.35728169752E+03  0.47000000000E+01 0.  1.
         -5    1    5    5    0  503  0.44614199176E+02 -0.66837501258E+02  0.19532814426E+03  0.21126488653E+03  0.47000000000E+01 0.  1.
<mgrwt>
<rscale>  0 0.27385615E+03</rscale>
<asrwt>0</asrwt>
<pdfrwt beam="1">  1        2 0.17862104E+00 0.27385615E+03</pdfrwt>
<pdfrwt beam="2">  1       -2 0.24844238E-02 0.27385615E+03</pdfrwt>
<totfact> 0.11781815E+04</totfact>
</mgrwt>
</event>
<event>
 9    1  0.2073852E-002  0.2744301E+03  0.7818608E-02  0.1098771E+00
         -2   -1    0    0    0  501 -0.00000000000E+00  0.00000000000E+00  0.25685026317E+02  0.25685026317E+02  0.00000000000E+00 0. -1.
          2   -1    0    0  501    0  0.00000000000E+00 -0.00000000000E+00 -0.73303296096E+03  0.73303296096E+03  0.00000000000E+00 0. -1.
         36    2    1    2    0    0  0.00000000000E+00  0.00000000000E+00 -0.70734793465E+03  0.75871798728E+03  0.27443010690E+03 0.  0.
         25    2    3    3    0    0  0.34664283127E+02 -0.24662820996E+02 -0.25473081036E+03  0.28663793406E+03  0.12435293414E+03 0.  0.
         25    2    3    3    0    0 -0.34664283127E+02  0.24662820996E+02 -0.45261712429E+03  0.47208005323E+03  0.12722990290E+03 0.  0.
          5    1    4    4  502    0  0.23648069695E+02  0.45122271618E+02 -0.56898814540E+02  0.76516767393E+02  0.47000000000E+01 0.  1.
         -5    1    4    4    0  502  0.11016213431E+02 -0.69785092613E+02 -0.19783199582E+03  0.21012116666E+03  0.47000000000E+01 0.  1.
          5    1    5    5  503    0  0.24735116325E+02 -0.32609177005E+02 -0.75458443080E+02  0.85972385314E+02  0.47000000000E+01 0. -1.
         -5    1    5    5    0  503 -0.59399399452E+02  0.57271998001E+02 -0.37715868121E+03  0.38610766791E+03  0.47000000000E+01 0. -1.
<mgrwt>
<rscale>  0 0.27443011E+03</rscale>
<asrwt>0</asrwt>
<pdfrwt beam="1">  1        2 0.11277428E+00 0.27443011E+03</pdfrwt>
<pdfrwt beam="2">  1       -2 0.39515432E-02 0.27443011E+03</pdfrwt>
<totfact> 0.11048385E+04</totfact>
</mgrwt>
</event>
<event>
 9    1  0.2073852E-002  0.2754739E+03  0.7818608E-02  0.1098187E+00
         -4   -1    0    0    0  501 -0.00000000000E+00  0.00000000000E+00  0.10292687517E+03  0.10292687517E+03  0.00000000000E+00 0. -1.
          4   -1    0    0  501    0  0.00000000000E+00 -0.00000000000E+00 -0.18431983139E+03  0.18431983139E+03  0.00000000000E+00 0. -1.
         36    2    1    2    0    0 -0.17763568394E-14  0.00000000000E+00 -0.81392956212E+02  0.28724670656E+03  0.27547387736E+03 0.  0.
         25    2    3    3    0    0 -0.40388249572E+00  0.12073025720E+02 -0.93447429596E+02  0.16225451670E+03  0.13209157816E+03 0.  0.
         25    2    3    3    0    0  0.40388249572E+00 -0.12073025720E+02  0.12054473384E+02  0.12499218986E+03  0.12382171105E+03 0.  0.
          5    1    4    4  502    0  0.11958754262E+02 -0.58670862677E+02 -0.34796991379E+02  0.69413273513E+02  0.47000000000E+01 0.  1.
         -5    1    4    4    0  502 -0.12362636757E+02  0.70743888397E+02 -0.58650438217E+02  0.92841243185E+02  0.47000000000E+01 0.  1.
          5    1    5    5  503    0 -0.33884158798E+02  0.39340999094E+02 -0.19229319437E+02  0.55567140949E+02  0.47000000000E+01 0. -1.
         -5    1    5    5    0  503  0.34288041294E+02 -0.51414024814E+02  0.31283792821E+02  0.69425048913E+02  0.47000000000E+01 0. -1.
<mgrwt>
<rscale>  0 0.27547388E+03</rscale>
<asrwt>0</asrwt>
<pdfrwt beam="1">  1        4 0.28356897E-01 0.27547388E+03</pdfrwt>
<pdfrwt beam="2">  1       -4 0.15834904E-01 0.27547388E+03</pdfrwt>
<totfact> 0.76031827E+02</totfact>
</mgrwt>
</event>
<event>
 9    1  0.2073852E-002  0.2760603E+03  0.7818608E-02  0.1097860E+00
         -2   -1    0    0    0  501 -0.00000000000E+00  0.00000000000E+00  0.35827184905E+02  0.35827184905E+02  0.00000000000E+00 0. -1.
          2   -1    0    0  501    0  0.00000000000E+00 -0.00000000000E+00 -0.53178408507E+03  0.53178408507E+03  0.00000000000E+00 0. -1.
         36    2    1    2    0    0 -0.71054273576E-14  0.00000000000E+00 -0.49595690016E+03  0.56761126997E+03  0.27606033214E+03 0.  0.
         25    2    3    3    0    0  0.48310797719E+02 -0.16361901067E+02 -0.29764109038E+03  0.32806843195E+03  0.12820699035E+03 0.  0.
         25    2    3    3    0    0 -0.48310797719E+02  0.16361901067E+02 -0.19831580979E+03  0.23954283803E+03  0.12429789160E+03 0.  0.
          5    1    4    4  502    0  0.79306361263E+02  0.23928137789E+01 -0.10337992075E+03  0.13040215684E+03  0.47000000000E+01 0. -1.
         -5    1    4    4    0  502 -0.30995563545E+02 -0.18754714846E+02 -0.19426116963E+03  0.19766627511E+03  0.47000000000E+01 0. -1.
          5    1    5    5  503    0  0.85859769585E+01 -0.19127245091E+01  0.14973031808E+02  0.17990530757E+02  0.47000000000E+01 0. -1.
         -5    1    5    5    0  503 -0.56896774677E+02  0.18274625576E+02 -0.21328884159E+03  0.22155230727E+03  0.47000000000E+01 0. -1.
<mgrwt>
<rscale>  0 0.27606033E+03</rscale>
<asrwt>0</asrwt>
<pdfrwt beam="1">  1        2 0.81812934E-01 0.27606033E+03</pdfrwt>
<pdfrwt beam="2">  1       -2 0.55118747E-02 0.27606033E+03</pdfrwt>
<totfact> 0.97363622E+03</totfact>
</mgrwt>
</event>
<event>
 9    1  0.2073852E-002  0.2754536E+03  0.7818608E-02  0.1098198E+00
          2   -1    0    0  501    0  0.00000000000E+00  0.00000000000E+00  0.18830146398E+04  0.18830146398E+04  0.00000000000E+00 0. -1.
         -2   -1    0    0    0  501 -0.00000000000E+00 -0.00000000000E+00 -0.10073567142E+02  0.10073567142E+02  0.00000000000E+00 0. -1.
         36    2    1    2    0    0 -0.17763568394E-14 -0.71054273576E-14  0.18729410727E+04  0.18930882069E+04  0.27545362152E+03 0.  0.
         25    2    3    3    0    0  0.91670038752E+01 -0.16281158983E+02  0.12733268828E+04  0.12797585043E+04  0.12677290195E+03 0.  0.
         25    2    3    3    0    0 -0.91670038752E+01  0.16281158983E+02  0.59961418983E+03  0.61332970266E+03  0.12762067784E+03 0.  0.
          5    1    4    4  502    0  0.58696987665E+02 -0.41729360876E+02  0.69408062696E+03  0.69782281608E+03  0.47000000000E+01 0. -1.
         -5    1    4    4    0  502 -0.49529983790E+02  0.25448201893E+02  0.57924625587E+03  0.58193568821E+03  0.47000000000E+01 0. -1.
          5    1    5    5  503    0 -0.21595007213E+02  0.45369470768E+02  0.56067598733E+03  0.56294261340E+03  0.47000000000E+01 0. -1.
         -5    1    5    5    0  503  0.12428003338E+02 -0.29088311784E+02  0.38938202503E+02  0.50387089255E+02  0.47000000000E+01 0. -1.
<mgrwt>
<rscale>  0 0.27545362E+03</rscale>
<asrwt>0</asrwt>
<pdfrwt beam="1">  1        2 0.28969428E+00 0.27545362E+03</pdfrwt>
<pdfrwt beam="2">  1       -2 0.15497811E-02 0.27545362E+03</pdfrwt>
<totfact> 0.96273515E+03</totfact>
</mgrwt>
</event>
<event>
 9    1  0.2073852E-002  0.2758809E+03  0.7818608E-02  0.1097960E+00
         -2   -1    0    0    0  501 -0.00000000000E+00  0.00000000000E+00  0.12711498845E+03  0.12711498845E+03  0.00000000000E+00 0.  1.
          2   -1    0    0  501    0  0.00000000000E+00 -0.00000000000E+00 -0.14968785698E+03  0.14968785698E+03  0.00000000000E+00 0.  1.
         36    2    1    2    0    0  0.00000000000E+00 -0.71054273576E-14 -0.22572868527E+02  0.27680284543E+03  0.27588091787E+03 0.  0.
         25    2    3    3    0    0  0.43581775443E+02  0.35131266680E+02 -0.17734284901E+02  0.13991384297E+03  0.12699528159E+03 0.  0.
         25    2    3    3    0    0 -0.43581775443E+02 -0.35131266680E+02 -0.48385836259E+01  0.13688900245E+03  0.12482631955E+03 0.  0.
          5    1    4    4  502    0  0.78599233234E+02  0.29545090650E+02  0.21516338273E+02  0.86808954948E+02  0.47000000000E+01 0.  1.
         -5    1    4    4    0  502 -0.35017457791E+02  0.55861760306E+01 -0.39250623174E+02  0.53104888026E+02  0.47000000000E+01 0.  1.
          5    1    5    5  503    0 -0.35982722208E+02 -0.80962568851E+02  0.60939300591E+01  0.88932108015E+02  0.47000000000E+01 0.  1.
         -5    1    5    5    0  503 -0.75990532358E+01  0.45831302171E+02 -0.10932513685E+02  0.47956894439E+02  0.47000000000E+01 0.  1.
<mgrwt>
<rscale>  0 0.27588092E+03</rscale>
<asrwt>0</asrwt>
<pdfrwt beam="1">  1        2 0.23028901E-01 0.27588092E+03</pdfrwt>
<pdfrwt beam="2">  1       -2 0.19556152E-01 0.27588092E+03</pdfrwt>
<totfact> 0.51244708E+03</totfact>
</mgrwt>
</event>
<event>
 9    1  0.2073852E-002  0.2775740E+03  0.7818608E-02  0.1097021E+00
         -1   -1    0    0    0  501 -0.00000000000E+00  0.00000000000E+00  0.35213022795E+03  0.35213022795E+03  0.00000000000E+00 0.  1.
          1   -1    0    0  501    0  0.00000000000E+00 -0.00000000000E+00 -0.54700892822E+02  0.54700892822E+02  0.00000000000E+00 0.  1.
         36    2    1    2    0    0  0.71054273576E-14  0.00000000000E+00  0.29742933512E+03  0.40683112077E+03  0.27757404676E+03 0.  0.
         25    2    3    3    0    0 -0.56795963107E+02  0.75054667642E+01  0.13954741998E+03  0.19825825075E+03  0.12864967202E+03 0.  0.
         25    2    3    3    0    0  0.56795963107E+02 -0.75054667642E+01  0.15788191514E+03  0.20857287002E+03  0.12366822358E+03 0.  0.
          5    1    4    4  502    0  0.56815057808E+01 -0.52337508253E+02  0.66404573460E+02  0.84871383013E+02  0.47000000000E+01 0. -1.
         -5    1    4    4    0  502 -0.62477468888E+02  0.59842975018E+02  0.73142846520E+02  0.11338686773E+03  0.47000000000E+01 0. -1.
          5    1    5    5  503    0 -0.79649984324E+01 -0.35111235252E+02  0.73812911180E+00  0.36316316932E+02  0.47000000000E+01 0.  1.
         -5    1    5    5    0  503  0.64760961540E+02  0.27605768487E+02  0.15714378603E+03  0.17225655309E+03  0.47000000000E+01 0.  1.
<mgrwt>
<rscale>  0 0.27757405E+03</rscale>
<asrwt>0</asrwt>
<pdfrwt beam="1">  1        1 0.84155222E-02 0.27757405E+03</pdfrwt>
<pdfrwt beam="2">  1       -1 0.54173880E-01 0.27757405E+03</pdfrwt>
<totfact> 0.28586187E+03</totfact>
</mgrwt>
</event>
<event>
 9    1  0.2073852E-002  0.2706142E+03  0.7818608E-02  0.1100929E+00
          2   -1    0    0  501    0  0.00000000000E+00  0.00000000000E+00  0.67999773484E+03  0.67999773484E+03  0.00000000000E+00 0.  1.
         -2   -1    0    0    0  501 -0.00000000000E+00 -0.00000000000E+00 -0.26923634501E+02  0.26923634501E+02  0.00000000000E+00 0.  1.
         36    2    1    2    0    0  0.71054273576E-14  0.00000000000E+00  0.65307410034E+03  0.70692136934E+03  0.27061419382E+03 0.  0.
         25    2    3    3    0    0  0.28496943140E+01  0.34744577577E+02  0.40280522228E+03  0.42334948519E+03  0.12552861461E+03 0.  0.
         25    2    3    3    0    0 -0.28496943140E+01 -0.34744577577E+02  0.25026887806E+03  0.28357188415E+03  0.12869807974E+03 0.  0.
          5    1    4    4  502    0  0.44216952433E+02  0.70746371307E+01  0.34052314912E+03  0.34348696403E+03  0.47000000000E+01 0. -1.
         -5    1    4    4    0  502 -0.41367258119E+02  0.27669940446E+02  0.62282073163E+02  0.79862521161E+02  0.47000000000E+01 0. -1.
          5    1    5    5  503    0 -0.43820763965E+02  0.31696101319E+02  0.11856863676E+03  0.13040519091E+03  0.47000000000E+01 0. -1.
         -5    1    5    5    0  503  0.40971069651E+02 -0.66440678896E+02  0.13170024130E+03  0.15316669324E+03  0.47000000000E+01 0. -1.
<mgrwt>
<rscale>  0 0.27061419E+03</rscale>
<asrwt>0</asrwt>
<pdfrwt beam="1">  1        2 0.10461502E+00 0.27061419E+03</pdfrwt>
<pdfrwt beam="2">  1       -2 0.41420981E-02 0.27061419E+03</pdfrwt>
<totfact> 0.11271492E+04</totfact>
</mgrwt>
</event>
<event>
 9    1  0.2073852E-002  0.2747791E+03  0.7818608E-02  0.1098575E+00
         -2   -1    0    0    0  501 -0.00000000000E+00  0.00000000000E+00  0.22836811192E+02  0.22836811192E+02  0.00000000000E+00 0.  1.
          2   -1    0    0  501    0  0.00000000000E+00 -0.00000000000E+00 -0.82655554166E+03  0.82655554166E+03  0.00000000000E+00 0.  1.
         36    2    1    2    0    0  0.00000000000E+00 -0.14210854715E-13 -0.80371873047E+03  0.84939235285E+03  0.27477913199E+03 0.  0.
         25    2    3    3    0    0 -0.17590460897E+02 -0.54566470404E+02 -0.46861973353E+03  0.48783358363E+03  0.12284228369E+03 0.  0.
         25    2    3    3    0    0  0.17590460897E+02  0.54566470404E+02 -0.33509899694E+03  0.36155876922E+03  0.12307104388E+03 0.  0.
          5    1    4    4  502    0 -0.49595889688E+02  0.19816785024E+02 -0.16061094728E+03  0.16932342906E+03  0.47000000000E+01 0. -1.
         -5    1    4    4    0  502  0.32005428791E+02 -0.74383255428E+02 -0.30800878625E+03  0.31851015458E+03  0.47000000000E+01 0. -1.
          5    1    5    5  503    0  0.68990944360E+02  0.35665656056E+02 -0.15788212862E+03  0.17601319826E+03  0.47000000000E+01 0.  1.
         -5    1    5    5    0  503 -0.51400483463E+02  0.18900814348E+02 -0.17721686832E+03  0.18554557096E+03  0.47000000000E+01 0.  1.
<mgrwt>
<rscale>  0 0.27477913E+03</rscale>
<asrwt>0</asrwt>
<pdfrwt beam="1">  1        2 0.12716240E+00 0.27477913E+03</pdfrwt>
<pdfrwt beam="2">  1       -2 0.35133554E-02 0.27477913E+03</pdfrwt>
<totfact> 0.11328620E+04</totfact>
</mgrwt>
</event>
<event>
 9    1  0.2073852E-002  0.2750434E+03  0.7818608E-02  0.1098427E+00
         -1   -1    0    0    0  501 -0.00000000000E+00  0.00000000000E+00  0.81418219783E+02  0.81418219783E+02  0.00000000000E+00 0.  1.
          1   -1    0    0  501    0  0.00000000000E+00 -0.00000000000E+00 -0.23228488043E+03  0.23228488043E+03  0.00000000000E+00 0.  1.
         36    2    1    2    0    0 -0.17763568394E-14  0.00000000000E+00 -0.15086666065E+03  0.31370310022E+03  0.27504342528E+03 0.  0.
         25    2    3    3    0    0  0.46770123063E+01  0.27892337400E+02 -0.19903750489E+02  0.13089079951E+03  0.12623939632E+03 0.  0.
         25    2    3    3    0    0 -0.46770123063E+01 -0.27892337400E+02 -0.13096291016E+03  0.18281230071E+03  0.12437522472E+03 0.  0.
          5    1    4    4  502    0 -0.16643106477E+02  0.45363193861E+02  0.41212425188E+02  0.63681758301E+02  0.47000000000E+01 0. -1.
         -5    1    4    4    0  502  0.21320118783E+02 -0.17470856461E+02 -0.61116175677E+02  0.67209041206E+02  0.47000000000E+01 0. -1.
          5    1    5    5  503    0  0.11549685547E+02 -0.58242895659E+02 -0.14531237112E+02  0.61309680989E+02  0.47000000000E+01 0. -1.
         -5    1    5    5    0  503 -0.16226697854E+02  0.30350558259E+02 -0.11643167305E+03  0.12150261972E+03  0.47000000000E+01 0. -1.
<mgrwt>
<rscale>  0 0.27504343E+03</rscale>
<asrwt>0</asrwt>
<pdfrwt beam="1">  1        1 0.35736135E-01 0.27504343E+03</pdfrwt>
<pdfrwt beam="2">  1       -1 0.12525880E-01 0.27504343E+03</pdfrwt>
<totfact> 0.51549608E+03</totfact>
</mgrwt>
</event>
<event>
 9    1  0.2073852E-002  0.2853201E+03  0.7818608E-02  0.1092818E+00
         -1   -1    0    0    0  501 -0.00000000000E+00  0.00000000000E+00  0.93168579801E+02  0.93168579801E+02  0.00000000000E+00 0.  1.
          1   -1    0    0  501    0  0.00000000000E+00 -0.00000000000E+00 -0.21844148400E+03  0.21844148400E+03  0.00000000000E+00 0.  1.
         36    2    1    2    0    0  0.14210854715E-13  0.00000000000E+00 -0.12527290420E+03  0.31161006380E+03  0.28532005071E+03 0.  0.
         25    2    3    3    0    0  0.71945353992E+02 -0.80096759403E+01 -0.48025026308E+02  0.14337480519E+03  0.11405982090E+03 0.  0.
         25    2    3    3    0    0 -0.71945353992E+02  0.80096759403E+01 -0.77247877888E+02  0.16823525860E+03  0.13075006206E+03 0.  0.
          5    1    4    4  502    0  0.35976993318E+02  0.39251171715E+02  0.16121005949E+02  0.55829878757E+02  0.47000000000E+01 0.  1.
         -5    1    4    4    0  502  0.35968360674E+02 -0.47260847655E+02 -0.64146032258E+02  0.87544926438E+02  0.47000000000E+01 0.  1.
          5    1    5    5  503    0 -0.10929632728E+02  0.10983216159E+02  0.36001280799E+02  0.39474930373E+02  0.47000000000E+01 0. -1.
         -5    1    5    5    0  503 -0.61015721264E+02 -0.29735402186E+01 -0.11324915869E+03  0.12876032823E+03  0.47000000000E+01 0. -1.
<mgrwt>
<rscale>  0 0.28532005E+03</rscale>
<asrwt>0</asrwt>
<pdfrwt beam="1">  1        1 0.33606382E-01 0.28532005E+03</pdfrwt>
<pdfrwt beam="2">  1       -1 0.14333628E-01 0.28532005E+03</pdfrwt>
<totfact> 0.45089277E+03</totfact>
</mgrwt>
</event>
<event>
 9    1  0.2073852E-002  0.2754704E+03  0.7818608E-02  0.1098189E+00
         -2   -1    0    0    0  501 -0.00000000000E+00  0.00000000000E+00  0.86937201532E+02  0.86937201532E+02  0.00000000000E+00 0. -1.
          2   -1    0    0  501    0  0.00000000000E+00 -0.00000000000E+00 -0.21821479075E+03  0.21821479075E+03  0.00000000000E+00 0. -1.
         36    2    1    2    0    0 -0.35527136788E-14 -0.35527136788E-14 -0.13127758922E+03  0.30515199229E+03  0.27547038491E+03 0.  0.
         25    2    3    3    0    0 -0.28133398369E+02 -0.14529709972E+01 -0.12467701120E+03  0.17857842231E+03  0.12470884718E+03 0.  0.
         25    2    3    3    0    0  0.28133398369E+02  0.14529709972E+01 -0.66005780189E+01  0.12657356997E+03  0.12322216423E+03 0.  0.
          5    1    4    4  502    0 -0.59780716214E+02  0.16366093596E+02 -0.16413996341E+02  0.64289130703E+02  0.47000000000E+01 0.  1.
         -5    1    4    4    0  502  0.31647317845E+02 -0.17819064593E+02 -0.10826301486E+03  0.11428929161E+03  0.47000000000E+01 0.  1.
          5    1    5    5  503    0  0.60506315099E+02 -0.17195733328E+02 -0.41278244728E+02  0.75383624876E+02  0.47000000000E+01 0.  1.
         -5    1    5    5    0  503 -0.32372916731E+02  0.18648704325E+02  0.34677666710E+02  0.51189945097E+02  0.47000000000E+01 0.  1.
<mgrwt>
<rscale>  0 0.27547038E+03</rscale>
<asrwt>0</asrwt>
<pdfrwt beam="1">  1        2 0.33571506E-01 0.27547038E+03</pdfrwt>
<pdfrwt beam="2">  1       -2 0.13374954E-01 0.27547038E+03</pdfrwt>
<totfact> 0.63618264E+03</totfact>
</mgrwt>
</event>
<event>
 9    1  0.2073852E-002  0.2727315E+03  0.7818608E-02  0.1099726E+00
         -1   -1    0    0    0  501 -0.00000000000E+00  0.00000000000E+00  0.10246899631E+02  0.10246899631E+02  0.00000000000E+00 0.  1.
          1   -1    0    0  501    0  0.00000000000E+00 -0.00000000000E+00 -0.18147554051E+04  0.18147554051E+04  0.00000000000E+00 0.  1.
         36    2    1    2    0    0 -0.71054273576E-14  0.71054273576E-14 -0.18045085055E+04  0.18250023047E+04  0.27273149060E+03 0.  0.
         25    2    3    3    0    0 -0.12052001876E+02  0.58587163862E+01 -0.41284379367E+03  0.42755191588E+03  0.11036787346E+03 0.  0.
         25    2    3    3    0    0  0.12052001876E+02 -0.58587163862E+01 -0.13916647118E+04  0.13974503889E+04  0.12632238099E+03 0.  0.
          5    1    4    4  502    0 -0.22917522786E+02  0.40524434728E+02 -0.36129866848E+03  0.36431615461E+03  0.47000000000E+01 0. -1.
         -5    1    4    4    0  502  0.10865520910E+02 -0.34665718342E+02 -0.51545125192E+02  0.63235761274E+02  0.47000000000E+01 0. -1.
          5    1    5    5  503    0  0.56796403029E+02  0.32846219290E+02 -0.85090811328E+03  0.85344678380E+03  0.47000000000E+01 0. -1.
         -5    1    5    5    0  503 -0.44744401153E+02 -0.38704935676E+02 -0.54075659852E+03  0.54400360507E+03  0.47000000000E+01 0. -1.
<mgrwt>
<rscale>  0 0.27273149E+03</rscale>
<asrwt>0</asrwt>
<pdfrwt beam="1">  1        1 0.27919329E+00 0.27273149E+03</pdfrwt>
<pdfrwt beam="2">  1       -1 0.15764453E-02 0.27273149E+03</pdfrwt>
<totfact> 0.43206474E+03</totfact>
</mgrwt>
</event>
<event>
 9    1  0.2073852E-002  0.2747663E+03  0.7818608E-02  0.1098582E+00
         -1   -1    0    0    0  501 -0.00000000000E+00  0.00000000000E+00  0.21903329436E+03  0.21903329436E+03  0.00000000000E+00 0. -1.
          1   -1    0    0  501    0  0.00000000000E+00 -0.00000000000E+00 -0.86170151776E+02  0.86170151776E+02  0.00000000000E+00 0. -1.
         36    2    1    2    0    0  0.00000000000E+00  0.00000000000E+00  0.13286314258E+03  0.30520344613E+03  0.27476631685E+03 0.  0.
         25    2    3    3    0    0  0.39441601881E+02  0.40018366736E+02  0.49473396534E+02  0.14474247019E+03  0.12387758504E+03 0.  0.
         25    2    3    3    0    0 -0.39441601881E+02 -0.40018366736E+02  0.83389746046E+02  0.16046097594E+03  0.12504705283E+03 0.  0.
          5    1    4    4  502    0 -0.40758595870E+02 -0.48597353350E+01  0.24167306864E+01  0.41386117866E+02  0.47000000000E+01 0. -1.
         -5    1    4    4    0  502  0.80200197751E+02  0.44878102071E+02  0.47056665848E+02  0.10335635232E+03  0.47000000000E+01 0. -1.
          5    1    5    5  503    0 -0.22696333309E+02 -0.84992522983E+02  0.45606133436E+02  0.99201118521E+02  0.47000000000E+01 0. -1.
         -5    1    5    5    0  503 -0.16745268572E+02  0.44974156248E+02  0.37783612611E+02  0.61259857424E+02  0.47000000000E+01 0. -1.
<mgrwt>
<rscale>  0 0.27476632E+03</rscale>
<asrwt>0</asrwt>
<pdfrwt beam="1">  1        1 0.13256947E-01 0.27476632E+03</pdfrwt>
<pdfrwt beam="2">  1       -1 0.33697430E-01 0.27476632E+03</pdfrwt>
<totfact> 0.36509442E+03</totfact>
</mgrwt>
</event>
<event>
 9    1  0.2073852E-002  0.2750688E+03  0.7818608E-02  0.1098413E+00
         -1   -1    0    0    0  501 -0.00000000000E+00  0.00000000000E+00  0.83733477629E+02  0.83733477629E+02  0.00000000000E+00 0. -1.
          1   -1    0    0  501    0  0.00000000000E+00 -0.00000000000E+00 -0.22590375633E+03  0.22590375633E+03  0.00000000000E+00 0. -1.
         36    2    1    2    0    0  0.00000000000E+00 -0.71054273576E-14 -0.14217027870E+03  0.30963723396E+03  0.27506877051E+03 0.  0.
         25    2    3    3    0    0  0.40516020082E+02 -0.35225271568E+02 -0.85817853921E+02  0.16123779526E+03  0.12550121485E+03 0.  0.
         25    2    3    3    0    0 -0.40516020082E+02  0.35225271568E+02 -0.56352424779E+02  0.14839943870E+03  0.12635042536E+03 0.  0.
          5    1    4    4  502    0  0.54921599916E+02 -0.58522609037E+02 -0.10650789482E+02  0.81097516746E+02  0.47000000000E+01 0. -1.
         -5    1    4    4    0  502 -0.14405579834E+02  0.23297337469E+02 -0.75167064439E+02  0.80140278512E+02  0.47000000000E+01 0. -1.
          5    1    5    5  503    0 -0.83302897410E+02  0.36772845163E+02 -0.52356752048E+02  0.10514244787E+03  0.47000000000E+01 0.  1.
         -5    1    5    5    0  503  0.42786877328E+02 -0.15475735945E+01 -0.39956727309E+01  0.43256990835E+02  0.47000000000E+01 0.  1.
<mgrwt>
<rscale>  0 0.27506877E+03</rscale>
<asrwt>0</asrwt>
<pdfrwt beam="1">  1        1 0.34754424E-01 0.27506877E+03</pdfrwt>
<pdfrwt beam="2">  1       -1 0.12882074E-01 0.27506877E+03</pdfrwt>
<totfact> 0.51089907E+03</totfact>
</mgrwt>
</event>
<event>
 9    1  0.2073852E-002  0.2745792E+03  0.7818608E-02  0.1098687E+00
         -1   -1    0    0    0  501 -0.00000000000E+00  0.00000000000E+00  0.41854074393E+02  0.41854074393E+02  0.00000000000E+00 0.  1.
          1   -1    0    0  501    0  0.00000000000E+00 -0.00000000000E+00 -0.45033701155E+03  0.45033701155E+03  0.00000000000E+00 0.  1.
         36    2    1    2    0    0 -0.71054273576E-14  0.00000000000E+00 -0.40848293716E+03  0.49219108595E+03  0.27457923289E+03 0.  0.
         25    2    3    3    0    0  0.87863153085E+01 -0.25995126412E+02 -0.29618007009E+03  0.32342675033E+03  0.12700111406E+03 0.  0.
         25    2    3    3    0    0 -0.87863153085E+01  0.25995126412E+02 -0.11230286707E+03  0.16876433562E+03  0.12294926227E+03 0.  0.
          5    1    4    4  502    0  0.47215863421E+02 -0.48543594413E+02 -0.25013051230E+03  0.25917789547E+03  0.47000000000E+01 0. -1.
         -5    1    4    4    0  502 -0.38429548113E+02  0.22548468001E+02 -0.46049557790E+02  0.64248854853E+02  0.47000000000E+01 0. -1.
          5    1    5    5  503    0  0.77155120035E+01 -0.41624062270E+01 -0.12960952345E+03  0.12999066628E+03  0.47000000000E+01 0.  1.
         -5    1    5    5    0  503 -0.16501827312E+02  0.30157532639E+02  0.17306656376E+02  0.38773669344E+02  0.47000000000E+01 0.  1.
<mgrwt>
<rscale>  0 0.27457923E+03</rscale>
<asrwt>0</asrwt>
<pdfrwt beam="1">  1        1 0.69282619E-01 0.27457923E+03</pdfrwt>
<pdfrwt beam="2">  1       -1 0.64390882E-02 0.27457923E+03</pdfrwt>
<totfact> 0.61948858E+03</totfact>
</mgrwt>
</event>
<event>
 9    1  0.2073852E-002  0.2830800E+03  0.7818608E-02  0.1094018E+00
         -3   -1    0    0    0  501 -0.00000000000E+00  0.00000000000E+00  0.77317129512E+02  0.77317129512E+02  0.00000000000E+00 0. -1.
          3   -1    0    0  501    0  0.00000000000E+00 -0.00000000000E+00 -0.25910915143E+03  0.25910915143E+03  0.00000000000E+00 0. -1.
         36    2    1    2    0    0  0.71054273576E-14  0.00000000000E+00 -0.18179202192E+03  0.33642628094E+03  0.28308002981E+03 0.  0.
         25    2    3    3    0    0 -0.45892063981E+02  0.47963279981E+02 -0.13080685718E+03  0.19173776083E+03  0.12347622152E+03 0.  0.
         25    2    3    3    0    0  0.45892063981E+02 -0.47963279981E+02 -0.50985164745E+02  0.14468852011E+03  0.11802001129E+03 0.  0.
          5    1    4    4  502    0 -0.57920878806E+02 -0.23933694700E+02 -0.37305817511E+02  0.73085319756E+02  0.47000000000E+01 0.  1.
         -5    1    4    4    0  502  0.12028814825E+02  0.71896974682E+02 -0.93501039665E+02  0.11865244107E+03  0.47000000000E+01 0.  1.
          5    1    5    5  503    0  0.34215490701E+02  0.34329148109E+02 -0.34871041633E+02  0.59893820703E+02  0.47000000000E+01 0. -1.
         -5    1    5    5    0  503  0.11676573279E+02 -0.82292428091E+02 -0.16114123112E+02  0.84794699411E+02  0.47000000000E+01 0. -1.
<mgrwt>
<rscale>  0 0.28308003E+03</rscale>
<asrwt>0</asrwt>
<pdfrwt beam="1">  1        3 0.39862946E-01 0.28308003E+03</pdfrwt>
<pdfrwt beam="2">  1       -3 0.11894943E-01 0.28308003E+03</pdfrwt>
<totfact> 0.87938453E+02</totfact>
</mgrwt>
</event>
<event>
 9    1  0.2073852E-002  0.2729251E+03  0.7818608E-02  0.1099617E+00
         -2   -1    0    0    0  501 -0.00000000000E+00  0.00000000000E+00  0.32124004300E+02  0.32124004300E+02  0.00000000000E+00 0.  1.
          2   -1    0    0  501    0  0.00000000000E+00 -0.00000000000E+00 -0.57969182660E+03  0.57969182660E+03  0.00000000000E+00 0.  1.
         36    2    1    2    0    0  0.71054273576E-14  0.14210854715E-13 -0.54756782230E+03  0.61181583091E+03  0.27292506467E+03 0.  0.
         25    2    3    3    0    0  0.31439628669E+02 -0.35963691108E+02 -0.31079791002E+03  0.33900415276E+03  0.12667532273E+03 0.  0.
         25    2    3    3    0    0 -0.31439628669E+02  0.35963691108E+02 -0.23676991229E+03  0.27281167815E+03  0.12682422103E+03 0.  0.
          5    1    4    4  502    0 -0.39124907397E+02 -0.47072073263E+02 -0.11217957353E+03  0.12787839997E+03  0.47000000000E+01 0. -1.
         -5    1    4    4    0  502  0.70564536066E+02  0.11108382155E+02 -0.19861833648E+03  0.21112575279E+03  0.47000000000E+01 0. -1.
          5    1    5    5  503    0 -0.25627956319E+02 -0.18884151724E+02 -0.27075601301E+01  0.32292788875E+02  0.47000000000E+01 0. -1.
         -5    1    5    5    0  503 -0.58116723492E+01  0.54847842832E+02 -0.23406235216E+03  0.24051888927E+03  0.47000000000E+01 0. -1.
<mgrwt>
<rscale>  0 0.27292506E+03</rscale>
<asrwt>0</asrwt>
<pdfrwt beam="1">  1        2 0.89183354E-01 0.27292506E+03</pdfrwt>
<pdfrwt beam="2">  1       -2 0.49421547E-02 0.27292506E+03</pdfrwt>
<totfact> 0.10413990E+04</totfact>
</mgrwt>
</event>
<event>
 9    1  0.2073852E-002  0.2747061E+03  0.7818608E-02  0.1098616E+00
         -1   -1    0    0    0  501 -0.00000000000E+00  0.00000000000E+00  0.13414791594E+04  0.13414791594E+04  0.00000000000E+00 0.  1.
          1   -1    0    0  501    0  0.00000000000E+00 -0.00000000000E+00 -0.14063473927E+02  0.14063473927E+02  0.00000000000E+00 0.  1.
         36    2    1    2    0    0  0.00000000000E+00  0.00000000000E+00  0.13274156855E+04  0.13555426333E+04  0.27470607697E+03 0.  0.
         25    2    3    3    0    0 -0.24787222149E+02 -0.41506810874E+02  0.50793340266E+03  0.52552248023E+03  0.12585830906E+03 0.  0.
         25    2    3    3    0    0  0.24787222149E+02  0.41506810874E+02  0.81948228280E+03  0.83002015309E+03  0.12265814677E+03 0.  0.
          5    1    4    4  502    0  0.35240021246E+02  0.25978834265E+02  0.18454281421E+03  0.18972321736E+03  0.47000000000E+01 0. -1.
         -5    1    4    4    0  502 -0.60027243395E+02 -0.67485645138E+02  0.32339058844E+03  0.33579926287E+03  0.47000000000E+01 0. -1.
          5    1    5    5  503    0  0.37957550256E+02  0.64195883776E+02  0.27756650433E+03  0.28744937196E+03  0.47000000000E+01 0. -1.
         -5    1    5    5    0  503 -0.13170328107E+02 -0.22689072903E+02  0.54191577848E+03  0.54257078113E+03  0.47000000000E+01 0. -1.
<mgrwt>
<rscale>  0 0.27470608E+03</rscale>
<asrwt>0</asrwt>
<pdfrwt beam="1">  1        1 0.21636124E-02 0.27470608E+03</pdfrwt>
<pdfrwt beam="2">  1       -1 0.20638131E+00 0.27470608E+03</pdfrwt>
<totfact> 0.81937802E+02</totfact>
</mgrwt>
</event>
<event>
 9    1  0.2073852E-002  0.2759183E+03  0.7818608E-02  0.1097939E+00
          2   -1    0    0  501    0  0.00000000000E+00  0.00000000000E+00  0.68139232272E+03  0.68139232272E+03  0.00000000000E+00 0. -1.
         -2   -1    0    0    0  501 -0.00000000000E+00 -0.00000000000E+00 -0.27932107045E+02  0.27932107045E+02  0.00000000000E+00 0. -1.
         36    2    1    2    0    0  0.00000000000E+00  0.14210854715E-13  0.65346021567E+03  0.70932442976E+03  0.27591827266E+03 0.  0.
         25    2    3    3    0    0  0.25375698294E+01 -0.51343771508E+02  0.26405355224E+03  0.29642583030E+03  0.12450450709E+03 0.  0.
         25    2    3    3    0    0 -0.25375698294E+01  0.51343771508E+02  0.38940666343E+03  0.41289859946E+03  0.12729918215E+03 0.  0.
          5    1    4    4  502    0  0.54176537925E+02 -0.52702042904E+02  0.20091673308E+03  0.21471428974E+03  0.47000000000E+01 0. -1.
         -5    1    4    4    0  502 -0.51638968095E+02  0.13582713966E+01  0.63136819157E+02  0.81711540558E+02  0.47000000000E+01 0. -1.
          5    1    5    5  503    0  0.43226502369E+02  0.68609138991E+02  0.30085221115E+03  0.31162459372E+03  0.47000000000E+01 0.  1.
         -5    1    5    5    0  503 -0.45764072199E+02 -0.17265367484E+02  0.88554452288E+02  0.10127400574E+03  0.47000000000E+01 0.  1.
<mgrwt>
<rscale>  0 0.27591827E+03</rscale>
<asrwt>0</asrwt>
<pdfrwt beam="1">  1        2 0.10482958E+00 0.27591827E+03</pdfrwt>
<pdfrwt beam="2">  1       -2 0.42972478E-02 0.27591827E+03</pdfrwt>
<totfact> 0.10645142E+04</totfact>
</mgrwt>
</event>
<event>
 9    1  0.2073852E-002  0.2732400E+03  0.7818608E-02  0.1099439E+00
          1   -1    0    0  501    0  0.00000000000E+00  0.00000000000E+00  0.15294776456E+03  0.15294776456E+03  0.00000000000E+00 0.  1.
         -1   -1    0    0    0  501 -0.00000000000E+00 -0.00000000000E+00 -0.12203527938E+03  0.12203527938E+03  0.00000000000E+00 0.  1.
         36    2    1    2    0    0 -0.35527136788E-14 -0.71054273576E-14  0.30912485178E+02  0.27498304393E+03  0.27323999105E+03 0.  0.
         25    2    3    3    0    0 -0.10208384865E+02  0.60962981242E+02  0.18075082880E+02  0.13983102537E+03  0.12411813257E+03 0.  0.
         25    2    3    3    0    0  0.10208384865E+02 -0.60962981242E+02  0.12837402298E+02  0.13515201856E+03  0.11950135154E+03 0.  0.
          5    1    4    4  502    0 -0.66443688911E+02  0.22532742744E+02  0.11325123542E+02  0.71223849340E+02  0.47000000000E+01 0. -1.
         -5    1    4    4    0  502  0.56235304046E+02  0.38430238498E+02  0.67499593379E+01  0.68607176033E+02  0.47000000000E+01 0. -1.
          5    1    5    5  503    0  0.23702564495E+01  0.14661261727E+02 -0.39680100181E+02  0.42628289450E+02  0.47000000000E+01 0. -1.
         -5    1    5    5    0  503  0.78381284155E+01 -0.75624242969E+02  0.52517502479E+02  0.92523729110E+02  0.47000000000E+01 0. -1.
<mgrwt>
<rscale>  0 0.27323999E+03</rscale>
<asrwt>0</asrwt>
<pdfrwt beam="1">  1        1 0.23530425E-01 0.27323999E+03</pdfrwt>
<pdfrwt beam="2">  1       -1 0.18774658E-01 0.27323999E+03</pdfrwt>
<totfact> 0.45938174E+03</totfact>
</mgrwt>
</event>
<event>
 9    1  0.2073852E-002  0.2747853E+03  0.7818608E-02  0.1098572E+00
          2   -1    0    0  501    0  0.00000000000E+00  0.00000000000E+00  0.31131860829E+03  0.31131860829E+03  0.00000000000E+00 0.  1.
         -2   -1    0    0    0  501 -0.00000000000E+00 -0.00000000000E+00 -0.60634776856E+02  0.60634776856E+02  0.00000000000E+00 0.  1.
         36    2    1    2    0    0 -0.35527136788E-14 -0.71054273576E-14  0.25068383143E+03  0.37195338514E+03  0.27478525684E+03 0.  0.
         25    2    3    3    0    0  0.15250265386E+02  0.34258967743E+02  0.99446553052E+02  0.16569256996E+03  0.12711476452E+03 0.  0.
         25    2    3    3    0    0 -0.15250265386E+02 -0.34258967743E+02  0.15123727838E+03  0.20626081519E+03  0.13514644666E+03 0.  0.
          5    1    4    4  502    0  0.48536380654E+01 -0.39345684175E+02  0.78903376092E+02  0.88427786495E+02  0.47000000000E+01 0. -1.
         -5    1    4    4    0  502  0.10396627321E+02  0.73604651918E+02  0.20543176960E+02  0.77264783461E+02  0.47000000000E+01 0. -1.
          5    1    5    5  503    0 -0.59017238374E+02  0.29877928596E+01  0.19413612583E+02  0.62377397228E+02  0.47000000000E+01 0.  1.
         -5    1    5    5    0  503  0.43766972987E+02 -0.37246760602E+02  0.13182366580E+03  0.14388341796E+03  0.47000000000E+01 0.  1.
<mgrwt>
<rscale>  0 0.27478526E+03</rscale>
<asrwt>0</asrwt>
<pdfrwt beam="1">  1        2 0.47895170E-01 0.27478526E+03</pdfrwt>
<pdfrwt beam="2">  1       -2 0.93284274E-02 0.27478526E+03</pdfrwt>
<totfact> 0.77285995E+03</totfact>
</mgrwt>
</event>
<event>
 9    1  0.2073852E-002  0.2755322E+03  0.7818608E-02  0.1098155E+00
         -1   -1    0    0    0  501 -0.00000000000E+00  0.00000000000E+00  0.13121763383E+03  0.13121763383E+03  0.00000000000E+00 0. -1.
          1   -1    0    0  501    0  0.00000000000E+00 -0.00000000000E+00 -0.14464132956E+03  0.14464132956E+03  0.00000000000E+00 0. -1.
         36    2    1    2    0    0  0.71054273576E-14  0.00000000000E+00 -0.13423695730E+02  0.27585896339E+03  0.27553216160E+03 0.  0.
         25    2    3    3    0    0  0.48004205073E+02  0.11603881467E+02 -0.36426131286E+02  0.13881969967E+03  0.12451904355E+03 0.  0.
         25    2    3    3    0    0 -0.48004205073E+02 -0.11603881467E+02  0.23002435556E+02  0.13703926371E+03  0.12574416085E+03 0.  0.
          5    1    4    4  502    0  0.32805243210E+02 -0.25474311076E+02  0.36489196701E+02  0.55485817853E+02  0.47000000000E+01 0.  1.
         -5    1    4    4    0  502  0.15198961863E+02  0.37078192543E+02 -0.72915327987E+02  0.83333881821E+02  0.47000000000E+01 0.  1.
          5    1    5    5  503    0 -0.84752969489E+02  0.18390543090E+02  0.87819244815E+01  0.87295418608E+02  0.47000000000E+01 0. -1.
         -5    1    5    5    0  503  0.36748764417E+02 -0.29994424556E+02  0.14220511074E+02  0.49743845105E+02  0.47000000000E+01 0. -1.
<mgrwt>
<rscale>  0 0.27553216E+03</rscale>
<asrwt>0</asrwt>
<pdfrwt beam="1">  1        1 0.22252512E-01 0.27553216E+03</pdfrwt>
<pdfrwt beam="2">  1       -1 0.20187328E-01 0.27553216E+03</pdfrwt>
<totfact> 0.43873329E+03</totfact>
</mgrwt>
</event>
<event>
 9    1  0.2073852E-002  0.2729088E+03  0.7818608E-02  0.1099626E+00
          2   -1    0    0  501    0  0.00000000000E+00  0.00000000000E+00  0.11659136992E+03  0.11659136992E+03  0.00000000000E+00 0.  1.
         -2   -1    0    0    0  501 -0.00000000000E+00 -0.00000000000E+00 -0.15970140211E+03  0.15970140211E+03  0.00000000000E+00 0.  1.
         36    2    1    2    0    0  0.00000000000E+00  0.00000000000E+00 -0.43110032195E+02  0.27629277203E+03  0.27290881444E+03 0.  0.
         25    2    3    3    0    0 -0.12507544764E+02 -0.21191635522E+02 -0.58825505962E+02  0.14660308311E+03  0.13200946835E+03 0.  0.
         25    2    3    3    0    0  0.12507544764E+02  0.21191635522E+02  0.15715473767E+02  0.12968968891E+03  0.12636025959E+03 0.  0.
          5    1    4    4  502    0  0.37992240903E+02 -0.38256894924E+02  0.14310144382E+02  0.55980984363E+02  0.47000000000E+01 0. -1.
         -5    1    4    4    0  502 -0.50499785667E+02  0.17065259402E+02 -0.73135650343E+02  0.90622098751E+02  0.47000000000E+01 0. -1.
          5    1    5    5  503    0  0.64811782349E+02  0.24021464924E+02 -0.11891487274E+02  0.70292925518E+02  0.47000000000E+01 0. -1.
         -5    1    5    5    0  503 -0.52304237585E+02 -0.28298294028E+01  0.27606961041E+02  0.59396763394E+02  0.47000000000E+01 0. -1.
<mgrwt>
<rscale>  0 0.27290881E+03</rscale>
<asrwt>0</asrwt>
<pdfrwt beam="1">  1        2 0.17937134E-01 0.27290881E+03</pdfrwt>
<pdfrwt beam="2">  1       -2 0.24569447E-01 0.27290881E+03</pdfrwt>
<totfact> 0.45907325E+03</totfact>
</mgrwt>
</event>
<event>
 9    1  0.2073852E-002  0.2752479E+03  0.7818608E-02  0.1098313E+00
         -2   -1    0    0    0  501 -0.00000000000E+00  0.00000000000E+00  0.58635974921E+02  0.58635974921E+02  0.00000000000E+00 0.  1.
          2   -1    0    0  501    0  0.00000000000E+00 -0.00000000000E+00 -0.32301595761E+03  0.32301595761E+03  0.00000000000E+00 0.  1.
         36    2    1    2    0    0  0.00000000000E+00  0.35527136788E-14 -0.26437998269E+03  0.38165193254E+03  0.27524792889E+03 0.  0.
         25    2    3    3    0    0  0.41399620896E+02 -0.50782394890E+00 -0.76380460779E+02  0.15378072452E+03  0.12688715439E+03 0.  0.
         25    2    3    3    0    0 -0.41399620896E+02  0.50782394890E+00 -0.18799952191E+03  0.22787120802E+03  0.12193145906E+03 0.  0.
          5    1    4    4  502    0  0.18009465325E+02 -0.39123987206E+02  0.19641863667E+02  0.47570158970E+02  0.47000000000E+01 0.  1.
         -5    1    4    4    0  502  0.23390155571E+02  0.38616163257E+02 -0.96022324447E+02  0.10621056555E+03  0.47000000000E+01 0.  1.
          5    1    5    5  503    0  0.13947203486E+01  0.30374056053E+02  0.19485502639E+01  0.30828807536E+02  0.47000000000E+01 0. -1.
         -5    1    5    5    0  503 -0.42794341244E+02 -0.29866232105E+02 -0.18994807218E+03  0.19704240048E+03  0.47000000000E+01 0. -1.
<mgrwt>
<rscale>  0 0.27524793E+03</rscale>
<asrwt>0</asrwt>
<pdfrwt beam="1">  1        2 0.49694763E-01 0.27524793E+03</pdfrwt>
<pdfrwt beam="2">  1       -2 0.90209192E-02 0.27524793E+03</pdfrwt>
<totfact> 0.78319860E+03</totfact>
</mgrwt>
</event>
<event>
 9    1  0.2073852E-002  0.2764907E+03  0.7818608E-02  0.1097621E+00
         -2   -1    0    0    0  501 -0.00000000000E+00  0.00000000000E+00  0.18117195015E+02  0.18117195015E+02  0.00000000000E+00 0. -1.
          2   -1    0    0  501    0  0.00000000000E+00 -0.00000000000E+00 -0.10548970388E+04  0.10548970388E+04  0.00000000000E+00 0. -1.
         36    2    1    2    0    0  0.00000000000E+00  0.14210854715E-13 -0.10367798438E+04  0.10730142338E+04  0.27649068970E+03 0.  0.
         25    2    3    3    0    0 -0.45824516507E+02  0.52917203240E+02 -0.47349840550E+03  0.49209380218E+03  0.11426046306E+03 0.  0.
         25    2    3    3    0    0  0.45824516507E+02 -0.52917203240E+02 -0.56328143832E+03  0.58092043167E+03  0.12362221672E+03 0.  0.
          5    1    4    4  502    0 -0.46929218257E+02  0.75342960960E+02 -0.21598306779E+03  0.23355874821E+03  0.47000000000E+01 0. -1.
         -5    1    4    4    0  502  0.11047017500E+01 -0.22425757720E+02 -0.25751533771E+03  0.25853505397E+03  0.47000000000E+01 0. -1.
          5    1    5    5  503    0  0.29008553826E+02  0.31151230081E+02 -0.32162124289E+03  0.32445987303E+03  0.47000000000E+01 0. -1.
         -5    1    5    5    0  503  0.16815962681E+02 -0.84068433321E+02 -0.24166019543E+03  0.25646055864E+03  0.47000000000E+01 0. -1.
<mgrwt>
<rscale>  0 0.27649069E+03</rscale>
<asrwt>0</asrwt>
<pdfrwt beam="1">  1        2 0.16229186E+00 0.27649069E+03</pdfrwt>
<pdfrwt beam="2">  1       -2 0.27872607E-02 0.27649069E+03</pdfrwt>
<totfact> 0.11468112E+04</totfact>
</mgrwt>
</event>
<event>
 9    1  0.2073852E-002  0.2763244E+03  0.7818608E-02  0.1097714E+00
         -1   -1    0    0    0  501 -0.00000000000E+00  0.00000000000E+00  0.16057030135E+02  0.16057030135E+02  0.00000000000E+00 0.  1.
          1   -1    0    0  501    0  0.00000000000E+00 -0.00000000000E+00 -0.11888125519E+04  0.11888125519E+04  0.00000000000E+00 0.  1.
         36    2    1    2    0    0 -0.71054273576E-14  0.00000000000E+00 -0.11727555217E+04  0.12048695820E+04  0.27632443952E+03 0.  0.
         25    2    3    3    0    0 -0.56402092163E+02 -0.14912332304E+02 -0.63219781386E+03  0.64721792547E+03  0.12575131627E+03 0.  0.
         25    2    3    3    0    0  0.56402092163E+02  0.14912332304E+02 -0.54055770786E+03  0.55765165652E+03  0.12397241966E+03 0.  0.
          5    1    4    4  502    0 -0.26893643544E+02  0.10926491685E+02 -0.24605706697E+02  0.38343018735E+02  0.47000000000E+01 0.  1.
         -5    1    4    4    0  502 -0.29508448619E+02 -0.25838823989E+02 -0.60759210716E+03  0.60887490673E+03  0.47000000000E+01 0.  1.
          5    1    5    5  503    0 -0.38317689460E+02  0.15628222942E+02 -0.14325375698E+03  0.14918517207E+03  0.47000000000E+01 0.  1.
         -5    1    5    5    0  503  0.94719781624E+02 -0.71589063811E+00 -0.39730395088E+03  0.40846648445E+03  0.47000000000E+01 0.  1.
<mgrwt>
<rscale>  0 0.27632444E+03</rscale>
<asrwt>0</asrwt>
<pdfrwt beam="1">  1        1 0.18289418E+00 0.27632444E+03</pdfrwt>
<pdfrwt beam="2">  1       -1 0.24703131E-02 0.27632444E+03</pdfrwt>
<totfact> 0.58600669E+03</totfact>
</mgrwt>
</event>
<event>
 9    1  0.2073852E-002  0.2759018E+03  0.7818608E-02  0.1097949E+00
          1   -1    0    0  501    0  0.00000000000E+00  0.00000000000E+00  0.32592402058E+02  0.32592402058E+02  0.00000000000E+00 0.  1.
         -1   -1    0    0    0  501 -0.00000000000E+00 -0.00000000000E+00 -0.58389241210E+03  0.58389241210E+03  0.00000000000E+00 0.  1.
         36    2    1    2    0    0  0.00000000000E+00 -0.53290705182E-14 -0.55130001004E+03  0.61648481415E+03  0.27590183946E+03 0.  0.
         25    2    3    3    0    0  0.39757586836E+02 -0.52505084967E+01 -0.38671421073E+03  0.40879383727E+03  0.12631819767E+03 0.  0.
         25    2    3    3    0    0 -0.39757586836E+02  0.52505084967E+01 -0.16458579931E+03  0.20769097688E+03  0.12016165359E+03 0.  0.
          5    1    4    4  502    0  0.31300795967E+02 -0.51423378202E+02 -0.32781948095E+03  0.33333437528E+03  0.47000000000E+01 0.  1.
         -5    1    4    4    0  502  0.84567908692E+01  0.46172869706E+02 -0.58894729780E+02  0.75459461995E+02  0.47000000000E+01 0.  1.
          5    1    5    5  503    0 -0.78906642513E+02 -0.67067166927E+01 -0.13632512534E+03  0.15772719512E+03  0.47000000000E+01 0.  1.
         -5    1    5    5    0  503  0.39149055677E+02  0.11957225189E+02 -0.28260673972E+02  0.49963781762E+02  0.47000000000E+01 0.  1.
<mgrwt>
<rscale>  0 0.27590184E+03</rscale>
<asrwt>0</asrwt>
<pdfrwt beam="1">  1        1 0.50142159E-02 0.27590184E+03</pdfrwt>
<pdfrwt beam="2">  1       -1 0.89829598E-01 0.27590184E+03</pdfrwt>
<totfact> 0.21124225E+03</totfact>
</mgrwt>
</event>
<event>
 9    1  0.2073852E-002  0.2758829E+03  0.7818608E-02  0.1097959E+00
         -2   -1    0    0    0  501 -0.00000000000E+00  0.00000000000E+00  0.23929597147E+03  0.23929597147E+03  0.00000000000E+00 0. -1.
          2   -1    0    0  501    0  0.00000000000E+00 -0.00000000000E+00 -0.79515923273E+02  0.79515923273E+02  0.00000000000E+00 0. -1.
         36    2    1    2    0    0  0.14210854715E-13  0.17763568394E-14  0.15978004820E+03  0.31881189474E+03  0.27588287447E+03 0.  0.
         25    2    3    3    0    0  0.60319434223E+02 -0.59768838268E+01  0.92311186212E+02  0.16606111993E+03  0.12401928547E+03 0.  0.
         25    2    3    3    0    0 -0.60319434223E+02  0.59768838268E+01  0.67468861985E+02  0.15275077481E+03  0.12290888732E+03 0.  0.
          5    1    4    4  502    0 -0.29177943014E+02  0.26302199255E+02  0.44281412060E+02  0.59380901797E+02  0.47000000000E+01 0.  1.
         -5    1    4    4    0  502  0.89497377237E+02 -0.32279083082E+02  0.48029774153E+02  0.10668021814E+03  0.47000000000E+01 0.  1.
          5    1    5    5  503    0 -0.93949129387E+02  0.17789154785E+01  0.71679208737E+02  0.11827764970E+03  0.47000000000E+01 0.  1.
         -5    1    5    5    0  503  0.33629695165E+02  0.41979683483E+01 -0.42103467524E+01  0.34473125111E+02  0.47000000000E+01 0.  1.
<mgrwt>
<rscale>  0 0.27588287E+03</rscale>
<asrwt>0</asrwt>
<pdfrwt beam="1">  1        2 0.12233219E-01 0.27588287E+03</pdfrwt>
<pdfrwt beam="2">  1       -2 0.36814764E-01 0.27588287E+03</pdfrwt>
<totfact> 0.34681281E+03</totfact>
</mgrwt>
</event>
<event>
 9    1  0.2073852E-002  0.2750122E+03  0.7818608E-02  0.1098445E+00
         -1   -1    0    0    0  501 -0.00000000000E+00  0.00000000000E+00  0.19065754324E+03  0.19065754324E+03  0.00000000000E+00 0.  1.
          1   -1    0    0  501    0  0.00000000000E+00 -0.00000000000E+00 -0.99172230158E+02  0.99172230158E+02  0.00000000000E+00 0.  1.
         36    2    1    2    0    0  0.35527136788E-14  0.00000000000E+00  0.91485313080E+02  0.28982977340E+03  0.27501224525E+03 0.  0.
         25    2    3    3    0    0  0.26081328910E+02  0.16315496456E+02 -0.28472979327E+01  0.12007675086E+03  0.11603399437E+03 0.  0.
         25    2    3    3    0    0 -0.26081328910E+02 -0.16315496456E+02  0.94332611012E+02  0.16975302254E+03  0.13773531144E+03 0.  0.
          5    1    4    4  502    0 -0.26478494501E+02  0.16543475620E+02 -0.43297491053E+02  0.53586938596E+02  0.47000000000E+01 0. -1.
         -5    1    4    4    0  502  0.52559823411E+02 -0.22797916378E+00  0.40450193120E+02  0.66489812264E+02  0.47000000000E+01 0. -1.
          5    1    5    5  503    0  0.25248544203E+02  0.83602766186E+01 -0.25403660977E+02  0.37078554456E+02  0.47000000000E+01 0.  1.
         -5    1    5    5    0  503 -0.51329873113E+02 -0.24675773075E+02  0.11973627199E+03  0.13267446808E+03  0.47000000000E+01 0.  1.
<mgrwt>
<rscale>  0 0.27501225E+03</rscale>
<asrwt>0</asrwt>
<pdfrwt beam="1">  1        1 0.15257266E-01 0.27501225E+03</pdfrwt>
<pdfrwt beam="2">  1       -1 0.29331930E-01 0.27501225E+03</pdfrwt>
<totfact> 0.38478945E+03</totfact>
</mgrwt>
</event>
<event>
 9    1  0.2073852E-002  0.2752374E+03  0.7818608E-02  0.1098319E+00
         -1   -1    0    0    0  501 -0.00000000000E+00  0.00000000000E+00  0.12016968124E+02  0.12016968124E+02  0.00000000000E+00 0.  1.
          1   -1    0    0  501    0  0.00000000000E+00 -0.00000000000E+00 -0.15760134594E+04  0.15760134594E+04  0.00000000000E+00 0.  1.
         36    2    1    2    0    0  0.71054273576E-14 -0.71054273576E-14 -0.15639964913E+04  0.15880304275E+04  0.27523737758E+03 0.  0.
         25    2    3    3    0    0 -0.42634628069E+02  0.25577186164E+00 -0.11262292967E+04  0.11337704491E+04  0.12339054121E+03 0.  0.
         25    2    3    3    0    0  0.42634628069E+02 -0.25577186164E+00 -0.43776719458E+03  0.45425997839E+03  0.11355278239E+03 0.  0.
          5    1    4    4  502    0 -0.73686867213E+02 -0.34691491562E+02 -0.61515874557E+03  0.62054462067E+03  0.47000000000E+01 0. -1.
         -5    1    4    4    0  502  0.31052239145E+02  0.34947263424E+02 -0.51107055114E+03  0.51322582848E+03  0.47000000000E+01 0. -1.
          5    1    5    5  503    0  0.47191374409E+02  0.50826299749E+02 -0.26650743908E+03  0.27542447903E+03  0.47000000000E+01 0.  1.
         -5    1    5    5    0  503 -0.45567463401E+01 -0.51082071611E+02 -0.17125975550E+03  0.17883549936E+03  0.47000000000E+01 0.  1.
<mgrwt>
<rscale>  0 0.27523738E+03</rscale>
<asrwt>0</asrwt>
<pdfrwt beam="1">  1        1 0.24246346E+00 0.27523738E+03</pdfrwt>
<pdfrwt beam="2">  1       -1 0.18487654E-02 0.27523738E+03</pdfrwt>
<totfact> 0.49040666E+03</totfact>
</mgrwt>
</event>
<event>
 9    1  0.2073852E-002  0.2745252E+03  0.7818608E-02  0.1098717E+00
          2   -1    0    0  501    0  0.00000000000E+00  0.00000000000E+00  0.67331363988E+03  0.67331363988E+03  0.00000000000E+00 0.  1.
         -2   -1    0    0    0  501 -0.00000000000E+00 -0.00000000000E+00 -0.27982524710E+02  0.27982524710E+02  0.00000000000E+00 0.  1.
         36    2    1    2    0    0  0.00000000000E+00  0.71054273576E-14  0.64533111517E+03  0.70129616459E+03  0.27452515779E+03 0.  0.
         25    2    3    3    0    0 -0.24222140302E+02 -0.37416777524E+02  0.24236972232E+03  0.27812004051E+03  0.12892225299E+03 0.  0.
         25    2    3    3    0    0  0.24222140302E+02  0.37416777524E+02  0.40296139286E+03  0.42317612408E+03  0.12129888927E+03 0.  0.
          5    1    4    4  502    0 -0.38635930362E+02 -0.15252311302E+02  0.84300179663E+01  0.42644147523E+02  0.47000000000E+01 0. -1.
         -5    1    4    4    0  502  0.14413790061E+02 -0.22164466221E+02  0.23393970435E+03  0.23547589299E+03  0.47000000000E+01 0. -1.
          5    1    5    5  503    0 -0.12163186897E+02  0.36818380696E+02  0.32248210705E+02  0.50651489279E+02  0.47000000000E+01 0. -1.
         -5    1    5    5    0  503  0.36385327198E+02  0.59839682806E+00  0.37071318215E+03  0.37252463480E+03  0.47000000000E+01 0. -1.
<mgrwt>
<rscale>  0 0.27452516E+03</rscale>
<asrwt>0</asrwt>
<pdfrwt beam="1">  1        2 0.10358670E+00 0.27452516E+03</pdfrwt>
<pdfrwt beam="2">  1       -2 0.43050043E-02 0.27452516E+03</pdfrwt>
<totfact> 0.10767392E+04</totfact>
</mgrwt>
</event>
<event>
 9    1  0.2073852E-002  0.2770740E+03  0.7818608E-02  0.1097298E+00
          2   -1    0    0  501    0  0.00000000000E+00  0.00000000000E+00  0.22623650240E+03  0.22623650240E+03  0.00000000000E+00 0. -1.
         -2   -1    0    0    0  501 -0.00000000000E+00 -0.00000000000E+00 -0.84833808132E+02  0.84833808132E+02  0.00000000000E+00 0. -1.
         36    2    1    2    0    0 -0.71054273576E-14 -0.71054273576E-14  0.14140269427E+03  0.31107031053E+03  0.27707402648E+03 0.  0.
         25    2    3    3    0    0 -0.37395999180E+02 -0.47314805357E+02  0.49758376252E+02  0.14575806658E+03  0.12301368381E+03 0.  0.
         25    2    3    3    0    0  0.37395999180E+02  0.47314805357E+02  0.91644318014E+02  0.16531224395E+03  0.12366206135E+03 0.  0.
          5    1    4    4  502    0 -0.57743847703E+02 -0.43342082152E+02 -0.18154340634E+02  0.74595965820E+02  0.47000000000E+01 0. -1.
         -5    1    4    4    0  502  0.20347848523E+02 -0.39727232044E+01  0.67912716886E+02  0.71162100756E+02  0.47000000000E+01 0. -1.
          5    1    5    5  503    0 -0.16245360930E+01 -0.37420004364E+02  0.53142730491E+01  0.38121219054E+02  0.47000000000E+01 0.  1.
         -5    1    5    5    0  503  0.39020535273E+02  0.84734809721E+02  0.86330044965E+02  0.12719102490E+03  0.47000000000E+01 0.  1.
<mgrwt>
<rscale>  0 0.27707403E+03</rscale>
<asrwt>0</asrwt>
<pdfrwt beam="1">  1        2 0.34805616E-01 0.27707403E+03</pdfrwt>
<pdfrwt beam="2">  1       -2 0.13051355E-01 0.27707403E+03</pdfrwt>
<totfact> 0.63674864E+03</totfact>
</mgrwt>
</event>
<event>
 9    1  0.2073852E-002  0.2745343E+03  0.7818608E-02  0.1098712E+00
         -2   -1    0    0    0  501 -0.00000000000E+00  0.00000000000E+00  0.13541678510E+02  0.13541678510E+02  0.00000000000E+00 0.  1.
          2   -1    0    0  501    0  0.00000000000E+00 -0.00000000000E+00 -0.13914277994E+04  0.13914277994E+04  0.00000000000E+00 0.  1.
         36    2    1    2    0    0 -0.14210854715E-13  0.00000000000E+00 -0.13778861209E+04  0.14049694780E+04  0.27453428151E+03 0.  0.
         25    2    3    3    0    0 -0.47139700616E+02 -0.28493183898E+02 -0.59805040220E+03  0.61302523494E+03  0.12288873913E+03 0.  0.
         25    2    3    3    0    0  0.47139700616E+02  0.28493183898E+02 -0.77983571874E+03  0.79194424301E+03  0.12648289576E+03 0.  0.
          5    1    4    4  502    0  0.36695922436E+02 -0.17118901304E+02 -0.10296136237E+03  0.11073743562E+03  0.47000000000E+01 0.  1.
         -5    1    4    4    0  502 -0.83835623052E+02 -0.11374282594E+02 -0.49508903982E+03  0.50228779933E+03  0.47000000000E+01 0.  1.
          5    1    5    5  503    0  0.69688712322E+02 -0.10800357427E+02 -0.65951404800E+03  0.66329030888E+03  0.47000000000E+01 0. -1.
         -5    1    5    5    0  503 -0.22549011706E+02  0.39293541325E+02 -0.12032167074E+03  0.12865393413E+03  0.47000000000E+01 0. -1.
<mgrwt>
<rscale>  0 0.27453428E+03</rscale>
<asrwt>0</asrwt>
<pdfrwt beam="1">  1        2 0.21406566E+00 0.27453428E+03</pdfrwt>
<pdfrwt beam="2">  1       -2 0.20833367E-02 0.27453428E+03</pdfrwt>
<totfact> 0.11366418E+04</totfact>
</mgrwt>
</event>
<event>
 9    1  0.2073852E-002  0.2753958E+03  0.7818608E-02  0.1098231E+00
          1   -1    0    0  501    0  0.00000000000E+00  0.00000000000E+00  0.97613234353E+03  0.97613234353E+03  0.00000000000E+00 0.  1.
         -1   -1    0    0    0  501 -0.00000000000E+00 -0.00000000000E+00 -0.19424331042E+02  0.19424331042E+02  0.00000000000E+00 0.  1.
         36    2    1    2    0    0 -0.35527136788E-14  0.00000000000E+00  0.95670801249E+03  0.99555667458E+03  0.27539584442E+03 0.  0.
         25    2    3    3    0    0 -0.16789199419E+02  0.46110395793E+02  0.60675391161E+03  0.62133768716E+03  0.12450769623E+03 0.  0.
         25    2    3    3    0    0  0.16789199419E+02 -0.46110395793E+02  0.34995410088E+03  0.37421898741E+03  0.12314191811E+03 0.  0.
          5    1    4    4  502    0 -0.49413763962E+02 -0.24900659534E+02  0.24834106600E+03  0.25447423833E+03  0.47000000000E+01 0. -1.
         -5    1    4    4    0  502  0.32624564542E+02  0.71011055326E+02  0.35841284561E+03  0.36686344883E+03  0.47000000000E+01 0. -1.
          5    1    5    5  503    0 -0.30924496297E+02 -0.19468714050E+02  0.29240959080E+03  0.29472158742E+03  0.47000000000E+01 0. -1.
         -5    1    5    5    0  503  0.47713695716E+02 -0.26641681742E+02  0.57544510081E+02  0.79497399991E+02  0.47000000000E+01 0. -1.
<mgrwt>
<rscale>  0 0.27539584E+03</rscale>
<asrwt>0</asrwt>
<pdfrwt beam="1">  1        1 0.15017417E+00 0.27539584E+03</pdfrwt>
<pdfrwt beam="2">  1       -1 0.29883594E-02 0.27539584E+03</pdfrwt>
<totfact> 0.63195795E+03</totfact>
</mgrwt>
</event>
<event>
 9    1  0.2073852E-002  0.2745886E+03  0.7818608E-02  0.1098682E+00
          1   -1    0    0  501    0  0.00000000000E+00  0.00000000000E+00  0.13974814287E+04  0.13974814287E+04  0.00000000000E+00 0. -1.
         -1   -1    0    0    0  501 -0.00000000000E+00 -0.00000000000E+00 -0.13488358590E+02  0.13488358590E+02  0.00000000000E+00 0. -1.
         36    2    1    2    0    0 -0.17763568394E-14  0.00000000000E+00  0.13839930701E+04  0.14109697873E+04  0.27458864239E+03 0.  0.
         25    2    3    3    0    0 -0.10040367646E+02 -0.29986663290E+02  0.93129052271E+03  0.94027490619E+03  0.12575711733E+03 0.  0.
         25    2    3    3    0    0  0.10040367646E+02  0.29986663290E+02  0.45270254737E+03  0.47069488107E+03  0.12495625521E+03 0.  0.
          5    1    4    4  502    0 -0.47075597729E+00  0.22867733984E+02  0.33322151555E+02  0.40689195778E+02  0.47000000000E+01 0.  1.
         -5    1    4    4    0  502 -0.95696116687E+01 -0.52854397275E+02  0.89796837116E+03  0.89958571041E+03  0.47000000000E+01 0.  1.
          5    1    5    5  503    0 -0.17545568099E+02 -0.45175641759E+02  0.17242312855E+03  0.17916615425E+03  0.47000000000E+01 0. -1.
         -5    1    5    5    0  503  0.27585935745E+02  0.75162305050E+02  0.28027941882E+03  0.29152872682E+03  0.47000000000E+01 0. -1.
<mgrwt>
<rscale>  0 0.27458864E+03</rscale>
<asrwt>0</asrwt>
<pdfrwt beam="1">  1        1 0.21499703E+00 0.27458864E+03</pdfrwt>
<pdfrwt beam="2">  1       -1 0.20751332E-02 0.27458864E+03</pdfrwt>
<totfact> 0.54427753E+03</totfact>
</mgrwt>
</event>
<event>
 9    1  0.2073852E-002  0.2744456E+03  0.7818608E-02  0.1098762E+00
          2   -1    0    0  501    0  0.00000000000E+00  0.00000000000E+00  0.15400887048E+04  0.15400887048E+04  0.00000000000E+00 0.  1.
         -2   -1    0    0    0  501 -0.00000000000E+00 -0.00000000000E+00 -0.12226630427E+02  0.12226630427E+02  0.00000000000E+00 0.  1.
         36    2    1    2    0    0  0.00000000000E+00  0.00000000000E+00  0.15278620744E+04  0.15523153352E+04  0.27444558965E+03 0.  0.
         25    2    3    3    0    0  0.27697663968E+02 -0.37073275150E+02  0.71794041349E+03  0.73038834817E+03  0.12604409346E+03 0.  0.
         25    2    3    3    0    0 -0.27697663968E+02  0.37073275150E+02  0.80992166088E+03  0.82192698706E+03  0.13209574926E+03 0.  0.
          5    1    4    4  502    0 -0.31937244157E+02 -0.58390956542E+02  0.27835813840E+03  0.28624261490E+03  0.47000000000E+01 0.  1.
         -5    1    4    4    0  502  0.59634908125E+02  0.21317681392E+02  0.43958227509E+03  0.44414573327E+03  0.47000000000E+01 0.  1.
          5    1    5    5  503    0  0.17530067436E+02  0.15997139214E+02  0.70737127556E+03  0.70778487071E+03  0.47000000000E+01 0. -1.
         -5    1    5    5    0  503 -0.45227731404E+02  0.21076135936E+02  0.10255038532E+03  0.11414211635E+03  0.47000000000E+01 0. -1.
<mgrwt>
<rscale>  0 0.27444559E+03</rscale>
<asrwt>0</asrwt>
<pdfrwt beam="1">  1        2 0.23693657E+00 0.27444559E+03</pdfrwt>
<pdfrwt beam="2">  1       -2 0.18810213E-02 0.27444559E+03</pdfrwt>
<totfact> 0.10988003E+04</totfact>
</mgrwt>
</event>
<event>
 9    1  0.2073852E-002  0.2746985E+03  0.7818608E-02  0.1098620E+00
          2   -1    0    0  501    0  0.00000000000E+00  0.00000000000E+00  0.21254490770E+02  0.21254490770E+02  0.00000000000E+00 0. -1.
         -2   -1    0    0    0  501 -0.00000000000E+00 -0.00000000000E+00 -0.88756829400E+03  0.88756829400E+03  0.00000000000E+00 0. -1.
         36    2    1    2    0    0  0.35527136788E-14  0.00000000000E+00 -0.86631380323E+03  0.90882278477E+03  0.27469846824E+03 0.  0.
         25    2    3    3    0    0  0.25484189681E+02 -0.79229190651E+02 -0.39641031206E+03  0.42379993189E+03  0.12465367297E+03 0.  0.
         25    2    3    3    0    0 -0.25484189681E+02  0.79229190651E+02 -0.46990349117E+03  0.48502285289E+03  0.86666996203E+02 0.  0.
          5    1    4    4  502    0 -0.49548808964E+02 -0.45658402323E+02 -0.18076976708E+03  0.19297557582E+03  0.47000000000E+01 0.  1.
         -5    1    4    4    0  502  0.75032998646E+02 -0.33570788328E+02 -0.21564054498E+03  0.23082435607E+03  0.47000000000E+01 0.  1.
          5    1    5    5  503    0 -0.26224901094E+02  0.71464197266E+02 -0.18676276865E+03  0.20173571494E+03  0.47000000000E+01 0.  1.
         -5    1    5    5    0  503  0.74071141304E+00  0.77649933848E+01 -0.28314072252E+03  0.28328713794E+03  0.47000000000E+01 0.  1.
<mgrwt>
<rscale>  0 0.27469847E+03</rscale>
<asrwt>0</asrwt>
<pdfrwt beam="1">  1        2 0.32699212E-02 0.27469847E+03</pdfrwt>
<pdfrwt beam="2">  1       -2 0.13654899E+00 0.27469847E+03</pdfrwt>
<totfact> 0.11232908E+03</totfact>
</mgrwt>
</event>
<event>
 9    1  0.2073852E-002  0.2783496E+03  0.7818608E-02  0.1096594E+00
          2   -1    0    0  501    0  0.00000000000E+00  0.00000000000E+00  0.50727841535E+03  0.50727841535E+03  0.00000000000E+00 0. -1.
         -2   -1    0    0    0  501 -0.00000000000E+00 -0.00000000000E+00 -0.38183406667E+02  0.38183406667E+02  0.00000000000E+00 0. -1.
         36    2    1    2    0    0 -0.35527136788E-14 -0.14210854715E-13  0.46909500869E+03  0.54546182202E+03  0.27834955022E+03 0.  0.
         25    2    3    3    0    0 -0.24769269098E+02 -0.54206159612E+02  0.22612372170E+03  0.26608437492E+03  0.12695326947E+03 0.  0.
         25    2    3    3    0    0  0.24769269098E+02  0.54206159612E+02  0.24297128699E+03  0.27937744710E+03  0.12435789970E+03 0.  0.
          5    1    4    4  502    0  0.91926901197E+01  0.39295874190E+02  0.67892800080E+02  0.79121385116E+02  0.47000000000E+01 0. -1.
         -5    1    4    4    0  502 -0.33961959218E+02 -0.93502033803E+02  0.15823092162E+03  0.18696298980E+03  0.47000000000E+01 0. -1.
          5    1    5    5  503    0  0.24824194975E+02 -0.25690884962E+02  0.16034525767E+03  0.16434401079E+03  0.47000000000E+01 0.  1.
         -5    1    5    5    0  503 -0.54925876977E-01  0.79897044575E+02  0.82626029320E+02  0.11503343631E+03  0.47000000000E+01 0.  1.
<mgrwt>
<rscale>  0 0.27834955E+03</rscale>
<asrwt>0</asrwt>
<pdfrwt beam="1">  1        2 0.78042828E-01 0.27834955E+03</pdfrwt>
<pdfrwt beam="2">  1       -2 0.58743706E-02 0.27834955E+03</pdfrwt>
<totfact> 0.93174353E+03</totfact>
</mgrwt>
</event>
<event>
 9    1  0.2073852E-002  0.2797680E+03  0.7818608E-02  0.1095816E+00
          2   -1    0    0  501    0  0.00000000000E+00  0.00000000000E+00  0.67819957790E+02  0.67819957790E+02  0.00000000000E+00 0.  1.
         -2   -1    0    0    0  501 -0.00000000000E+00 -0.00000000000E+00 -0.28852167058E+03  0.28852167058E+03  0.00000000000E+00 0.  1.
         36    2    1    2    0    0 -0.14210854715E-13  0.00000000000E+00 -0.22070171279E+03  0.35634162837E+03  0.27976795757E+03 0.  0.
         25    2    3    3    0    0 -0.32498771658E+02 -0.32287101071E+02 -0.57650380833E+02  0.14481824029E+03  0.12470015740E+03 0.  0.
         25    2    3    3    0    0  0.32498771658E+02  0.32287101071E+02 -0.16305133196E+03  0.21152338808E+03  0.12671929528E+03 0.  0.
          5    1    4    4  502    0 -0.77747155490E+02 -0.34021321599E+01 -0.42721661607E+02  0.88901209556E+02  0.47000000000E+01 0. -1.
         -5    1    4    4    0  502  0.45248383832E+02 -0.28884968911E+02 -0.14928719226E+02  0.55917030734E+02  0.47000000000E+01 0. -1.
          5    1    5    5  503    0  0.18407834699E+02  0.62401324176E+02 -0.16546514741E+03  0.17785831059E+03  0.47000000000E+01 0.  1.
         -5    1    5    5    0  503  0.14090936959E+02 -0.30114223105E+02  0.24138154528E+01  0.33665077493E+02  0.47000000000E+01 0.  1.
<mgrwt>
<rscale>  0 0.27976796E+03</rscale>
<asrwt>0</asrwt>
<pdfrwt beam="1">  1        2 0.10433840E-01 0.27976796E+03</pdfrwt>
<pdfrwt beam="2">  1       -2 0.44387950E-01 0.27976796E+03</pdfrwt>
<totfact> 0.29474974E+03</totfact>
</mgrwt>
</event>
<event>
 9    1  0.2073852E-002  0.2754931E+03  0.7818608E-02  0.1098176E+00
         -1   -1    0    0    0  501 -0.00000000000E+00  0.00000000000E+00  0.18397815070E+03  0.18397815070E+03  0.00000000000E+00 0.  1.
          1   -1    0    0  501    0  0.00000000000E+00 -0.00000000000E+00 -0.10313241259E+03  0.10313241259E+03  0.00000000000E+00 0.  1.
         36    2    1    2    0    0 -0.71054273576E-14  0.00000000000E+00  0.80845738108E+02  0.28711056330E+03  0.27549308918E+03 0.  0.
         25    2    3    3    0    0  0.34335049805E+02 -0.45816128143E+01  0.93334055118E+00  0.13236550924E+03  0.12774924693E+03 0.  0.
         25    2    3    3    0    0 -0.34335049805E+02  0.45816128143E+01  0.79912397557E+02  0.15474505405E+03  0.12790681627E+03 0.  0.
          5    1    4    4  502    0  0.69340337468E+02 -0.33878608746E+02 -0.22926277616E+02  0.80644570406E+02  0.47000000000E+01 0.  1.
         -5    1    4    4    0  502 -0.35005287663E+02  0.29296995932E+02  0.23859618167E+02  0.51720938836E+02  0.47000000000E+01 0.  1.
          5    1    5    5  503    0 -0.10620928860E+02  0.42021621211E+02 -0.18000110890E+02  0.47166882144E+02  0.47000000000E+01 0.  1.
         -5    1    5    5    0  503 -0.23714120945E+02 -0.37440008397E+02  0.97912508448E+02  0.10757817191E+03  0.47000000000E+01 0.  1.
<mgrwt>
<rscale>  0 0.27549309E+03</rscale>
<asrwt>0</asrwt>
<pdfrwt beam="1">  1        1 0.15866525E-01 0.27549309E+03</pdfrwt>
<pdfrwt beam="2">  1       -1 0.28304331E-01 0.27549309E+03</pdfrwt>
<totfact> 0.38832430E+03</totfact>
</mgrwt>
</event>
<event>
 9    1  0.2073852E-002  0.2748164E+03  0.7818608E-02  0.1098554E+00
         -2   -1    0    0    0  501 -0.00000000000E+00  0.00000000000E+00  0.59081460323E+02  0.59081460323E+02  0.00000000000E+00 0.  1.
          2   -1    0    0  501    0  0.00000000000E+00 -0.00000000000E+00 -0.31957588939E+03  0.31957588939E+03  0.00000000000E+00 0.  1.
         36    2    1    2    0    0  0.71054273576E-14  0.00000000000E+00 -0.26049442907E+03  0.37865734971E+03  0.27481637673E+03 0.  0.
         25    2    3    3    0    0 -0.27696990409E+02 -0.38617307289E+01 -0.18678438303E+03  0.23018569896E+03  0.13158652674E+03 0.  0.
         25    2    3    3    0    0  0.27696990409E+02  0.38617307289E+01 -0.73710046041E+02  0.14847165076E+03  0.12581185933E+03 0.  0.
          5    1    4    4  502    0  0.72253701512E+01 -0.29444237023E+02 -0.18401301176E+03  0.18655306903E+03  0.47000000000E+01 0.  1.
         -5    1    4    4    0  502 -0.34922360560E+02  0.25582506294E+02 -0.27713712649E+01  0.43632629924E+02  0.47000000000E+01 0.  1.
          5    1    5    5  503    0 -0.44160902446E+02 -0.87724524494E+01 -0.88244632710E+00  0.45277035441E+02  0.47000000000E+01 0. -1.
         -5    1    5    5    0  503  0.71857892855E+02  0.12634183178E+02 -0.72827599714E+02  0.10319461532E+03  0.47000000000E+01 0. -1.
<mgrwt>
<rscale>  0 0.27481638E+03</rscale>
<asrwt>0</asrwt>
<pdfrwt beam="1">  1        2 0.49165522E-01 0.27481638E+03</pdfrwt>
<pdfrwt beam="2">  1       -2 0.90894554E-02 0.27481638E+03</pdfrwt>
<totfact> 0.78282898E+03</totfact>
</mgrwt>
</event>
<event>
 9    1  0.2073852E-002  0.2746151E+03  0.7818608E-02  0.1098667E+00
         -1   -1    0    0    0  501 -0.00000000000E+00  0.00000000000E+00  0.20129528670E+03  0.20129528670E+03  0.00000000000E+00 0. -1.
          1   -1    0    0  501    0  0.00000000000E+00 -0.00000000000E+00 -0.93660257794E+02  0.93660257794E+02  0.00000000000E+00 0. -1.
         36    2    1    2    0    0  0.00000000000E+00  0.00000000000E+00  0.10763502891E+03  0.29495554450E+03  0.27461513757E+03 0.  0.
         25    2    3    3    0    0 -0.10710214563E+02 -0.21004704742E+02  0.10881681447E+03  0.16909851884E+03  0.12726862789E+03 0.  0.
         25    2    3    3    0    0  0.10710214563E+02  0.21004704742E+02 -0.11817855624E+01  0.12585702566E+03  0.12362316924E+03 0.  0.
          5    1    4    4  502    0 -0.34353180795E+02 -0.27153961334E+02 -0.12081147520E+02  0.45667524262E+02  0.47000000000E+01 0. -1.
         -5    1    4    4    0  502  0.23642966232E+02  0.61492565922E+01  0.12089796199E+03  0.12343099458E+03  0.47000000000E+01 0. -1.
          5    1    5    5  503    0  0.66562312283E+02  0.71613676957E+01  0.72861294348E+01  0.67505587072E+02  0.47000000000E+01 0. -1.
         -5    1    5    5    0  503 -0.55852097720E+02  0.13843337046E+02 -0.84679149973E+01  0.58351438583E+02  0.47000000000E+01 0. -1.
<mgrwt>
<rscale>  0 0.27461514E+03</rscale>
<asrwt>0</asrwt>
<pdfrwt beam="1">  1        1 0.14409270E-01 0.27461514E+03</pdfrwt>
<pdfrwt beam="2">  1       -1 0.30968506E-01 0.27461514E+03</pdfrwt>
<totfact> 0.37816136E+03</totfact>
</mgrwt>
</event>
<event>
 9    1  0.2073852E-002  0.2756011E+03  0.7818608E-02  0.1098116E+00
         -1   -1    0    0    0  501 -0.00000000000E+00  0.00000000000E+00  0.72493372227E+02  0.72493372227E+02  0.00000000000E+00 0.  1.
          1   -1    0    0  501    0  0.00000000000E+00 -0.00000000000E+00 -0.26194109230E+03  0.26194109230E+03  0.00000000000E+00 0.  1.
         36    2    1    2    0    0  0.00000000000E+00  0.71054273576E-14 -0.18944772007E+03  0.33443446453E+03  0.27560111107E+03 0.  0.
         25    2    3    3    0    0  0.57266855571E+02 -0.22449939875E+02 -0.95602815771E+02  0.16535049088E+03  0.12007245273E+03 0.  0.
         25    2    3    3    0    0 -0.57266855571E+02  0.22449939875E+02 -0.93844904303E+02  0.16908397364E+03  0.12648727814E+03 0.  0.
          5    1    4    4  502    0  0.64036884531E+02 -0.64841403331E+02 -0.58317987995E+02  0.10829685079E+03  0.47000000000E+01 0.  1.
         -5    1    4    4    0  502 -0.67700289598E+01  0.42391463456E+02 -0.37284827776E+02  0.57053640098E+02  0.47000000000E+01 0.  1.
          5    1    5    5  503    0 -0.68805329531E+02  0.32511081870E+02 -0.24366072221E+01  0.76283490160E+02  0.47000000000E+01 0. -1.
         -5    1    5    5    0  503  0.11538473960E+02 -0.10061141995E+02 -0.91408297081E+02  0.92800483483E+02  0.47000000000E+01 0. -1.
<mgrwt>
<rscale>  0 0.27560111E+03</rscale>
<asrwt>0</asrwt>
<pdfrwt beam="1">  1        1 0.40298629E-01 0.27560111E+03</pdfrwt>
<pdfrwt beam="2">  1       -1 0.11152827E-01 0.27560111E+03</pdfrwt>
<totfact> 0.53141473E+03</totfact>
</mgrwt>
</event>
<event>
 9    1  0.2073852E-002  0.2751178E+03  0.7818608E-02  0.1098386E+00
         -3   -1    0    0    0  501 -0.00000000000E+00  0.00000000000E+00  0.45465690715E+02  0.45465690715E+02  0.00000000000E+00 0. -1.
          3   -1    0    0  501    0  0.00000000000E+00 -0.00000000000E+00 -0.41619194589E+03  0.41619194589E+03  0.00000000000E+00 0. -1.
         36    2    1    2    0    0  0.35527136788E-14  0.00000000000E+00 -0.37072625517E+03  0.46165763660E+03  0.27511782414E+03 0.  0.
         25    2    3    3    0    0 -0.29625805870E+02 -0.58693356905E+02 -0.16543554335E+03  0.21140428931E+03  0.11401866521E+03 0.  0.
         25    2    3    3    0    0  0.29625805870E+02  0.58693356905E+02 -0.20529071182E+03  0.25025334730E+03  0.12712144962E+03 0.  0.
          5    1    4    4  502    0  0.14732447361E+02 -0.34959753650E+01  0.12272702549E+02  0.20049341058E+02  0.47000000000E+01 0.  1.
         -5    1    4    4    0  502 -0.44358253231E+02 -0.55197381540E+02 -0.17770824590E+03  0.19135494825E+03  0.47000000000E+01 0.  1.
          5    1    5    5  503    0  0.54270476569E+02  0.88615612706E+02 -0.14632063857E+03  0.17952668525E+03  0.47000000000E+01 0. -1.
         -5    1    5    5    0  503 -0.24644670698E+02 -0.29922255801E+02 -0.58970073247E+02  0.70726662050E+02  0.47000000000E+01 0. -1.
<mgrwt>
<rscale>  0 0.27511782E+03</rscale>
<asrwt>0</asrwt>
<pdfrwt beam="1">  1        3 0.64029532E-01 0.27511782E+03</pdfrwt>
<pdfrwt beam="2">  1       -3 0.69947215E-02 0.27511782E+03</pdfrwt>
<totfact> 0.81185567E+02</totfact>
</mgrwt>
</event>
<event>
 9    1  0.2073852E-002  0.2749111E+03  0.7818608E-02  0.1098501E+00
          1   -1    0    0  501    0  0.00000000000E+00  0.00000000000E+00  0.39714726990E+02  0.39714726990E+02  0.00000000000E+00 0.  1.
         -1   -1    0    0    0  501 -0.00000000000E+00 -0.00000000000E+00 -0.47574360529E+03  0.47574360529E+03  0.00000000000E+00 0.  1.
         36    2    1    2    0    0  0.00000000000E+00  0.00000000000E+00 -0.43602887830E+03  0.51545833228E+03  0.27491109400E+03 0.  0.
         25    2    3    3    0    0 -0.51166201129E+02  0.15404053542E+02 -0.21499291972E+03  0.25542897695E+03  0.12714850269E+03 0.  0.
         25    2    3    3    0    0  0.51166201129E+02 -0.15404053542E+02 -0.22103595858E+03  0.26002935533E+03  0.12610751619E+03 0.  0.
          5    1    4    4  502    0  0.13361083323E+02 -0.60285963608E+01  0.11299663277E+02  0.19095415990E+02  0.47000000000E+01 0.  1.
         -5    1    4    4    0  502 -0.64527284452E+02  0.21432649903E+02 -0.22629258299E+03  0.23633356096E+03  0.47000000000E+01 0.  1.
          5    1    5    5  503    0 -0.73659701160E+01 -0.39576593265E+02 -0.17980592844E+03  0.18431718898E+03  0.47000000000E+01 0. -1.
         -5    1    5    5    0  503  0.58532171245E+02  0.24172539723E+02 -0.41230030141E+02  0.75712166346E+02  0.47000000000E+01 0. -1.
<mgrwt>
<rscale>  0 0.27491109E+03</rscale>
<asrwt>0</asrwt>
<pdfrwt beam="1">  1        1 0.61099577E-02 0.27491109E+03</pdfrwt>
<pdfrwt beam="2">  1       -1 0.73191328E-01 0.27491109E+03</pdfrwt>
<totfact> 0.24632348E+03</totfact>
</mgrwt>
</event>
<event>
 9    1  0.2073852E-002  0.2756548E+03  0.7818608E-02  0.1098086E+00
         -2   -1    0    0    0  501 -0.00000000000E+00  0.00000000000E+00  0.38974150882E+02  0.38974150882E+02  0.00000000000E+00 0. -1.
          2   -1    0    0  501    0  0.00000000000E+00 -0.00000000000E+00 -0.48740999964E+03  0.48740999964E+03  0.00000000000E+00 0. -1.
         36    2    1    2    0    0 -0.71054273576E-14 -0.35527136788E-14 -0.44843584875E+03  0.52638415052E+03  0.27565479040E+03 0.  0.
         25    2    3    3    0    0  0.57190103137E+02  0.61291532711E+01 -0.18052095249E+03  0.22733396712E+03  0.12563695277E+03 0.  0.
         25    2    3    3    0    0 -0.57190103137E+02 -0.61291532711E+01 -0.26791489626E+03  0.29905018340E+03  0.11976788440E+03 0.  0.
          5    1    4    4  502    0 -0.31250017088E+02  0.16984778611E+02 -0.14189416013E+02  0.38580769811E+02  0.47000000000E+01 0. -1.
         -5    1    4    4    0  502  0.88440120225E+02 -0.10855625340E+02 -0.16633153648E+03  0.18875319731E+03  0.47000000000E+01 0. -1.
          5    1    5    5  503    0  0.64697337754E+01  0.44393269734E+02 -0.14303582871E+03  0.14997985914E+03  0.47000000000E+01 0. -1.
         -5    1    5    5    0  503 -0.63659836913E+02 -0.50522423005E+02 -0.12487906756E+03  0.14907032426E+03  0.47000000000E+01 0. -1.
<mgrwt>
<rscale>  0 0.27565479E+03</rscale>
<asrwt>0</asrwt>
<pdfrwt beam="1">  1        2 0.74986155E-01 0.27565479E+03</pdfrwt>
<pdfrwt beam="2">  1       -2 0.59960231E-02 0.27565479E+03</pdfrwt>
<totfact> 0.94381228E+03</totfact>
</mgrwt>
</event>
<event>
 9    1  0.2073852E-002  0.2744977E+03  0.7818608E-02  0.1098733E+00
         -1   -1    0    0    0  501 -0.00000000000E+00  0.00000000000E+00  0.11348584717E+03  0.11348584717E+03  0.00000000000E+00 0. -1.
          1   -1    0    0  501    0  0.00000000000E+00 -0.00000000000E+00 -0.16598766520E+03  0.16598766520E+03  0.00000000000E+00 0. -1.
         36    2    1    2    0    0  0.00000000000E+00  0.35527136788E-14 -0.52501818029E+02  0.27947351236E+03  0.27449772898E+03 0.  0.
         25    2    3    3    0    0 -0.23709358561E+02 -0.72685517709E+01 -0.80754734043E+02  0.15011638465E+03  0.12409124200E+03 0.  0.
         25    2    3    3    0    0  0.23709358561E+02  0.72685517709E+01  0.28252916014E+02  0.12935712772E+03  0.12377428529E+03 0.  0.
          5    1    4    4  502    0 -0.58664126792E+02 -0.19051471787E+01 -0.94945975808E+02  0.11172259252E+03  0.47000000000E+01 0.  1.
         -5    1    4    4    0  502  0.34954768231E+02 -0.53634045922E+01  0.14191241764E+02  0.38393792125E+02  0.47000000000E+01 0.  1.
          5    1    5    5  503    0 -0.19639574980E+01  0.56097000978E+02  0.44356992006E+02  0.71696327574E+02  0.47000000000E+01 0. -1.
         -5    1    5    5    0  503  0.25673316059E+02 -0.48828449207E+02 -0.16104075992E+02  0.57660800142E+02  0.47000000000E+01 0. -1.
<mgrwt>
<rscale>  0 0.27449773E+03</rscale>
<asrwt>0</asrwt>
<pdfrwt beam="1">  1        1 0.25536564E-01 0.27449773E+03</pdfrwt>
<pdfrwt beam="2">  1       -1 0.17459361E-01 0.27449773E+03</pdfrwt>
<totfact> 0.46534741E+03</totfact>
</mgrwt>
</event>
<event>
 9    1  0.2073852E-002  0.2766315E+03  0.7818608E-02  0.1097543E+00
          1   -1    0    0  501    0  0.00000000000E+00  0.00000000000E+00  0.86860561561E+03  0.86860561561E+03  0.00000000000E+00 0. -1.
         -1   -1    0    0    0  501 -0.00000000000E+00 -0.00000000000E+00 -0.22025247270E+02  0.22025247270E+02  0.00000000000E+00 0. -1.
         36    2    1    2    0    0 -0.35527136788E-14 -0.71054273576E-14  0.84658036834E+03  0.89063086288E+03  0.27663154892E+03 0.  0.
         25    2    3    3    0    0  0.15306233195E+02  0.40174464951E+02  0.57110893745E+03  0.58615285407E+03  0.12474566721E+03 0.  0.
         25    2    3    3    0    0 -0.15306233195E+02 -0.40174464951E+02  0.27547143089E+03  0.30447800881E+03  0.12236862427E+03 0.  0.
          5    1    4    4  502    0 -0.37983628598E+02  0.10098614540E+02  0.63358801513E+02  0.74707200365E+02  0.47000000000E+01 0.  1.
         -5    1    4    4    0  502  0.53289861793E+02  0.30075850412E+02  0.50775013594E+03  0.51144565370E+03  0.47000000000E+01 0.  1.
          5    1    5    5  503    0  0.16977585699E+02 -0.73888176481E+02  0.11945125411E+03  0.14155703143E+03  0.47000000000E+01 0. -1.
         -5    1    5    5    0  503 -0.32283818893E+02  0.33713711529E+02  0.15602017678E+03  0.16292097738E+03  0.47000000000E+01 0. -1.
<mgrwt>
<rscale>  0 0.27663155E+03</rscale>
<asrwt>0</asrwt>
<pdfrwt beam="1">  1        1 0.13363161E+00 0.27663155E+03</pdfrwt>
<pdfrwt beam="2">  1       -1 0.33885003E-02 0.27663155E+03</pdfrwt>
<totfact> 0.63625552E+03</totfact>
</mgrwt>
</event>
<event>
 9    1  0.2073852E-002  0.2747332E+03  0.7818608E-02  0.1098601E+00
          4   -1    0    0  501    0  0.00000000000E+00  0.00000000000E+00  0.30555838591E+02  0.30555838591E+02  0.00000000000E+00 0.  1.
         -4   -1    0    0    0  501 -0.00000000000E+00 -0.00000000000E+00 -0.61754442745E+03  0.61754442745E+03  0.00000000000E+00 0.  1.
         36    2    1    2    0    0  0.00000000000E+00  0.00000000000E+00 -0.58698858886E+03  0.64810026604E+03  0.27473323678E+03 0.  0.
         25    2    3    3    0    0 -0.28102641717E+02  0.67095277036E+01 -0.18304367152E+03  0.22444785089E+03  0.12663757677E+03 0.  0.
         25    2    3    3    0    0  0.28102641717E+02 -0.67095277036E+01 -0.40394491734E+03  0.42365241516E+03  0.12439894046E+03 0.  0.
          5    1    4    4  502    0 -0.75271993823E+02 -0.75550227077E+01 -0.13835968452E+03  0.15776071667E+03  0.47000000000E+01 0.  1.
         -5    1    4    4    0  502  0.47169352106E+02  0.14264550411E+02 -0.44683986997E+02  0.66687134220E+02  0.47000000000E+01 0.  1.
          5    1    5    5  503    0 -0.16147954283E+02  0.46310621842E+02 -0.94642448833E+02  0.10669917171E+03  0.47000000000E+01 0.  1.
         -5    1    5    5    0  503  0.44250596001E+02 -0.53020149546E+02 -0.30930246851E+03  0.31695324344E+03  0.47000000000E+01 0.  1.
<mgrwt>
<rscale>  0 0.27473324E+03</rscale>
<asrwt>0</asrwt>
<pdfrwt beam="1">  1        4 0.47008979E-02 0.27473324E+03</pdfrwt>
<pdfrwt beam="2">  1       -4 0.95006842E-01 0.27473324E+03</pdfrwt>
<totfact> 0.47515574E+02</totfact>
</mgrwt>
</event>
<event>
 9    1  0.2073852E-002  0.2747335E+03  0.7818608E-02  0.1098601E+00
         -1   -1    0    0    0  501 -0.00000000000E+00  0.00000000000E+00  0.87273425820E+02  0.87273425820E+02  0.00000000000E+00 0. -1.
          1   -1    0    0  501    0  0.00000000000E+00 -0.00000000000E+00 -0.21621273430E+03  0.21621273430E+03  0.00000000000E+00 0. -1.
         36    2    1    2    0    0 -0.71054273576E-14 -0.71054273576E-14 -0.12893930848E+03  0.30348616012E+03  0.27473351472E+03 0.  0.
         25    2    3    3    0    0 -0.23991538643E+02 -0.36774266068E+02 -0.34589809680E+02  0.14240302398E+03  0.13097414147E+03 0.  0.
         25    2    3    3    0    0  0.23991538643E+02  0.36774266068E+02 -0.94349498797E+02  0.16108313614E+03  0.12295530998E+03 0.  0.
          5    1    4    4  502    0  0.31448269497E+02  0.30355184226E+02  0.90802111829E+01  0.44888429454E+02  0.47000000000E+01 0. -1.
         -5    1    4    4    0  502 -0.55439808139E+02 -0.67129450294E+02 -0.43670020863E+02  0.97514594525E+02  0.47000000000E+01 0. -1.
          5    1    5    5  503    0  0.20223934871E+02  0.19632750378E+02 -0.12348419340E+03  0.12674734099E+03  0.47000000000E+01 0. -1.
         -5    1    5    5    0  503  0.37676037717E+01  0.17141515690E+02  0.29134694606E+02  0.34335795143E+02  0.47000000000E+01 0. -1.
<mgrwt>
<rscale>  0 0.27473351E+03</rscale>
<asrwt>0</asrwt>
<pdfrwt beam="1">  1        1 0.33263497E-01 0.27473351E+03</pdfrwt>
<pdfrwt beam="2">  1       -1 0.13426681E-01 0.27473351E+03</pdfrwt>
<totfact> 0.50581814E+03</totfact>
</mgrwt>
</event>
<event>
 9    1  0.2073852E-002  0.2744101E+03  0.7818608E-02  0.1098782E+00
          2   -1    0    0  501    0  0.00000000000E+00  0.00000000000E+00  0.52723918720E+03  0.52723918720E+03  0.00000000000E+00 0. -1.
         -2   -1    0    0    0  501 -0.00000000000E+00 -0.00000000000E+00 -0.35705289696E+02  0.35705289696E+02  0.00000000000E+00 0. -1.
         36    2    1    2    0    0  0.00000000000E+00  0.00000000000E+00  0.49153389750E+03  0.56294447689E+03  0.27441011583E+03 0.  0.
         25    2    3    3    0    0  0.45592014302E+02  0.34082233317E+02  0.26435327024E+03  0.29523453837E+03  0.11849283003E+03 0.  0.
         25    2    3    3    0    0 -0.45592014302E+02 -0.34082233317E+02  0.22718062727E+03  0.26770993852E+03  0.12968170026E+03 0.  0.
          5    1    4    4  502    0  0.63567741816E+02  0.27395212872E+02  0.26648945114E+03  0.27537260768E+03  0.47000000000E+01 0. -1.
         -5    1    4    4    0  502 -0.17975727514E+02  0.66870204454E+01 -0.21361809074E+01  0.19861930696E+02  0.47000000000E+01 0. -1.
          5    1    5    5  503    0 -0.77895577491E+02 -0.20315609700E+02  0.70617484070E+02  0.10718845109E+03  0.47000000000E+01 0. -1.
         -5    1    5    5    0  503  0.32303563189E+02 -0.13766623617E+02  0.15656314320E+03  0.16052148743E+03  0.47000000000E+01 0. -1.
<mgrwt>
<rscale>  0 0.27441012E+03</rscale>
<asrwt>0</asrwt>
<pdfrwt beam="1">  1        2 0.81113715E-01 0.27441012E+03</pdfrwt>
<pdfrwt beam="2">  1       -2 0.54931219E-02 0.27441012E+03</pdfrwt>
<totfact> 0.98803277E+03</totfact>
</mgrwt>
</event>
<event>
 9    1  0.2073852E-002  0.2748123E+03  0.7818608E-02  0.1098557E+00
          2   -1    0    0  501    0  0.00000000000E+00  0.00000000000E+00  0.14765344320E+04  0.14765344320E+04  0.00000000000E+00 0.  1.
         -2   -1    0    0    0  501 -0.00000000000E+00 -0.00000000000E+00 -0.12787006022E+02  0.12787006022E+02  0.00000000000E+00 0.  1.
         36    2    1    2    0    0  0.00000000000E+00 -0.71054273576E-14  0.14637474260E+04  0.14893214380E+04  0.27481233360E+03 0.  0.
         25    2    3    3    0    0  0.37316291722E+02  0.40581702123E+02  0.62242795987E+03  0.63682549073E+03  0.12284445549E+03 0.  0.
         25    2    3    3    0    0 -0.37316291722E+02 -0.40581702123E+02  0.84131946609E+03  0.85249594728E+03  0.12606155606E+03 0.  0.
          5    1    4    4  502    0  0.38336759033E+02  0.80970104783E+01  0.51147877410E+02  0.64602353173E+02  0.47000000000E+01 0. -1.
         -5    1    4    4    0  502 -0.10204673108E+01  0.32484691645E+02  0.57128008246E+03  0.57222313756E+03  0.47000000000E+01 0. -1.
          5    1    5    5  503    0  0.41569638546E+02  0.10500580185E+02  0.23665710800E+03  0.24055555242E+03  0.47000000000E+01 0.  1.
         -5    1    5    5    0  503 -0.78885930269E+02 -0.51082282308E+02  0.60466235810E+03  0.61194039486E+03  0.47000000000E+01 0.  1.
<mgrwt>
<rscale>  0 0.27481233E+03</rscale>
<asrwt>0</asrwt>
<pdfrwt beam="1">  1        2 0.22715901E+00 0.27481233E+03</pdfrwt>
<pdfrwt beam="2">  1       -2 0.19672329E-02 0.27481233E+03</pdfrwt>
<totfact> 0.11125291E+04</totfact>
</mgrwt>
</event>
<event>
 9    1  0.2073852E-002  0.2753134E+03  0.7818608E-02  0.1098277E+00
         -1   -1    0    0    0  501 -0.00000000000E+00  0.00000000000E+00  0.13182869788E+03  0.13182869788E+03  0.00000000000E+00 0. -1.
          1   -1    0    0  501    0  0.00000000000E+00 -0.00000000000E+00 -0.14374236492E+03  0.14374236492E+03  0.00000000000E+00 0. -1.
         36    2    1    2    0    0  0.00000000000E+00 -0.35527136788E-14 -0.11913667040E+02  0.27557106280E+03  0.27531341266E+03 0.  0.
         25    2    3    3    0    0  0.49019709429E+02 -0.11557069286E+02 -0.37162969044E+02  0.13990432317E+03  0.12512248244E+03 0.  0.
         25    2    3    3    0    0 -0.49019709429E+02  0.11557069286E+02  0.25249302003E+02  0.13566673962E+03  0.12341571709E+03 0.  0.
          5    1    4    4  502    0  0.45192397118E+02  0.33108711367E+02  0.26296481483E+02  0.62065565848E+02  0.47000000000E+01 0. -1.
         -5    1    4    4    0  502  0.38273123117E+01 -0.44665780653E+02 -0.63459450527E+02  0.77838757326E+02  0.47000000000E+01 0. -1.
          5    1    5    5  503    0 -0.89783744814E+02  0.35162003565E+01  0.26617123871E+02  0.93829876803E+02  0.47000000000E+01 0.  1.
         -5    1    5    5    0  503  0.40764035385E+02  0.80408689294E+01 -0.13678218681E+01  0.41836862820E+02  0.47000000000E+01 0.  1.
<mgrwt>
<rscale>  0 0.27531341E+03</rscale>
<asrwt>0</asrwt>
<pdfrwt beam="1">  1        1 0.22114210E-01 0.27531341E+03</pdfrwt>
<pdfrwt beam="2">  1       -1 0.20281338E-01 0.27531341E+03</pdfrwt>
<totfact> 0.43890858E+03</totfact>
</mgrwt>
</event>
<event>
 9    1  0.2073852E-002  0.2747042E+03  0.7818608E-02  0.1098617E+00
          2   -1    0    0  501    0  0.00000000000E+00  0.00000000000E+00  0.15662919163E+04  0.15662919163E+04  0.00000000000E+00 0.  1.
         -2   -1    0    0    0  501 -0.00000000000E+00 -0.00000000000E+00 -0.12044751800E+02  0.12044751800E+02  0.00000000000E+00 0.  1.
         36    2    1    2    0    0  0.00000000000E+00 -0.71054273576E-14  0.15542471645E+04  0.15783366681E+04  0.27470418547E+03 0.  0.
         25    2    3    3    0    0 -0.26131281957E+02 -0.37360096030E+02  0.60543471372E+03  0.61987409149E+03  0.12495629657E+03 0.  0.
         25    2    3    3    0    0  0.26131281957E+02  0.37360096030E+02  0.94881245082E+03  0.95846257665E+03  0.12777645845E+03 0.  0.
          5    1    4    4  502    0 -0.51156658437E+02  0.28883936677E+02  0.20962137355E+03  0.21774869862E+03  0.47000000000E+01 0. -1.
         -5    1    4    4    0  502  0.25025376480E+02 -0.66244032707E+02  0.39581334017E+03  0.40212539287E+03  0.47000000000E+01 0. -1.
          5    1    5    5  503    0  0.44734334895E+02  0.15855424312E+02  0.11973167750E+03  0.12888102962E+03  0.47000000000E+01 0.  1.
         -5    1    5    5    0  503 -0.18603052938E+02  0.21504671718E+02  0.82908077333E+03  0.82958154704E+03  0.47000000000E+01 0.  1.
<mgrwt>
<rscale>  0 0.27470419E+03</rscale>
<asrwt>0</asrwt>
<pdfrwt beam="1">  1        2 0.24096783E+00 0.27470419E+03</pdfrwt>
<pdfrwt beam="2">  1       -2 0.18530400E-02 0.27470419E+03</pdfrwt>
<totfact> 0.10877862E+04</totfact>
</mgrwt>
</event>
<event>
 9    1  0.2073852E-002  0.2756845E+03  0.7818608E-02  0.1098070E+00
          2   -1    0    0  501    0  0.00000000000E+00  0.00000000000E+00  0.33615779245E+03  0.33615779245E+03  0.00000000000E+00 0.  1.
         -2   -1    0    0    0  501 -0.00000000000E+00 -0.00000000000E+00 -0.56522520566E+02  0.56522520566E+02  0.00000000000E+00 0.  1.
         36    2    1    2    0    0  0.35527136788E-14 -0.14210854715E-13  0.27963527188E+03  0.39268031302E+03  0.27568449893E+03 0.  0.
         25    2    3    3    0    0  0.13378361298E+02 -0.56086272366E+02  0.16858255299E+03  0.21627664118E+03  0.12260039905E+03 0.  0.
         25    2    3    3    0    0 -0.13378361298E+02  0.56086272366E+02  0.11105271889E+03  0.17640367184E+03  0.12434186168E+03 0.  0.
          5    1    4    4  502    0  0.98844980695E+01 -0.91627419334E+02  0.14904399452E+03  0.17529828744E+03  0.47000000000E+01 0. -1.
         -5    1    4    4    0  502  0.34938632282E+01  0.35541146968E+02  0.19538558471E+02  0.40978353739E+02  0.47000000000E+01 0. -1.
          5    1    5    5  503    0  0.22598282659E+01 -0.77568454015E+00 -0.26315136818E+02  0.26838124675E+02  0.47000000000E+01 0.  1.
         -5    1    5    5    0  503 -0.15638189564E+02  0.56861956907E+02  0.13736785571E+03  0.14956554716E+03  0.47000000000E+01 0.  1.
<mgrwt>
<rscale>  0 0.27568450E+03</rscale>
<asrwt>0</asrwt>
<pdfrwt beam="1">  1        2 0.51716582E-01 0.27568450E+03</pdfrwt>
<pdfrwt beam="2">  1       -2 0.86957726E-02 0.27568450E+03</pdfrwt>
<totfact> 0.79494797E+03</totfact>
</mgrwt>
</event>
<event>
 9    1  0.2073852E-002  0.2728574E+03  0.7818608E-02  0.1099655E+00
          2   -1    0    0  501    0  0.00000000000E+00  0.00000000000E+00  0.49107039681E+03  0.49107039681E+03  0.00000000000E+00 0. -1.
         -2   -1    0    0    0  501 -0.00000000000E+00 -0.00000000000E+00 -0.37902495843E+02  0.37902495843E+02  0.00000000000E+00 0. -1.
         36    2    1    2    0    0 -0.35527136788E-14 -0.35527136788E-14  0.45316790097E+03  0.52897289266E+03  0.27285742558E+03 0.  0.
         25    2    3    3    0    0 -0.22331451401E+02 -0.70202365097E+01  0.32047581485E+03  0.34626271663E+03  0.12901605939E+03 0.  0.
         25    2    3    3    0    0  0.22331451401E+02  0.70202365097E+01  0.13269208612E+03  0.18271017603E+03  0.12340113963E+03 0.  0.
          5    1    4    4  502    0 -0.38990579477E+02  0.19246262728E+02  0.27629345155E+02  0.51731563195E+02  0.47000000000E+01 0. -1.
         -5    1    4    4    0  502  0.16659128075E+02 -0.26266499238E+02  0.29284646969E+03  0.29453115343E+03  0.47000000000E+01 0. -1.
          5    1    5    5  503    0  0.28495041877E+01 -0.43713312519E+02  0.11838408468E+03  0.12631648694E+03  0.47000000000E+01 0.  1.
         -5    1    5    5    0  503  0.19481947214E+02  0.50733549028E+02  0.14308001438E+02  0.56393689092E+02  0.47000000000E+01 0.  1.
<mgrwt>
<rscale>  0 0.27285743E+03</rscale>
<asrwt>0</asrwt>
<pdfrwt beam="1">  1        2 0.75549287E-01 0.27285743E+03</pdfrwt>
<pdfrwt beam="2">  1       -2 0.58311535E-02 0.27285743E+03</pdfrwt>
<totfact> 0.97645463E+03</totfact>
</mgrwt>
</event>
<event>
 9    1  0.2073852E-002  0.2769955E+03  0.7818608E-02  0.1097341E+00
          1   -1    0    0  501    0  0.00000000000E+00  0.00000000000E+00  0.50776921675E+03  0.50776921675E+03  0.00000000000E+00 0.  1.
         -1   -1    0    0    0  501 -0.00000000000E+00 -0.00000000000E+00 -0.37776275103E+02  0.37776275103E+02  0.00000000000E+00 0.  1.
         36    2    1    2    0    0  0.35527136788E-14 -0.14210854715E-13  0.46999294165E+03  0.54554549186E+03  0.27699552069E+03 0.  0.
         25    2    3    3    0    0 -0.18562106371E+02  0.32668627795E+02  0.11550336834E+03  0.16814306798E+03  0.11627240505E+03 0.  0.
         25    2    3    3    0    0  0.18562106371E+02 -0.32668627795E+02  0.35448957331E+03  0.37740242388E+03  0.12392715977E+03 0.  0.
          5    1    4    4  502    0  0.10570244415E+02  0.12240250045E+02 -0.21046419940E+02  0.26955436937E+02  0.47000000000E+01 0. -1.
         -5    1    4    4    0  502 -0.29132350786E+02  0.20428377750E+02  0.13654978828E+03  0.14118763104E+03  0.47000000000E+01 0. -1.
          5    1    5    5  503    0 -0.15228164967E+02  0.19876725461E+02  0.10173198658E+02  0.27432921723E+02  0.47000000000E+01 0. -1.
         -5    1    5    5    0  503  0.33790271338E+02 -0.52545353256E+02  0.34431637465E+03  0.34996950215E+03  0.47000000000E+01 0. -1.
<mgrwt>
<rscale>  0 0.27699552E+03</rscale>
<asrwt>0</asrwt>
<pdfrwt beam="1">  1        1 0.78118336E-01 0.27699552E+03</pdfrwt>
<pdfrwt beam="2">  1       -1 0.58117350E-02 0.27699552E+03</pdfrwt>
<totfact> 0.61753960E+03</totfact>
</mgrwt>
</event>
<event>
 9    1  0.2073852E-002  0.2751517E+03  0.7818608E-02  0.1098367E+00
          4   -1    0    0  501    0  0.00000000000E+00  0.00000000000E+00  0.79693114328E+02  0.79693114328E+02  0.00000000000E+00 0. -1.
         -4   -1    0    0    0  501 -0.00000000000E+00 -0.00000000000E+00 -0.23749999648E+03  0.23749999648E+03  0.00000000000E+00 0. -1.
         36    2    1    2    0    0  0.00000000000E+00  0.00000000000E+00 -0.15780688215E+03  0.31719311081E+03  0.27515169905E+03 0.  0.
         25    2    3    3    0    0 -0.24779586773E+02  0.16606180967E+01 -0.13572015654E+03  0.18626579344E+03  0.12513272690E+03 0.  0.
         25    2    3    3    0    0  0.24779586773E+02 -0.16606180967E+01 -0.22086725610E+02  0.13092731737E+03  0.12663867265E+03 0.  0.
          5    1    4    4  502    0  0.20893165944E+02  0.48806511971E+02 -0.94848421018E+02  0.10879757793E+03  0.47000000000E+01 0.  1.
         -5    1    4    4    0  502 -0.45672752717E+02 -0.47145893874E+02 -0.40871735524E+02  0.77468215512E+02  0.47000000000E+01 0.  1.
          5    1    5    5  503    0 -0.29856558682E+02  0.37577014633E+02  0.19150832872E+02  0.51887286735E+02  0.47000000000E+01 0. -1.
         -5    1    5    5    0  503  0.54636145455E+02 -0.39237632729E+02 -0.41237558483E+02  0.79040030630E+02  0.47000000000E+01 0. -1.
<mgrwt>
<rscale>  0 0.27515170E+03</rscale>
<asrwt>0</asrwt>
<pdfrwt beam="1">  1        4 0.12260479E-01 0.27515170E+03</pdfrwt>
<pdfrwt beam="2">  1       -4 0.36538461E-01 0.27515170E+03</pdfrwt>
<totfact> 0.72991796E+02</totfact>
</mgrwt>
</event>
<event>
 9    1  0.2073852E-002  0.2754542E+03  0.7818608E-02  0.1098198E+00
         -2   -1    0    0    0  501 -0.00000000000E+00  0.00000000000E+00  0.23044857914E+02  0.23044857914E+02  0.00000000000E+00 0.  1.
          2   -1    0    0  501    0  0.00000000000E+00 -0.00000000000E+00 -0.82312287076E+03  0.82312287076E+03  0.00000000000E+00 0.  1.
         36    2    1    2    0    0  0.00000000000E+00  0.35527136788E-14 -0.80007801284E+03  0.84616772867E+03  0.27545416753E+03 0.  0.
         25    2    3    3    0    0  0.41466000839E+02  0.26667487725E+02 -0.48366660517E+03  0.50258543028E+03  0.12738973916E+03 0.  0.
         25    2    3    3    0    0 -0.41466000839E+02 -0.26667487725E+02 -0.31641140767E+03  0.34358229839E+03  0.12450715938E+03 0.  0.
          5    1    4    4  502    0  0.13444459425E+02 -0.15627444923E+02 -0.42227463722E+03  0.42280365391E+03  0.47000000000E+01 0.  1.
         -5    1    4    4    0  502  0.28021541414E+02  0.42294932648E+02 -0.61391967953E+02  0.79781776366E+02  0.47000000000E+01 0.  1.
          5    1    5    5  503    0  0.38747517703E+02  0.15696457334E+02 -0.81431063970E+02  0.91656189536E+02  0.47000000000E+01 0. -1.
         -5    1    5    5    0  503 -0.80213518542E+02 -0.42363945059E+02 -0.23498034370E+03  0.25192610886E+03  0.47000000000E+01 0. -1.
<mgrwt>
<rscale>  0 0.27545417E+03</rscale>
<asrwt>0</asrwt>
<pdfrwt beam="1">  1        2 0.12663428E+00 0.27545417E+03</pdfrwt>
<pdfrwt beam="2">  1       -2 0.35453629E-02 0.27545417E+03</pdfrwt>
<totfact> 0.11236929E+04</totfact>
</mgrwt>
</event>
<event>
 9    1  0.2073852E-002  0.2794147E+03  0.7818608E-02  0.1096009E+00
          2   -1    0    0  501    0  0.00000000000E+00  0.00000000000E+00  0.17066080222E+04  0.17066080222E+04  0.00000000000E+00 0.  1.
         -2   -1    0    0    0  501 -0.00000000000E+00 -0.00000000000E+00 -0.11436804741E+02  0.11436804741E+02  0.00000000000E+00 0.  1.
         36    2    1    2    0    0  0.00000000000E+00  0.00000000000E+00  0.16951712175E+04  0.17180448270E+04  0.27941469338E+03 0.  0.
         25    2    3    3    0    0  0.61326745603E+02 -0.55323854902E+01  0.78375940963E+03  0.79637703875E+03  0.12706690619E+03 0.  0.
         25    2    3    3    0    0 -0.61326745603E+02  0.55323854902E+01  0.91141180786E+03  0.92166778822E+03  0.12250898467E+03 0.  0.
          5    1    4    4  502    0  0.46719188775E+02  0.37213454432E+02  0.15810418835E+03  0.16907556939E+03  0.47000000000E+01 0.  1.
         -5    1    4    4    0  502  0.14607556827E+02 -0.42745839922E+02  0.62565522128E+03  0.62730146936E+03  0.47000000000E+01 0.  1.
          5    1    5    5  503    0 -0.19908979574E+02 -0.50851920017E+02  0.22064618189E+03  0.22735239788E+03  0.47000000000E+01 0. -1.
         -5    1    5    5    0  503 -0.41417766028E+02  0.56384305507E+02  0.69076562597E+03  0.69431539034E+03  0.47000000000E+01 0. -1.
<mgrwt>
<rscale>  0 0.27941469E+03</rscale>
<asrwt>0</asrwt>
<pdfrwt beam="1">  1        2 0.26255488E+00 0.27941469E+03</pdfrwt>
<pdfrwt beam="2">  1       -2 0.17595098E-02 0.27941469E+03</pdfrwt>
<totfact> 0.98967046E+03</totfact>
</mgrwt>
</event>
<event>
 9    1  0.2073852E-002  0.2753535E+03  0.7818608E-02  0.1098254E+00
          1   -1    0    0  501    0  0.00000000000E+00  0.00000000000E+00  0.44073027621E+04  0.44073027621E+04  0.00000000000E+00 0.  1.
         -1   -1    0    0    0  501 -0.00000000000E+00 -0.00000000000E+00 -0.43007894369E+01  0.43007894369E+01  0.00000000000E+00 0.  1.
         36    2    1    2    0    0 -0.71054273576E-14  0.00000000000E+00  0.44030019727E+04  0.44116035515E+04  0.27535345405E+03 0.  0.
         25    2    3    3    0    0 -0.48059946380E+02 -0.36320458467E+02  0.25738714327E+04  0.25772790651E+04  0.11800124289E+03 0.  0.
         25    2    3    3    0    0  0.48059946380E+02  0.36320458467E+02  0.18291305399E+04  0.18343244864E+04  0.12409212331E+03 0.  0.
          5    1    4    4  502    0 -0.38287043683E+02  0.37228359850E+02  0.76225324590E+03  0.76413608041E+03  0.47000000000E+01 0.  1.
         -5    1    4    4    0  502 -0.97729026971E+01 -0.73548818317E+02  0.18116181868E+04  0.18131429847E+04  0.47000000000E+01 0.  1.
          5    1    5    5  503    0 -0.22907697255E+02 -0.31436148353E+02  0.59710389923E+03  0.59838795985E+03  0.47000000000E+01 0.  1.
         -5    1    5    5    0  503  0.70967643635E+02  0.67756606820E+02  0.12320266407E+04  0.12359365265E+04  0.47000000000E+01 0.  1.
<mgrwt>
<rscale>  0 0.27535345E+03</rscale>
<asrwt>0</asrwt>
<pdfrwt beam="1">  1        1 0.67804296E+00 0.27535345E+03</pdfrwt>
<pdfrwt beam="2">  1       -1 0.66166344E-03 0.27535345E+03</pdfrwt>
<totfact> 0.18534769E+02</totfact>
</mgrwt>
</event>
<event>
 9    1  0.2073852E-002  0.2745473E+03  0.7818608E-02  0.1098705E+00
         -2   -1    0    0    0  501 -0.00000000000E+00  0.00000000000E+00  0.38914886179E+02  0.38914886179E+02  0.00000000000E+00 0. -1.
          2   -1    0    0  501    0  0.00000000000E+00 -0.00000000000E+00 -0.48423769318E+03  0.48423769318E+03  0.00000000000E+00 0. -1.
         36    2    1    2    0    0  0.00000000000E+00 -0.71054273576E-14 -0.44532280700E+03  0.52315257936E+03  0.27454729803E+03 0.  0.
         25    2    3    3    0    0  0.55387355337E+02 -0.35135664820E+02 -0.16604265114E+03  0.20875696956E+03  0.10819905854E+03 0.  0.
         25    2    3    3    0    0 -0.55387355337E+02  0.35135664820E+02 -0.27928015586E+03  0.31439560979E+03  0.12862705753E+03 0.  0.
          5    1    4    4  502    0  0.64259719931E+02 -0.58027203871E+02 -0.75976886207E+02  0.11528679557E+03  0.47000000000E+01 0.  1.
         -5    1    4    4    0  502 -0.88723645945E+01  0.22891539050E+02 -0.90065764934E+02  0.93470173995E+02  0.47000000000E+01 0.  1.
          5    1    5    5  503    0  0.11133324602E+02 -0.17929648050E+02  0.79962281225E+00  0.21636834162E+02  0.47000000000E+01 0. -1.
         -5    1    5    5    0  503 -0.66520679939E+02  0.53065312870E+02 -0.28007977867E+03  0.29275877563E+03  0.47000000000E+01 0. -1.
<mgrwt>
<rscale>  0 0.27454730E+03</rscale>
<asrwt>0</asrwt>
<pdfrwt beam="1">  1        2 0.74498106E-01 0.27454730E+03</pdfrwt>
<pdfrwt beam="2">  1       -2 0.59869057E-02 0.27454730E+03</pdfrwt>
<totfact> 0.95277367E+03</totfact>
</mgrwt>
</event>
<event>
 9    1  0.2073852E-002  0.2751536E+03  0.7818608E-02  0.1098366E+00
         -2   -1    0    0    0  501 -0.00000000000E+00  0.00000000000E+00  0.29262525388E+02  0.29262525388E+02  0.00000000000E+00 0. -1.
          2   -1    0    0  501    0  0.00000000000E+00 -0.00000000000E+00 -0.64681268786E+03  0.64681268786E+03  0.00000000000E+00 0. -1.
         36    2    1    2    0    0  0.00000000000E+00  0.00000000000E+00 -0.61755016247E+03  0.67607521325E+03  0.27515357675E+03 0.  0.
         25    2    3    3    0    0  0.32811405869E+02  0.29307373915E+02 -0.41946653621E+03  0.44000551806E+03  0.12536813948E+03 0.  0.
         25    2    3    3    0    0 -0.32811405869E+02 -0.29307373915E+02 -0.19808362626E+03  0.23606969519E+03  0.12064935754E+03 0.  0.
          5    1    4    4  502    0  0.36584997553E+02  0.70243852431E+02 -0.17611422251E+03  0.19316047789E+03  0.47000000000E+01 0.  1.
         -5    1    4    4    0  502 -0.37735916842E+01 -0.40936478516E+02 -0.24335231371E+03  0.24684504016E+03  0.47000000000E+01 0.  1.
          5    1    5    5  503    0  0.35771315927E+02 -0.31174977498E+02 -0.35209565060E+02  0.59272841478E+02  0.47000000000E+01 0. -1.
         -5    1    5    5    0  503 -0.68582721796E+02  0.18676035834E+01 -0.16287406120E+03  0.17679685372E+03  0.47000000000E+01 0. -1.
<mgrwt>
<rscale>  0 0.27515358E+03</rscale>
<asrwt>0</asrwt>
<pdfrwt beam="1">  1        2 0.99509649E-01 0.27515358E+03</pdfrwt>
<pdfrwt beam="2">  1       -2 0.45019268E-02 0.27515358E+03</pdfrwt>
<totfact> 0.10558158E+04</totfact>
</mgrwt>
</event>
<event>
 9    1  0.2073852E-002  0.2737745E+03  0.7818608E-02  0.1099139E+00
          2   -1    0    0  501    0  0.00000000000E+00  0.00000000000E+00  0.15876197212E+03  0.15876197212E+03  0.00000000000E+00 0. -1.
         -2   -1    0    0    0  501 -0.00000000000E+00 -0.00000000000E+00 -0.11802645807E+03  0.11802645807E+03  0.00000000000E+00 0. -1.
         36    2    1    2    0    0 -0.14210854715E-13  0.17763568394E-14  0.40735514042E+02  0.27678843019E+03  0.27377445641E+03 0.  0.
         25    2    3    3    0    0  0.43746327183E+02  0.73189365236E+00  0.11131625984E+02  0.13323758245E+03  0.12535574765E+03 0.  0.
         25    2    3    3    0    0 -0.43746327183E+02 -0.73189365236E+00  0.29603888058E+02  0.14355084774E+03  0.13347725982E+03 0.  0.
          5    1    4    4  502    0  0.26774562244E+02  0.61484815319E+02 -0.65894338077E+01  0.67548281518E+02  0.47000000000E+01 0.  1.
         -5    1    4    4    0  502  0.16971764939E+02 -0.60752921667E+02  0.17721059792E+02  0.65689300927E+02  0.47000000000E+01 0.  1.
          5    1    5    5  503    0  0.32346251767E+02 -0.11680842708E+02  0.52734505346E+02  0.63132718489E+02  0.47000000000E+01 0.  1.
         -5    1    5    5    0  503 -0.76092578950E+02  0.10948949056E+02 -0.23130617288E+02  0.80418129254E+02  0.47000000000E+01 0.  1.
<mgrwt>
<rscale>  0 0.27377446E+03</rscale>
<asrwt>0</asrwt>
<pdfrwt beam="1">  1        2 0.24424919E-01 0.27377446E+03</pdfrwt>
<pdfrwt beam="2">  1       -2 0.18157917E-01 0.27377446E+03</pdfrwt>
<totfact> 0.54386585E+03</totfact>
</mgrwt>
</event>
<event>
 9    1  0.2073852E-002  0.2761458E+03  0.7818608E-02  0.1097813E+00
         -2   -1    0    0    0  501 -0.00000000000E+00  0.00000000000E+00  0.71065817343E+02  0.71065817343E+02  0.00000000000E+00 0. -1.
          2   -1    0    0  501    0  0.00000000000E+00 -0.00000000000E+00 -0.26826017005E+03  0.26826017005E+03  0.00000000000E+00 0. -1.
         36    2    1    2    0    0  0.00000000000E+00  0.71054273576E-14 -0.19719435270E+03  0.33932598739E+03  0.27614581833E+03 0.  0.
         25    2    3    3    0    0 -0.56923747492E+02 -0.88597427119E+00 -0.82483904344E+02  0.16262891583E+03  0.12807603917E+03 0.  0.
         25    2    3    3    0    0  0.56923747492E+02  0.88597427119E+00 -0.11471044836E+03  0.17669707156E+03  0.12174674597E+03 0.  0.
          5    1    4    4  502    0 -0.59707308656E+02 -0.17657776218E+02  0.14460127603E+02  0.64093252829E+02  0.47000000000E+01 0. -1.
         -5    1    4    4    0  502  0.27835611637E+01  0.16771801947E+02 -0.96944031948E+02  0.98535663004E+02  0.47000000000E+01 0. -1.
          5    1    5    5  503    0  0.16622618638E+02 -0.50452396798E+02 -0.11598755520E+02  0.54574507993E+02  0.47000000000E+01 0.  1.
         -5    1    5    5    0  503  0.40301128855E+02  0.51338371070E+02 -0.10311169284E+03  0.12212256356E+03  0.47000000000E+01 0.  1.
<mgrwt>
<rscale>  0 0.27614582E+03</rscale>
<asrwt>0</asrwt>
<pdfrwt beam="1">  1        2 0.41270795E-01 0.27614582E+03</pdfrwt>
<pdfrwt beam="2">  1       -2 0.10933203E-01 0.27614582E+03</pdfrwt>
<totfact> 0.70478278E+03</totfact>
</mgrwt>
</event>
<event>
 9    1  0.2073852E-002  0.2757326E+03  0.7818608E-02  0.1098043E+00
          1   -1    0    0  501    0  0.00000000000E+00  0.00000000000E+00  0.88788634226E+03  0.88788634226E+03  0.00000000000E+00 0.  1.
         -1   -1    0    0    0  501 -0.00000000000E+00 -0.00000000000E+00 -0.21407153513E+02  0.21407153513E+02  0.00000000000E+00 0.  1.
         36    2    1    2    0    0 -0.14210854715E-13  0.17763568394E-14  0.86647918875E+03  0.90929349577E+03  0.27573261853E+03 0.  0.
         25    2    3    3    0    0 -0.30275357040E+02  0.29541539712E+01  0.55272444155E+03  0.57114699224E+03  0.14063873643E+03 0.  0.
         25    2    3    3    0    0  0.30275357040E+02 -0.29541539712E+01  0.31375474720E+03  0.33814650354E+03  0.12237521071E+03 0.  0.
          5    1    4    4  502    0 -0.43023582559E+02 -0.28073183870E+02  0.52457384072E+03  0.52710429392E+03  0.47000000000E+01 0. -1.
         -5    1    4    4    0  502  0.12748225519E+02  0.31027337841E+02  0.28150600834E+02  0.44042698313E+02  0.47000000000E+01 0. -1.
          5    1    5    5  503    0  0.70037932795E+02 -0.12748443341E+02  0.11633060796E+03  0.13646514275E+03  0.47000000000E+01 0.  1.
         -5    1    5    5    0  503 -0.39762575754E+02  0.97942893699E+01  0.19742413924E+03  0.20168136078E+03  0.47000000000E+01 0.  1.
<mgrwt>
<rscale>  0 0.27573262E+03</rscale>
<asrwt>0</asrwt>
<pdfrwt beam="1">  1        1 0.13659787E+00 0.27573262E+03</pdfrwt>
<pdfrwt beam="2">  1       -1 0.32934089E-02 0.27573262E+03</pdfrwt>
<totfact> 0.64055781E+03</totfact>
</mgrwt>
</event>
<event>
 9    1  0.2073852E-002  0.2747962E+03  0.7818608E-02  0.1098566E+00
          1   -1    0    0  501    0  0.00000000000E+00  0.00000000000E+00  0.58334777948E+02  0.58334777948E+02  0.00000000000E+00 0.  1.
         -1   -1    0    0    0  501 -0.00000000000E+00 -0.00000000000E+00 -0.32361880316E+03  0.32361880316E+03  0.00000000000E+00 0.  1.
         36    2    1    2    0    0  0.00000000000E+00 -0.35527136788E-14 -0.26528402521E+03  0.38195358111E+03  0.27479615006E+03 0.  0.
         25    2    3    3    0    0 -0.86079284560E+01  0.10492929774E+02 -0.21035372902E+03  0.24427615901E+03  0.12344210198E+03 0.  0.
         25    2    3    3    0    0  0.86079284560E+01 -0.10492929774E+02 -0.54930296199E+02  0.13767742210E+03  0.12551309537E+03 0.  0.
          5    1    4    4  502    0 -0.11287426893E+02  0.60561413988E+02 -0.61667417430E+02  0.87292904881E+02  0.47000000000E+01 0. -1.
         -5    1    4    4    0  502  0.26794984375E+01 -0.50068484215E+02 -0.14868631159E+03  0.15698325413E+03  0.47000000000E+01 0. -1.
          5    1    5    5  503    0 -0.38413805183E+02 -0.14006579082E+02  0.22494112416E+02  0.46902876027E+02  0.47000000000E+01 0.  1.
         -5    1    5    5    0  503  0.47021733639E+02  0.35136493088E+01 -0.77424408615E+02  0.90774546076E+02  0.47000000000E+01 0.  1.
<mgrwt>
<rscale>  0 0.27479615E+03</rscale>
<asrwt>0</asrwt>
<pdfrwt beam="1">  1        1 0.89745811E-02 0.27479615E+03</pdfrwt>
<pdfrwt beam="2">  1       -1 0.49787509E-01 0.27479615E+03</pdfrwt>
<totfact> 0.30658203E+03</totfact>
</mgrwt>
</event>
<event>
 9    1  0.2073852E-002  0.2744050E+03  0.7818608E-02  0.1098785E+00
          2   -1    0    0  501    0  0.00000000000E+00  0.00000000000E+00  0.52719108108E+03  0.52719108108E+03  0.00000000000E+00 0.  1.
         -2   -1    0    0    0  501 -0.00000000000E+00 -0.00000000000E+00 -0.35707221493E+02  0.35707221493E+02  0.00000000000E+00 0.  1.
         36    2    1    2    0    0  0.71054273576E-14  0.71054273576E-14  0.49148385959E+03  0.56289830258E+03  0.27440501964E+03 0.  0.
         25    2    3    3    0    0 -0.24403730546E+02 -0.44521318041E+02  0.16752147148E+03  0.21060030966E+03  0.11709550461E+03 0.  0.
         25    2    3    3    0    0  0.24403730546E+02  0.44521318041E+02  0.32396238811E+03  0.35229799291E+03  0.12878104315E+03 0.  0.
          5    1    4    4  502    0 -0.39110824297E+02  0.27934381267E+02  0.38245074470E+02  0.61601639225E+02  0.47000000000E+01 0.  1.
         -5    1    4    4    0  502  0.14707093752E+02 -0.72455699308E+02  0.12927639701E+03  0.14899867044E+03  0.47000000000E+01 0.  1.
          5    1    5    5  503    0 -0.17975032490E+02  0.77006427592E+02  0.23951163068E+03  0.25227168472E+03  0.47000000000E+01 0. -1.
         -5    1    5    5    0  503  0.42378763036E+02 -0.32485109550E+02  0.84450757430E+02  0.10002630819E+03  0.47000000000E+01 0. -1.
<mgrwt>
<rscale>  0 0.27440502E+03</rscale>
<asrwt>0</asrwt>
<pdfrwt beam="1">  1        2 0.81106315E-01 0.27440502E+03</pdfrwt>
<pdfrwt beam="2">  1       -2 0.54934191E-02 0.27440502E+03</pdfrwt>
<totfact> 0.98805227E+03</totfact>
</mgrwt>
</event>
<event>
 9    1  0.2073852E-002  0.2729800E+03  0.7818608E-02  0.1099586E+00
          1   -1    0    0  501    0  0.00000000000E+00  0.00000000000E+00  0.12659260424E+04  0.12659260424E+04  0.00000000000E+00 0. -1.
         -1   -1    0    0    0  501 -0.00000000000E+00 -0.00000000000E+00 -0.14716122434E+02  0.14716122434E+02  0.00000000000E+00 0. -1.
         36    2    1    2    0    0  0.00000000000E+00  0.00000000000E+00  0.12512099200E+04  0.12806421648E+04  0.27298001855E+03 0.  0.
         25    2    3    3    0    0  0.20472460923E+02  0.49948579095E+02  0.55066691915E+03  0.56598727053E+03  0.11913669605E+03 0.  0.
         25    2    3    3    0    0 -0.20472460923E+02 -0.49948579095E+02  0.70054300081E+03  0.71465489429E+03  0.13060298522E+03 0.  0.
          5    1    4    4  502    0  0.67352821584E+02  0.15497724896E+02  0.35931419658E+03  0.36593081848E+03  0.47000000000E+01 0.  1.
         -5    1    4    4    0  502 -0.46880360660E+02  0.34450854199E+02  0.19135272257E+03  0.20005645205E+03  0.47000000000E+01 0.  1.
          5    1    5    5  503    0  0.33871507580E+02  0.33659025331E+01  0.56624763783E+02  0.66234901669E+02  0.47000000000E+01 0.  1.
         -5    1    5    5    0  503 -0.54343968503E+02 -0.53314481628E+02  0.64391823702E+03  0.64841999262E+03  0.47000000000E+01 0.  1.
<mgrwt>
<rscale>  0 0.27298002E+03</rscale>
<asrwt>0</asrwt>
<pdfrwt beam="1">  1        1 0.19475777E+00 0.27298002E+03</pdfrwt>
<pdfrwt beam="2">  1       -1 0.22640198E-02 0.27298002E+03</pdfrwt>
<totfact> 0.58856933E+03</totfact>
</mgrwt>
</event>
<event>
 9    1  0.2073852E-002  0.2748135E+03  0.7818608E-02  0.1098556E+00
          1   -1    0    0  501    0  0.00000000000E+00  0.00000000000E+00  0.44383702482E+03  0.44383702482E+03  0.00000000000E+00 0.  1.
         -1   -1    0    0    0  501 -0.00000000000E+00 -0.00000000000E+00 -0.42539512203E+02  0.42539512203E+02  0.00000000000E+00 0.  1.
         36    2    1    2    0    0 -0.14210854715E-13  0.71054273576E-14  0.40129751261E+03  0.48637653702E+03  0.27481346789E+03 0.  0.
         25    2    3    3    0    0  0.42634800503E+02 -0.62333978560E+02  0.28946523242E+03  0.31146927914E+03  0.86716434258E+02 0.  0.
         25    2    3    3    0    0 -0.42634800503E+02  0.62333978560E+02  0.11183228019E+03  0.17490725788E+03  0.11127820483E+03 0.  0.
          5    1    4    4  502    0  0.22591527923E+02 -0.82652294066E+02  0.20719884710E+03  0.22426598290E+03  0.47000000000E+01 0. -1.
         -5    1    4    4    0  502  0.20043272580E+02  0.20318315505E+02  0.82266385321E+02  0.87203296237E+02  0.47000000000E+01 0. -1.
          5    1    5    5  503    0 -0.29977635681E+02  0.81360334033E+02  0.12176068726E+03  0.14955239068E+03  0.47000000000E+01 0. -1.
         -5    1    5    5    0  503 -0.12657164821E+02 -0.19026355473E+02 -0.99284070695E+01  0.25354867202E+02  0.47000000000E+01 0. -1.
<mgrwt>
<rscale>  0 0.27481347E+03</rscale>
<asrwt>0</asrwt>
<pdfrwt beam="1">  1        1 0.68282616E-01 0.27481347E+03</pdfrwt>
<pdfrwt beam="2">  1       -1 0.65445407E-02 0.27481347E+03</pdfrwt>
<totfact> 0.61601579E+03</totfact>
</mgrwt>
</event>
<event>
 9    1  0.2073852E-002  0.2749276E+03  0.7818608E-02  0.1098492E+00
          1   -1    0    0  501    0  0.00000000000E+00  0.00000000000E+00  0.92968061324E+02  0.92968061324E+02  0.00000000000E+00 0.  1.
         -1   -1    0    0    0  501 -0.00000000000E+00 -0.00000000000E+00 -0.20325577200E+03  0.20325577200E+03  0.00000000000E+00 0.  1.
         36    2    1    2    0    0 -0.35527136788E-14 -0.71054273576E-14 -0.11028771067E+03  0.29622383332E+03  0.27492759102E+03 0.  0.
         25    2    3    3    0    0  0.19772958991E+02  0.57898863116E+02 -0.60074335514E+02  0.15127687201E+03  0.12462952283E+03 0.  0.
         25    2    3    3    0    0 -0.19772958991E+02 -0.57898863116E+02 -0.50213375159E+02  0.14494696131E+03  0.12142895161E+03 0.  0.
          5    1    4    4  502    0  0.63366371739E+02  0.68130102182E+02 -0.33537331918E+02  0.99014395534E+02  0.47000000000E+01 0.  1.
         -5    1    4    4    0  502 -0.43593412748E+02 -0.10231239066E+02 -0.26537003595E+02  0.52262476479E+02  0.47000000000E+01 0.  1.
          5    1    5    5  503    0 -0.24788787002E+02 -0.87059635052E+02 -0.50919936103E+01  0.90784813793E+02  0.47000000000E+01 0. -1.
         -5    1    5    5    0  503  0.50158280116E+01  0.29160771936E+02 -0.45121381549E+02  0.54162147515E+02  0.47000000000E+01 0. -1.
<mgrwt>
<rscale>  0 0.27492759E+03</rscale>
<asrwt>0</asrwt>
<pdfrwt beam="1">  1        1 0.14302779E-01 0.27492759E+03</pdfrwt>
<pdfrwt beam="2">  1       -1 0.31270119E-01 0.27492759E+03</pdfrwt>
<totfact> 0.37560801E+03</totfact>
</mgrwt>
</event>
<event>
 9    1  0.2073852E-002  0.2755267E+03  0.7818608E-02  0.1098158E+00
         -2   -1    0    0    0  501 -0.00000000000E+00  0.00000000000E+00  0.10542629908E+02  0.10542629908E+02  0.00000000000E+00 0. -1.
          2   -1    0    0  501    0  0.00000000000E+00 -0.00000000000E+00 -0.18001905524E+04  0.18001905524E+04  0.00000000000E+00 0. -1.
         36    2    1    2    0    0  0.00000000000E+00  0.35527136788E-14 -0.17896479225E+04  0.18107331823E+04  0.27552671564E+03 0.  0.
         25    2    3    3    0    0 -0.46206578295E+02  0.44467295831E+01 -0.10865845102E+04  0.10948708763E+04  0.12618049261E+03 0.  0.
         25    2    3    3    0    0  0.46206578295E+02 -0.44467295831E+01 -0.70306341227E+03  0.71586230597E+03  0.12651426068E+03 0.  0.
          5    1    4    4  502    0 -0.27046036650E+02  0.39308404941E+02 -0.97731869341E+03  0.97849402517E+03  0.47000000000E+01 0.  1.
         -5    1    4    4    0  502 -0.19160541645E+02 -0.34861675358E+02 -0.10926581682E+03  0.11637685118E+03  0.47000000000E+01 0.  1.
          5    1    5    5  503    0 -0.64941118853E+01 -0.32307113068E+02 -0.55753405656E+03  0.55852684561E+03  0.47000000000E+01 0.  1.
         -5    1    5    5    0  503  0.52700690180E+02  0.27860383485E+02 -0.14552935571E+03  0.15733546036E+03  0.47000000000E+01 0.  1.
<mgrwt>
<rscale>  0 0.27552672E+03</rscale>
<asrwt>0</asrwt>
<pdfrwt beam="1">  1        2 0.27695240E+00 0.27552672E+03</pdfrwt>
<pdfrwt beam="2">  1       -2 0.16219430E-02 0.27552672E+03</pdfrwt>
<totfact> 0.99549514E+03</totfact>
</mgrwt>
</event>
<event>
 9    1  0.2073852E-002  0.2680931E+03  0.7818608E-02  0.1102376E+00
         -1   -1    0    0    0  501 -0.00000000000E+00  0.00000000000E+00  0.93293933209E+02  0.93293933209E+02  0.00000000000E+00 0.  1.
          1   -1    0    0  501    0  0.00000000000E+00 -0.00000000000E+00 -0.19260066603E+03  0.19260066603E+03  0.00000000000E+00 0.  1.
         36    2    1    2    0    0 -0.71054273576E-14  0.17763568394E-14 -0.99306732818E+02  0.28589459924E+03  0.26809307095E+03 0.  0.
         25    2    3    3    0    0 -0.39041861580E+02 -0.12210869483E+02 -0.72128311047E+02  0.15371369325E+03  0.12942964865E+03 0.  0.
         25    2    3    3    0    0  0.39041861580E+02  0.12210869483E+02 -0.27178421771E+02  0.13218090598E+03  0.12271818531E+03 0.  0.
          5    1    4    4  502    0  0.12555164706E+02  0.47510636379E+02 -0.43185005241E+01  0.49554335599E+02  0.47000000000E+01 0. -1.
         -5    1    4    4    0  502 -0.51597026286E+02 -0.59721505861E+02 -0.67809810523E+02  0.10415935765E+03  0.47000000000E+01 0. -1.
          5    1    5    5  503    0 -0.41568071100E+02 -0.10540693995E+02 -0.21224726848E+02  0.48078995358E+02  0.47000000000E+01 0.  1.
         -5    1    5    5    0  503  0.80609932679E+02  0.22751563478E+02 -0.59536949229E+01  0.84101910623E+02  0.47000000000E+01 0.  1.
<mgrwt>
<rscale>  0 0.26809307E+03</rscale>
<asrwt>0</asrwt>
<pdfrwt beam="1">  1        1 0.29630872E-01 0.26809307E+03</pdfrwt>
<pdfrwt beam="2">  1       -1 0.14352913E-01 0.26809307E+03</pdfrwt>
<totfact> 0.52626396E+03</totfact>
</mgrwt>
</event>
<event>
 9    1  0.2073852E-002  0.2761957E+03  0.7818608E-02  0.1097785E+00
         -2   -1    0    0    0  501 -0.00000000000E+00  0.00000000000E+00  0.81000675360E+01  0.81000675360E+01  0.00000000000E+00 0. -1.
          2   -1    0    0  501    0  0.00000000000E+00 -0.00000000000E+00 -0.23544275513E+04  0.23544275513E+04  0.00000000000E+00 0. -1.
         36    2    1    2    0    0 -0.71054273576E-14  0.00000000000E+00 -0.23463274838E+04  0.23625276189E+04  0.27619574345E+03 0.  0.
         25    2    3    3    0    0  0.11255012136E+02  0.56014780041E+02 -0.10547204915E+04  0.10634980581E+04  0.12380821249E+03 0.  0.
         25    2    3    3    0    0 -0.11255012136E+02 -0.56014780041E+02 -0.12916069923E+04  0.12990295608E+04  0.12635207303E+03 0.  0.
          5    1    4    4  502    0 -0.38437564694E+02  0.98429754721E+01 -0.12358585324E+03  0.12988411630E+03  0.47000000000E+01 0. -1.
         -5    1    4    4    0  502  0.49692576831E+02  0.46171804568E+02 -0.93113463828E+03  0.93361394181E+03  0.47000000000E+01 0. -1.
          5    1    5    5  503    0 -0.52695061841E+02 -0.28030327135E+02 -0.28752993491E+03  0.29369716078E+03  0.47000000000E+01 0.  1.
         -5    1    5    5    0  503  0.41440049705E+02 -0.27984452905E+02 -0.10040770574E+04  0.10053324000E+04  0.47000000000E+01 0.  1.
<mgrwt>
<rscale>  0 0.27619574E+03</rscale>
<asrwt>0</asrwt>
<pdfrwt beam="1">  1        2 0.36221994E+00 0.27619574E+03</pdfrwt>
<pdfrwt beam="2">  1       -2 0.12461631E-02 0.27619574E+03</pdfrwt>
<totfact> 0.74464100E+03</totfact>
</mgrwt>
</event>
<event>
 9    1  0.2073852E-002  0.2745624E+03  0.7818608E-02  0.1098696E+00
          2   -1    0    0  501    0  0.00000000000E+00  0.00000000000E+00  0.64786296271E+03  0.64786296271E+03  0.00000000000E+00 0.  1.
         -2   -1    0    0    0  501 -0.00000000000E+00 -0.00000000000E+00 -0.29089675531E+02  0.29089675531E+02  0.00000000000E+00 0.  1.
         36    2    1    2    0    0  0.00000000000E+00  0.00000000000E+00  0.61877328718E+03  0.67695263824E+03  0.27456236722E+03 0.  0.
         25    2    3    3    0    0  0.51942569665E+01  0.36919363712E+02  0.38692418775E+03  0.40781440121E+03  0.12333790594E+03 0.  0.
         25    2    3    3    0    0 -0.51942569665E+01 -0.36919363712E+02  0.23184909943E+03  0.26913823703E+03  0.13149663876E+03 0.  0.
          5    1    4    4  502    0  0.58676631049E+02  0.27251184820E+02  0.28414544894E+03  0.29145548590E+03  0.47000000000E+01 0. -1.
         -5    1    4    4    0  502 -0.53482374082E+02  0.96681788920E+01  0.10277873881E+03  0.11635891531E+03  0.47000000000E+01 0. -1.
          5    1    5    5  503    0 -0.27433126529E+02  0.21012774434E+02  0.66548349539E+01  0.35503379401E+02  0.47000000000E+01 0.  1.
         -5    1    5    5    0  503  0.22238869563E+02 -0.57932138146E+02  0.22519426447E+03  0.23363485763E+03  0.47000000000E+01 0.  1.
<mgrwt>
<rscale>  0 0.27456237E+03</rscale>
<asrwt>0</asrwt>
<pdfrwt beam="1">  1        2 0.99671214E-01 0.27456237E+03</pdfrwt>
<pdfrwt beam="2">  1       -2 0.44753352E-02 0.27456237E+03</pdfrwt>
<totfact> 0.10631838E+04</totfact>
</mgrwt>
</event>
<event>
 9    1  0.2073852E-002  0.2750397E+03  0.7818608E-02  0.1098429E+00
         -2   -1    0    0    0  501 -0.00000000000E+00  0.00000000000E+00  0.55682549621E+01  0.55682549621E+01  0.00000000000E+00 0.  1.
          2   -1    0    0  501    0  0.00000000000E+00 -0.00000000000E+00 -0.33963436690E+04  0.33963436690E+04  0.00000000000E+00 0.  1.
         36    2    1    2    0    0  0.71054273576E-14  0.14210854715E-13 -0.33907754140E+04  0.34019119239E+04  0.27503968796E+03 0.  0.
         25    2    3    3    0    0  0.37200044290E+02  0.37829939584E+02 -0.18201993478E+04  0.18254109717E+04  0.12721871850E+03 0.  0.
         25    2    3    3    0    0 -0.37200044290E+02 -0.37829939584E+02 -0.15705760662E+04  0.15765009522E+04  0.12582179836E+03 0.  0.
          5    1    4    4  502    0  0.85541155132E+01  0.69371417132E+02 -0.15702878766E+04  0.15718497613E+04  0.47000000000E+01 0.  1.
         -5    1    4    4    0  502  0.28645928777E+02 -0.31541477549E+02 -0.24991147112E+03  0.25356121043E+03  0.47000000000E+01 0.  1.
          5    1    5    5  503    0 -0.50016171098E+02  0.30688081995E+02 -0.46363679363E+03  0.46735911477E+03  0.47000000000E+01 0. -1.
         -5    1    5    5    0  503  0.12816126808E+02 -0.68518021578E+02 -0.11069392726E+04  0.11091418375E+04  0.47000000000E+01 0. -1.
<mgrwt>
<rscale>  0 0.27503969E+03</rscale>
<asrwt>0</asrwt>
<pdfrwt beam="1">  1        2 0.52251565E+00 0.27503969E+03</pdfrwt>
<pdfrwt beam="2">  1       -2 0.85665258E-03 0.27503969E+03</pdfrwt>
<totfact> 0.31641074E+03</totfact>
</mgrwt>
</event>
<event>
 9    1  0.2073852E-002  0.2746602E+03  0.7818608E-02  0.1098642E+00
         -1   -1    0    0    0  501 -0.00000000000E+00  0.00000000000E+00  0.43467350367E+02  0.43467350367E+02  0.00000000000E+00 0.  1.
          1   -1    0    0  501    0  0.00000000000E+00 -0.00000000000E+00 -0.43387871701E+03  0.43387871701E+03  0.00000000000E+00 0.  1.
         36    2    1    2    0    0  0.71054273576E-14 -0.35527136788E-14 -0.39041136665E+03  0.47734606738E+03  0.27466021342E+03 0.  0.
         25    2    3    3    0    0  0.21387874383E+02 -0.31029168353E+02 -0.29218927446E+03  0.32054931267E+03  0.12632117512E+03 0.  0.
         25    2    3    3    0    0 -0.21387874383E+02  0.31029168353E+02 -0.98222092182E+02  0.15679675471E+03  0.11626432142E+03 0.  0.
          5    1    4    4  502    0  0.58632313787E+02 -0.86861673064E+01 -0.60682425112E+02  0.84956720982E+02  0.47000000000E+01 0. -1.
         -5    1    4    4    0  502 -0.37244439404E+02 -0.22343001047E+02 -0.23150684935E+03  0.23559259169E+03  0.47000000000E+01 0. -1.
          5    1    5    5  503    0  0.20772852551E+02  0.54336522670E+02 -0.14573681564E+02  0.60153564261E+02  0.47000000000E+01 0. -1.
         -5    1    5    5    0  503 -0.42160726934E+02 -0.23307354317E+02 -0.83648410618E+02  0.96643190447E+02  0.47000000000E+01 0. -1.
<mgrwt>
<rscale>  0 0.27466021E+03</rscale>
<asrwt>0</asrwt>
<pdfrwt beam="1">  1        1 0.66750575E-01 0.27466021E+03</pdfrwt>
<pdfrwt beam="2">  1       -1 0.66872844E-02 0.27466021E+03</pdfrwt>
<totfact> 0.61403124E+03</totfact>
</mgrwt>
</event>
<event>
 9    1  0.2073852E-002  0.2745876E+03  0.7818608E-02  0.1098682E+00
         -4   -1    0    0    0  501 -0.00000000000E+00  0.00000000000E+00  0.18682383652E+03  0.18682383652E+03  0.00000000000E+00 0. -1.
          4   -1    0    0  501    0  0.00000000000E+00 -0.00000000000E+00 -0.10089500243E+03  0.10089500243E+03  0.00000000000E+00 0. -1.
         36    2    1    2    0    0  0.00000000000E+00  0.00000000000E+00  0.85928834084E+02  0.28771883895E+03  0.27458762856E+03 0.  0.
         25    2    3    3    0    0  0.16744986813E+02  0.59148240179E+02  0.53108019331E+02  0.13870244987E+03  0.11242330267E+03 0.  0.
         25    2    3    3    0    0 -0.16744986813E+02 -0.59148240179E+02  0.32820814753E+02  0.14901638907E+03  0.13171852350E+03 0.  0.
          5    1    4    4  502    0  0.40670033488E+02 -0.19786732538E+02  0.20636741100E+02  0.49935273021E+02  0.47000000000E+01 0. -1.
         -5    1    4    4    0  502 -0.23925046675E+02  0.78934972716E+02  0.32471278231E+02  0.88767176851E+02  0.47000000000E+01 0. -1.
          5    1    5    5  503    0 -0.84750263073E+01  0.42025951816E+02  0.36030102363E+01  0.43279075541E+02  0.47000000000E+01 0. -1.
         -5    1    5    5    0  503 -0.82699605055E+01 -0.10117419199E+03  0.29217804517E+02  0.10573731353E+03  0.47000000000E+01 0. -1.
<mgrwt>
<rscale>  0 0.27458763E+03</rscale>
<asrwt>0</asrwt>
<pdfrwt beam="1">  1        4 0.15522308E-01 0.27458763E+03</pdfrwt>
<pdfrwt beam="2">  1       -4 0.28742129E-01 0.27458763E+03</pdfrwt>
<totfact> 0.76738539E+02</totfact>
</mgrwt>
</event>
<event>
 9    1  0.2073852E-002  0.2751328E+03  0.7818608E-02  0.1098377E+00
         -1   -1    0    0    0  501 -0.00000000000E+00  0.00000000000E+00  0.63295918116E+01  0.63295918116E+01  0.00000000000E+00 0.  1.
          1   -1    0    0  501    0  0.00000000000E+00 -0.00000000000E+00 -0.29898484514E+04  0.29898484514E+04  0.00000000000E+00 0.  1.
         36    2    1    2    0    0  0.35527136788E-14  0.00000000000E+00 -0.29835188596E+04  0.29961780432E+04  0.27513284265E+03 0.  0.
         25    2    3    3    0    0 -0.16447249741E+02  0.30158430409E+02 -0.20634530982E+04  0.20675710308E+04  0.12582224006E+03 0.  0.
         25    2    3    3    0    0  0.16447249741E+02 -0.30158430409E+02 -0.92006576140E+03  0.92860701240E+03  0.12087156499E+03 0.  0.
          5    1    4    4  502    0 -0.90244271992E+01  0.24683655030E+02 -0.85077444316E+02  0.89168293934E+02  0.47000000000E+01 0.  1.
         -5    1    4    4    0  502 -0.74228225419E+01  0.54747753792E+01 -0.19783756539E+04  0.19784027369E+04  0.47000000000E+01 0.  1.
          5    1    5    5  503    0 -0.18298057999E+02  0.40490486244E+02 -0.41842740894E+03  0.42080623208E+03  0.47000000000E+01 0. -1.
         -5    1    5    5    0  503  0.34745307740E+02 -0.70648916653E+02 -0.50163835246E+03  0.50780078032E+03  0.47000000000E+01 0. -1.
<mgrwt>
<rscale>  0 0.27513284E+03</rscale>
<asrwt>0</asrwt>
<pdfrwt beam="1">  1        1 0.45997792E+00 0.27513284E+03</pdfrwt>
<pdfrwt beam="2">  1       -1 0.97378075E-03 0.27513284E+03</pdfrwt>
<totfact> 0.14381040E+03</totfact>
</mgrwt>
</event>
<event>
 9    1  0.2073852E-002  0.2780108E+03  0.7818608E-02  0.1096780E+00
          3   -1    0    0  501    0  0.00000000000E+00  0.00000000000E+00  0.50174294862E+02  0.50174294862E+02  0.00000000000E+00 0.  1.
         -3   -1    0    0    0  501 -0.00000000000E+00 -0.00000000000E+00 -0.38510766316E+03  0.38510766316E+03  0.00000000000E+00 0.  1.
         36    2    1    2    0    0  0.00000000000E+00  0.35527136788E-14 -0.33493336830E+03  0.43528195802E+03  0.27801083033E+03 0.  0.
         25    2    3    3    0    0 -0.52884351899E+02 -0.21836026408E+02 -0.20291577206E+03  0.24504620607E+03  0.12489702091E+03 0.  0.
         25    2    3    3    0    0  0.52884351899E+02  0.21836026408E+02 -0.13201759623E+03  0.19023575195E+03  0.12444849890E+03 0.  0.
          5    1    4    4  502    0 -0.32798155237E+02 -0.53834227870E+02 -0.19652610210E+03  0.20644234518E+03  0.47000000000E+01 0. -1.
         -5    1    4    4    0  502 -0.20086196663E+02  0.31998201462E+02 -0.63896699577E+01  0.38603860886E+02  0.47000000000E+01 0. -1.
          5    1    5    5  503    0 -0.72212492765E+01 -0.21198444932E+02  0.13772472943E+02  0.26707518036E+02  0.47000000000E+01 0.  1.
         -5    1    5    5    0  503  0.60105601176E+02  0.43034471341E+02 -0.14579006918E+03  0.16352823391E+03  0.47000000000E+01 0.  1.
<mgrwt>
<rscale>  0 0.27801083E+03</rscale>
<asrwt>0</asrwt>
<pdfrwt beam="1">  1        3 0.77191222E-02 0.27801083E+03</pdfrwt>
<pdfrwt beam="2">  1       -3 0.59247333E-01 0.27801083E+03</pdfrwt>
<totfact> 0.81306857E+02</totfact>
</mgrwt>
</event>
<event>
 9    1  0.2073852E-002  0.2747687E+03  0.7818608E-02  0.1098581E+00
          2   -1    0    0  501    0  0.00000000000E+00  0.00000000000E+00  0.94377813189E+03  0.94377813189E+03  0.00000000000E+00 0.  1.
         -2   -1    0    0    0  501 -0.00000000000E+00 -0.00000000000E+00 -0.19998832830E+02  0.19998832830E+02  0.00000000000E+00 0.  1.
         36    2    1    2    0    0  0.00000000000E+00 -0.35527136788E-14  0.92377929906E+03  0.96377696472E+03  0.27476871065E+03 0.  0.
         25    2    3    3    0    0  0.27824311907E+02  0.20125750561E+02  0.64873001803E+03  0.66103500772E+03  0.12221868502E+03 0.  0.
         25    2    3    3    0    0 -0.27824311907E+02 -0.20125750561E+02  0.27504928103E+03  0.30274195700E+03  0.12174295612E+03 0.  0.
          5    1    4    4  502    0 -0.46105000132E+02  0.24593568787E+02  0.29025801552E+03  0.29496155722E+03  0.47000000000E+01 0.  1.
         -5    1    4    4    0  502  0.73929312039E+02 -0.44678182258E+01  0.35847200251E+03  0.36607345050E+03  0.47000000000E+01 0.  1.
          5    1    5    5  503    0 -0.38728592167E+02  0.45313715340E+02  0.13854762193E+03  0.15089986810E+03  0.47000000000E+01 0.  1.
         -5    1    5    5    0  503  0.10904280260E+02 -0.65439465901E+02  0.13650165910E+03  0.15184208890E+03  0.47000000000E+01 0.  1.
<mgrwt>
<rscale>  0 0.27476871E+03</rscale>
<asrwt>0</asrwt>
<pdfrwt beam="1">  1        2 0.14519660E+00 0.27476871E+03</pdfrwt>
<pdfrwt beam="2">  1       -2 0.30767442E-02 0.27476871E+03</pdfrwt>
<totfact> 0.11580537E+04</totfact>
</mgrwt>
</event>
<event>
 9    1  0.2073852E-002  0.2753138E+03  0.7818608E-02  0.1098276E+00
         -2   -1    0    0    0  501 -0.00000000000E+00  0.00000000000E+00  0.59944226354E+02  0.59944226354E+02  0.00000000000E+00 0. -1.
          2   -1    0    0  501    0  0.00000000000E+00 -0.00000000000E+00 -0.31611749151E+03  0.31611749151E+03  0.00000000000E+00 0. -1.
         36    2    1    2    0    0  0.00000000000E+00  0.00000000000E+00 -0.25617326515E+03  0.37606171786E+03  0.27531377347E+03 0.  0.
         25    2    3    3    0    0 -0.46938615380E+02  0.17756520025E+02 -0.10647068652E+03  0.17243633819E+03  0.12601490397E+03 0.  0.
         25    2    3    3    0    0  0.46938615380E+02 -0.17756520025E+02 -0.14970257863E+03  0.20362537967E+03  0.12858423535E+03 0.  0.
          5    1    4    4  502    0 -0.51639990089E+02  0.59555522330E+02 -0.28933830973E+02  0.84099972599E+02  0.47000000000E+01 0. -1.
         -5    1    4    4    0  502  0.47013747087E+01 -0.41799002304E+02 -0.77536855546E+02  0.88336365590E+02  0.47000000000E+01 0. -1.
          5    1    5    5  503    0  0.90593071382E+02 -0.22513693592E+02 -0.10874404577E+03  0.14339221901E+03  0.47000000000E+01 0.  1.
         -5    1    5    5    0  503 -0.43654456002E+02  0.47571735664E+01 -0.40958532867E+02  0.60233160666E+02  0.47000000000E+01 0.  1.
<mgrwt>
<rscale>  0 0.27531377E+03</rscale>
<asrwt>0</asrwt>
<pdfrwt beam="1">  1        2 0.48633460E-01 0.27531377E+03</pdfrwt>
<pdfrwt beam="2">  1       -2 0.92221887E-02 0.27531377E+03</pdfrwt>
<totfact> 0.77418495E+03</totfact>
</mgrwt>
</event>
<event>
 9    1  0.2073852E-002  0.2754198E+03  0.7818608E-02  0.1098217E+00
         -1   -1    0    0    0  501 -0.00000000000E+00  0.00000000000E+00  0.92105220724E+03  0.92105220724E+03  0.00000000000E+00 0. -1.
          1   -1    0    0  501    0  0.00000000000E+00 -0.00000000000E+00 -0.20589515135E+02  0.20589515135E+02  0.00000000000E+00 0. -1.
         36    2    1    2    0    0  0.00000000000E+00  0.00000000000E+00  0.90046269210E+03  0.94164172237E+03  0.27541981309E+03 0.  0.
         25    2    3    3    0    0  0.55823714923E+02  0.21023677847E+02  0.46458927361E+03  0.48576232878E+03  0.12869951330E+03 0.  0.
         25    2    3    3    0    0 -0.55823714923E+02 -0.21023677847E+02  0.43587341849E+03  0.45587939359E+03  0.11950775030E+03 0.  0.
          5    1    4    4  502    0 -0.35973113707E+02  0.33104645340E+02  0.16575561279E+03  0.17287855744E+03  0.47000000000E+01 0.  1.
         -5    1    4    4    0  502  0.91796828630E+02 -0.12080967493E+02  0.29883366083E+03  0.31288377134E+03  0.47000000000E+01 0.  1.
          5    1    5    5  503    0 -0.71379808420E+02  0.18237311412E+01  0.41448183238E+03  0.42061345963E+03  0.47000000000E+01 0. -1.
         -5    1    5    5    0  503  0.15556093497E+02 -0.22847408988E+02  0.21391586103E+02  0.35265933964E+02  0.47000000000E+01 0. -1.
<mgrwt>
<rscale>  0 0.27541981E+03</rscale>
<asrwt>0</asrwt>
<pdfrwt beam="1">  1        1 0.31676184E-02 0.27541981E+03</pdfrwt>
<pdfrwt beam="2">  1       -1 0.14170031E+00 0.27541981E+03</pdfrwt>
<totfact> 0.13832397E+03</totfact>
</mgrwt>
</event>
<event>
 9    1  0.2073852E-002  0.2748319E+03  0.7818608E-02  0.1098546E+00
         -2   -1    0    0    0  501 -0.00000000000E+00  0.00000000000E+00  0.18048950349E+02  0.18048950349E+02  0.00000000000E+00 0. -1.
          2   -1    0    0  501    0  0.00000000000E+00 -0.00000000000E+00 -0.10462181609E+04  0.10462181609E+04  0.00000000000E+00 0. -1.
         36    2    1    2    0    0 -0.35527136788E-14  0.00000000000E+00 -0.10281692105E+04  0.10642671112E+04  0.27483187326E+03 0.  0.
         25    2    3    3    0    0  0.13861852320E+02 -0.46844407668E+02 -0.82751892970E+03  0.83526015319E+03  0.10239821787E+03 0.  0.
         25    2    3    3    0    0 -0.13861852320E+02  0.46844407668E+02 -0.20065028082E+03  0.22900695803E+03  0.98980311935E+02 0.  0.
          5    1    4    4  502    0 -0.28962412876E+02 -0.21228563768E+02 -0.10626346985E+03  0.11226525867E+03  0.47000000000E+01 0. -1.
         -5    1    4    4    0  502  0.42824265196E+02 -0.25615843901E+02 -0.72125545985E+03  0.72299489453E+03  0.47000000000E+01 0. -1.
          5    1    5    5  503    0 -0.23316242722E+02  0.68789355162E+00 -0.17205660958E+03  0.17369423500E+03  0.47000000000E+01 0.  1.
         -5    1    5    5    0  503  0.94543904019E+01  0.46156514117E+02 -0.28593671240E+02  0.55312723023E+02  0.47000000000E+01 0.  1.
<mgrwt>
<rscale>  0 0.27483187E+03</rscale>
<asrwt>0</asrwt>
<pdfrwt beam="1">  1        2 0.16095671E+00 0.27483187E+03</pdfrwt>
<pdfrwt beam="2">  1       -2 0.27767603E-02 0.27483187E+03</pdfrwt>
<totfact> 0.11669291E+04</totfact>
</mgrwt>
</event>
<event>
 9    1  0.2073852E-002  0.2756542E+03  0.7818608E-02  0.1098086E+00
         -2   -1    0    0    0  501 -0.00000000000E+00  0.00000000000E+00  0.33629882840E+02  0.33629882840E+02  0.00000000000E+00 0.  1.
          2   -1    0    0  501    0  0.00000000000E+00 -0.00000000000E+00 -0.56486389581E+03  0.56486389581E+03  0.00000000000E+00 0.  1.
         36    2    1    2    0    0 -0.53290705182E-14  0.71054273576E-14 -0.53123401297E+03  0.59849377865E+03  0.27565417927E+03 0.  0.
         25    2    3    3    0    0 -0.68585038490E+01 -0.57087433912E+02 -0.32329337105E+03  0.34907758657E+03  0.11845059515E+03 0.  0.
         25    2    3    3    0    0  0.68585038490E+01  0.57087433912E+02 -0.20794064192E+03  0.24941619208E+03  0.12515235566E+03 0.  0.
          5    1    4    4  502    0  0.67955978653E+01  0.13775706079E+02  0.16829887240E+01  0.16151553466E+02  0.47000000000E+01 0.  1.
         -5    1    4    4    0  502 -0.13654101714E+02 -0.70863139990E+02 -0.32497635978E+03  0.33292603310E+03  0.47000000000E+01 0.  1.
          5    1    5    5  503    0  0.64556551735E+02  0.41391277128E+02 -0.13087962568E+03  0.15176413480E+03  0.47000000000E+01 0.  1.
         -5    1    5    5    0  503 -0.57698047886E+02  0.15696156783E+02 -0.77061016236E+02  0.97652057280E+02  0.47000000000E+01 0.  1.
<mgrwt>
<rscale>  0 0.27565418E+03</rscale>
<asrwt>0</asrwt>
<pdfrwt beam="1">  1        2 0.86902137E-01 0.27565418E+03</pdfrwt>
<pdfrwt beam="2">  1       -2 0.51738282E-02 0.27565418E+03</pdfrwt>
<totfact> 0.10010516E+04</totfact>
</mgrwt>
</event>
<event>
 9    1  0.2073852E-002  0.2751960E+03  0.7818608E-02  0.1098342E+00
         -2   -1    0    0    0  501 -0.00000000000E+00  0.00000000000E+00  0.48066857935E+02  0.48066857935E+02  0.00000000000E+00 0.  1.
          2   -1    0    0  501    0  0.00000000000E+00 -0.00000000000E+00 -0.39389322729E+03  0.39389322729E+03  0.00000000000E+00 0.  1.
         36    2    1    2    0    0 -0.14210854715E-13  0.35527136788E-14 -0.34582636935E+03  0.44196008522E+03  0.27519600141E+03 0.  0.
         25    2    3    3    0    0  0.44476122071E+02  0.22539941780E+02 -0.11599438087E+03  0.17348192804E+03  0.11897524345E+03 0.  0.
         25    2    3    3    0    0 -0.44476122071E+02 -0.22539941780E+02 -0.22983198849E+03  0.26847815719E+03  0.12950522593E+03 0.  0.
          5    1    4    4  502    0  0.79843877117E+02  0.39582033404E+02 -0.75623482667E+02  0.11697342951E+03  0.47000000000E+01 0.  1.
         -5    1    4    4    0  502 -0.35367755046E+02 -0.17042091624E+02 -0.40370898199E+02  0.56508498523E+02  0.47000000000E+01 0.  1.
          5    1    5    5  503    0  0.37043017989E+02 -0.40341358296E+02 -0.98829051173E+02  0.11308793802E+03  0.47000000000E+01 0.  1.
         -5    1    5    5    0  503 -0.81519140060E+02  0.17801416516E+02 -0.13100293732E+03  0.15539021916E+03  0.47000000000E+01 0.  1.
<mgrwt>
<rscale>  0 0.27519600E+03</rscale>
<asrwt>0</asrwt>
<pdfrwt beam="1">  1        2 0.60598959E-01 0.27519600E+03</pdfrwt>
<pdfrwt beam="2">  1       -2 0.73949011E-02 0.27519600E+03</pdfrwt>
<totfact> 0.86269399E+03</totfact>
</mgrwt>
</event>
<event>
 9    1  0.2073852E-002  0.2760845E+03  0.7818608E-02  0.1097847E+00
          1   -1    0    0  501    0  0.00000000000E+00  0.00000000000E+00  0.74442995790E+02  0.74442995790E+02  0.00000000000E+00 0.  1.
         -1   -1    0    0    0  501 -0.00000000000E+00 -0.00000000000E+00 -0.25597658053E+03  0.25597658053E+03  0.00000000000E+00 0.  1.
         36    2    1    2    0    0 -0.71054273576E-14 -0.14210854715E-13 -0.18153358474E+03  0.33041957632E+03  0.27608450523E+03 0.  0.
         25    2    3    3    0    0  0.38130910148E+02  0.31350457442E+02 -0.40255580814E+02  0.14232007939E+03  0.12727008965E+03 0.  0.
         25    2    3    3    0    0 -0.38130910148E+02 -0.31350457442E+02 -0.14127800393E+03  0.18809949693E+03  0.11395230960E+03 0.  0.
          5    1    4    4  502    0  0.42111723381E+01  0.64803770909E+02  0.17385770554E+02  0.67391525537E+02  0.47000000000E+01 0. -1.
         -5    1    4    4    0  502  0.33919737809E+02 -0.33453313467E+02 -0.57641351367E+02  0.74928553853E+02  0.47000000000E+01 0. -1.
          5    1    5    5  503    0  0.12787890543E+02 -0.49201581710E+02 -0.11908541620E+03  0.12956755820E+03  0.47000000000E+01 0.  1.
         -5    1    5    5    0  503 -0.50918800690E+02  0.17851124268E+02 -0.22192587729E+02  0.58531938730E+02  0.47000000000E+01 0.  1.
<mgrwt>
<rscale>  0 0.27608451E+03</rscale>
<asrwt>0</asrwt>
<pdfrwt beam="1">  1        1 0.11452768E-01 0.27608451E+03</pdfrwt>
<pdfrwt beam="2">  1       -1 0.39381013E-01 0.27608451E+03</pdfrwt>
<totfact> 0.33766000E+03</totfact>
</mgrwt>
</event>
<event>
 9    1  0.2073852E-002  0.2729892E+03  0.7818608E-02  0.1099581E+00
          2   -1    0    0  501    0  0.00000000000E+00  0.00000000000E+00  0.50628641698E+03  0.50628641698E+03  0.00000000000E+00 0.  1.
         -2   -1    0    0    0  501 -0.00000000000E+00 -0.00000000000E+00 -0.36798889833E+02  0.36798889833E+02  0.00000000000E+00 0.  1.
         36    2    1    2    0    0  0.00000000000E+00 -0.71054273576E-14  0.46948752714E+03  0.54308530681E+03  0.27298921651E+03 0.  0.
         25    2    3    3    0    0 -0.26121232768E+02 -0.30751165419E+02  0.16392781674E+03  0.21029246088E+03  0.12538993988E+03 0.  0.
         25    2    3    3    0    0  0.26121232768E+02  0.30751165419E+02  0.30555971040E+03  0.33279284593E+03  0.12552445462E+03 0.  0.
          5    1    4    4  502    0 -0.79030089009E+01  0.43155056966E+02  0.10506675338E+03  0.11395582107E+03  0.47000000000E+01 0. -1.
         -5    1    4    4    0  502 -0.18218223867E+02 -0.73906222385E+02  0.58861063362E+02  0.96336639801E+02  0.47000000000E+01 0. -1.
          5    1    5    5  503    0 -0.28625689277E+01 -0.44826830228E+02  0.15911408854E+03  0.16539958338E+03  0.47000000000E+01 0. -1.
         -5    1    5    5    0  503  0.28983801696E+02  0.75577995646E+02  0.14644562186E+03  0.16739326256E+03  0.47000000000E+01 0. -1.
<mgrwt>
<rscale>  0 0.27298922E+03</rscale>
<asrwt>0</asrwt>
<pdfrwt beam="1">  1        2 0.77890213E-01 0.27298922E+03</pdfrwt>
<pdfrwt beam="2">  1       -2 0.56613680E-02 0.27298922E+03</pdfrwt>
<totfact> 0.98737253E+03</totfact>
</mgrwt>
</event>
<event>
 9    1  0.2073852E-002  0.2747317E+03  0.7818608E-02  0.1098602E+00
         -2   -1    0    0    0  501 -0.00000000000E+00  0.00000000000E+00  0.42904340012E+02  0.42904340012E+02  0.00000000000E+00 0.  1.
          2   -1    0    0  501    0  0.00000000000E+00 -0.00000000000E+00 -0.43980126091E+03  0.43980126091E+03  0.00000000000E+00 0.  1.
         36    2    1    2    0    0 -0.17763568394E-14 -0.71054273576E-14 -0.39689692089E+03  0.48270560092E+03  0.27473174433E+03 0.  0.
         25    2    3    3    0    0 -0.12994889864E+02 -0.23518511977E+02 -0.33101096268E+03  0.35656788452E+03  0.12980913406E+03 0.  0.
         25    2    3    3    0    0  0.12994889864E+02  0.23518511977E+02 -0.65885958214E+02  0.12613771640E+03  0.10415265931E+03 0.  0.
          5    1    4    4  502    0 -0.16566637709E+02 -0.42254440569E+02 -0.33364284834E+03  0.33674846916E+03  0.47000000000E+01 0.  1.
         -5    1    4    4    0  502  0.35717478450E+01  0.18735928592E+02  0.26318856616E+01  0.19819415355E+02  0.47000000000E+01 0.  1.
          5    1    5    5  503    0 -0.73342898979E+01 -0.37008017467E+02 -0.60327142521E+01  0.38495049116E+02  0.47000000000E+01 0.  1.
         -5    1    5    5    0  503  0.20329179762E+02  0.60526529444E+02 -0.59853243962E+02  0.87642667287E+02  0.47000000000E+01 0.  1.
<mgrwt>
<rscale>  0 0.27473174E+03</rscale>
<asrwt>0</asrwt>
<pdfrwt beam="1">  1        2 0.67661736E-01 0.27473174E+03</pdfrwt>
<pdfrwt beam="2">  1       -2 0.66006674E-02 0.27473174E+03</pdfrwt>
<totfact> 0.91198024E+03</totfact>
</mgrwt>
</event>
<event>
 9    1  0.2073852E-002  0.2747266E+03  0.7818608E-02  0.1098605E+00
         -2   -1    0    0    0  501 -0.00000000000E+00  0.00000000000E+00  0.40578836237E+02  0.40578836237E+02  0.00000000000E+00 0. -1.
          2   -1    0    0  501    0  0.00000000000E+00 -0.00000000000E+00 -0.46498796645E+03  0.46498796645E+03  0.00000000000E+00 0. -1.
         36    2    1    2    0    0 -0.53290705182E-14  0.00000000000E+00 -0.42440913021E+03  0.50556680269E+03  0.27472655891E+03 0.  0.
         25    2    3    3    0    0  0.14357107301E+02 -0.47982062663E+02 -0.15573009463E+03  0.20503018880E+03  0.12360061117E+03 0.  0.
         25    2    3    3    0    0 -0.14357107301E+02  0.47982062663E+02 -0.26867903559E+03  0.30053661388E+03  0.12500170900E+03 0.  0.
          5    1    4    4  502    0 -0.11890323548E+02 -0.42509376629E+02 -0.16901032846E+03  0.17474269090E+03  0.47000000000E+01 0.  1.
         -5    1    4    4    0  502  0.26247430849E+02 -0.54726860343E+01  0.13280233836E+02  0.30287497905E+02  0.47000000000E+01 0.  1.
          5    1    5    5  503    0 -0.46726490062E+02  0.13959068468E+02 -0.24077502561E+03  0.24570902186E+03  0.47000000000E+01 0. -1.
         -5    1    5    5    0  503  0.32369382761E+02  0.34022994196E+02 -0.27904009979E+02  0.54827592025E+02  0.47000000000E+01 0. -1.
<mgrwt>
<rscale>  0 0.27472656E+03</rscale>
<asrwt>0</asrwt>
<pdfrwt beam="1">  1        2 0.71536610E-01 0.27472656E+03</pdfrwt>
<pdfrwt beam="2">  1       -2 0.62428979E-02 0.27472656E+03</pdfrwt>
<totfact> 0.93458183E+03</totfact>
</mgrwt>
</event>
<event>
 9    1  0.2073852E-002  0.2757681E+03  0.7818608E-02  0.1098023E+00
          2   -1    0    0  501    0  0.00000000000E+00  0.00000000000E+00  0.11677580193E+03  0.11677580193E+03  0.00000000000E+00 0. -1.
         -2   -1    0    0    0  501 -0.00000000000E+00 -0.00000000000E+00 -0.16280782334E+03  0.16280782334E+03  0.00000000000E+00 0. -1.
         36    2    1    2    0    0  0.00000000000E+00  0.71054273576E-14 -0.46032021411E+02  0.27958362528E+03  0.27576812094E+03 0.  0.
         25    2    3    3    0    0 -0.10262337482E+02 -0.21033099654E+02 -0.80503471589E+02  0.15059916431E+03  0.12510632479E+03 0.  0.
         25    2    3    3    0    0  0.10262337482E+02  0.21033099654E+02  0.34471450178E+02  0.12898446096E+03  0.12206966634E+03 0.  0.
          5    1    4    4  502    0 -0.34282357806E+02  0.31831805270E+02 -0.79466604101E+02  0.92334040586E+02  0.47000000000E+01 0.  1.
         -5    1    4    4    0  502  0.24020020324E+02 -0.52864904924E+02 -0.10368674873E+01  0.58265123729E+02  0.47000000000E+01 0.  1.
          5    1    5    5  503    0  0.58382727970E+02  0.16024613086E+02 -0.11816056018E+02  0.61863077272E+02  0.47000000000E+01 0. -1.
         -5    1    5    5    0  503 -0.48120390488E+02  0.50084865675E+01  0.46287506195E+02  0.67121383688E+02  0.47000000000E+01 0. -1.
<mgrwt>
<rscale>  0 0.27576812E+03</rscale>
<asrwt>0</asrwt>
<pdfrwt beam="1">  1        2 0.17965508E-01 0.27576812E+03</pdfrwt>
<pdfrwt beam="2">  1       -2 0.25047358E-01 0.27576812E+03</pdfrwt>
<totfact> 0.44309210E+03</totfact>
</mgrwt>
</event>
<event>
 9    1  0.2073852E-002  0.2754874E+03  0.7818608E-02  0.1098179E+00
          1   -1    0    0  501    0  0.00000000000E+00  0.00000000000E+00  0.28491080309E+03  0.28491080309E+03  0.00000000000E+00 0.  1.
         -1   -1    0    0    0  501 -0.00000000000E+00 -0.00000000000E+00 -0.66593927054E+02  0.66593927054E+02  0.00000000000E+00 0.  1.
         36    2    1    2    0    0  0.00000000000E+00 -0.71054273576E-14  0.21831687603E+03  0.35150473014E+03  0.27548741705E+03 0.  0.
         25    2    3    3    0    0  0.25124993649E+02  0.49976080749E+02  0.13406189641E+03  0.19217946592E+03  0.12582321367E+03 0.  0.
         25    2    3    3    0    0 -0.25124993649E+02 -0.49976080749E+02  0.84254979624E+02  0.15932526423E+03  0.12311281118E+03 0.  0.
          5    1    4    4  502    0  0.36122902102E+02 -0.26501407860E+02  0.10309794944E+02  0.46212233733E+02  0.47000000000E+01 0. -1.
         -5    1    4    4    0  502 -0.10997908454E+02  0.76477488608E+02  0.12375210147E+03  0.14596723218E+03  0.47000000000E+01 0. -1.
          5    1    5    5  503    0  0.33658756674E+02  0.22039290543E+02  0.14555528234E+02  0.43041789353E+02  0.47000000000E+01 0. -1.
         -5    1    5    5    0  503 -0.58783750323E+02 -0.72015371292E+02  0.69699451390E+02  0.11628347487E+03  0.47000000000E+01 0. -1.
<mgrwt>
<rscale>  0 0.27548742E+03</rscale>
<asrwt>0</asrwt>
<pdfrwt beam="1">  1        1 0.43832430E-01 0.27548742E+03</pdfrwt>
<pdfrwt beam="2">  1       -1 0.10245220E-01 0.27548742E+03</pdfrwt>
<totfact> 0.54551299E+03</totfact>
</mgrwt>
</event>
<event>
 9    1  0.2073852E-002  0.2735979E+03  0.7818608E-02  0.1099238E+00
         -1   -1    0    0    0  501 -0.00000000000E+00  0.00000000000E+00  0.30968724594E+03  0.30968724594E+03  0.00000000000E+00 0. -1.
          1   -1    0    0  501    0  0.00000000000E+00 -0.00000000000E+00 -0.60428551490E+02  0.60428551490E+02  0.00000000000E+00 0. -1.
         36    2    1    2    0    0 -0.17763568394E-14  0.00000000000E+00  0.24925869445E+03  0.37011579743E+03  0.27359789244E+03 0.  0.
         25    2    3    3    0    0  0.43076106920E+01 -0.15165970402E+02  0.50714023738E+02  0.13476043434E+03  0.12385435113E+03 0.  0.
         25    2    3    3    0    0 -0.43076106920E+01  0.15165970402E+02  0.19854467071E+03  0.23535536309E+03  0.12539377376E+03 0.  0.
          5    1    4    4  502    0 -0.27224705117E+02  0.12247529422E+02  0.78665895494E+02  0.84270989430E+02  0.47000000000E+01 0. -1.
         -5    1    4    4    0  502  0.31532315809E+02 -0.27413499825E+02 -0.27951871757E+02  0.50489444913E+02  0.47000000000E+01 0. -1.
          5    1    5    5  503    0  0.12702382283E+02 -0.53414410838E+02  0.77006027017E+02  0.94691435715E+02  0.47000000000E+01 0.  1.
         -5    1    5    5    0  503 -0.17009992975E+02  0.68580381241E+02  0.12153864370E+03  0.14066392737E+03  0.47000000000E+01 0.  1.
<mgrwt>
<rscale>  0 0.27359789E+03</rscale>
<asrwt>0</asrwt>
<pdfrwt beam="1">  1        1 0.92967004E-02 0.27359789E+03</pdfrwt>
<pdfrwt beam="2">  1       -1 0.47644191E-01 0.27359789E+03</pdfrwt>
<totfact> 0.31693097E+03</totfact>
</mgrwt>
</event>
<event>
 9    1  0.2073852E-002  0.2745145E+03  0.7818608E-02  0.1098723E+00
         -1   -1    0    0    0  501 -0.00000000000E+00  0.00000000000E+00  0.10548844006E+03  0.10548844006E+03  0.00000000000E+00 0.  1.
          1   -1    0    0  501    0  0.00000000000E+00 -0.00000000000E+00 -0.17859356212E+03  0.17859356212E+03  0.00000000000E+00 0.  1.
         36    2    1    2    0    0  0.00000000000E+00  0.00000000000E+00 -0.73105122058E+02  0.28408200218E+03  0.27451452619E+03 0.  0.
         25    2    3    3    0    0 -0.40050005301E+02 -0.25827752230E+02 -0.29633390123E+01  0.13182381347E+03  0.12287253846E+03 0.  0.
         25    2    3    3    0    0  0.40050005301E+02  0.25827752230E+02 -0.70141783046E+02  0.15225818871E+03  0.12645794001E+03 0.  0.
          5    1    4    4  502    0 -0.52170147136E+02 -0.54819999123E+02  0.33986937811E+02  0.83091266074E+02  0.47000000000E+01 0.  1.
         -5    1    4    4    0  502  0.12120141834E+02  0.28992246893E+02 -0.36950276823E+02  0.48732547392E+02  0.47000000000E+01 0.  1.
          5    1    5    5  503    0  0.63872437909E+02  0.63313027028E+02 -0.52461498129E+02  0.10422344507E+03  0.47000000000E+01 0. -1.
         -5    1    5    5    0  503 -0.23822432607E+02 -0.37485274798E+02 -0.17680284918E+02  0.48034743642E+02  0.47000000000E+01 0. -1.
<mgrwt>
<rscale>  0 0.27451453E+03</rscale>
<asrwt>0</asrwt>
<pdfrwt beam="1">  1        1 0.27475932E-01 0.27451453E+03</pdfrwt>
<pdfrwt beam="2">  1       -1 0.16228991E-01 0.27451453E+03</pdfrwt>
<totfact> 0.47669828E+03</totfact>
</mgrwt>
</event>
<event>
 9    1  0.2073852E-002  0.2764227E+03  0.7818608E-02  0.1097659E+00
          1   -1    0    0  501    0  0.00000000000E+00  0.00000000000E+00  0.10309032176E+04  0.10309032176E+04  0.00000000000E+00 0.  1.
         -1   -1    0    0    0  501 -0.00000000000E+00 -0.00000000000E+00 -0.18529750335E+02  0.18529750335E+02  0.00000000000E+00 0.  1.
         36    2    1    2    0    0  0.00000000000E+00  0.00000000000E+00  0.10123734672E+04  0.10494329679E+04  0.27642271427E+03 0.  0.
         25    2    3    3    0    0 -0.39429722682E+02 -0.24080684981E+02  0.66030500147E+03  0.67361502311E+03  0.12497968625E+03 0.  0.
         25    2    3    3    0    0  0.39429722682E+02  0.24080684981E+02  0.35206846576E+03  0.37581794478E+03  0.12309484401E+03 0.  0.
          5    1    4    4  502    0  0.29523976869E+02 -0.19987298978E+02  0.64893762250E+02  0.74191965263E+02  0.47000000000E+01 0.  1.
         -5    1    4    4    0  502 -0.68953699551E+02 -0.40933860037E+01  0.59541123922E+03  0.59942305784E+03  0.47000000000E+01 0.  1.
          5    1    5    5  503    0 -0.28238971151E+02 -0.33892126700E+01  0.24156078243E+03  0.24327479907E+03  0.47000000000E+01 0. -1.
         -5    1    5    5    0  503  0.67668693833E+02  0.27469897651E+02  0.11050768333E+03  0.13254314572E+03  0.47000000000E+01 0. -1.
<mgrwt>
<rscale>  0 0.27642271E+03</rscale>
<asrwt>0</asrwt>
<pdfrwt beam="1">  1        1 0.15860045E+00 0.27642271E+03</pdfrwt>
<pdfrwt beam="2">  1       -1 0.28507316E-02 0.27642271E+03</pdfrwt>
<totfact> 0.61654572E+03</totfact>
</mgrwt>
</event>
<event>
 9    1  0.2073852E-002  0.2752775E+03  0.7818608E-02  0.1098297E+00
          2   -1    0    0  501    0  0.00000000000E+00  0.00000000000E+00  0.94934619676E+02  0.94934619676E+02  0.00000000000E+00 0.  1.
         -2   -1    0    0    0  501 -0.00000000000E+00 -0.00000000000E+00 -0.19955228353E+03  0.19955228353E+03  0.00000000000E+00 0.  1.
         36    2    1    2    0    0  0.00000000000E+00 -0.14210854715E-13 -0.10461766386E+03  0.29448690321E+03  0.27527746107E+03 0.  0.
         25    2    3    3    0    0 -0.54816215740E+02  0.42663421496E+02 -0.28832498271E+02  0.14781229037E+03  0.12724847813E+03 0.  0.
         25    2    3    3    0    0  0.54816215740E+02 -0.42663421496E+02 -0.75785165585E+02  0.14667461284E+03  0.10461866797E+03 0.  0.
          5    1    4    4  502    0 -0.24693432289E+02 -0.39622908527E+02  0.15604000971E+02  0.49450129673E+02  0.47000000000E+01 0.  1.
         -5    1    4    4    0  502 -0.30122783451E+02  0.82286330023E+02 -0.44436499242E+02  0.98362160694E+02  0.47000000000E+01 0.  1.
          5    1    5    5  503    0 -0.76156309091E+01 -0.20254319706E+02  0.20154693420E+02  0.29942227168E+02  0.47000000000E+01 0. -1.
         -5    1    5    5    0  503  0.62431846649E+02 -0.22409101789E+02 -0.95939859006E+02  0.11673238567E+03  0.47000000000E+01 0. -1.
<mgrwt>
<rscale>  0 0.27527746E+03</rscale>
<asrwt>0</asrwt>
<pdfrwt beam="1">  1        2 0.14605326E-01 0.27527746E+03</pdfrwt>
<pdfrwt beam="2">  1       -2 0.30700351E-01 0.27527746E+03</pdfrwt>
<totfact> 0.39228509E+03</totfact>
</mgrwt>
</event>
<event>
 9    1  0.2073852E-002  0.2759113E+03  0.7818608E-02  0.1097943E+00
         -1   -1    0    0    0  501 -0.00000000000E+00  0.00000000000E+00  0.44865409689E+02  0.44865409689E+02  0.00000000000E+00 0.  1.
          1   -1    0    0  501    0  0.00000000000E+00 -0.00000000000E+00 -0.42419688503E+03  0.42419688503E+03  0.00000000000E+00 0.  1.
         36    2    1    2    0    0 -0.71054273576E-14  0.71054273576E-14 -0.37933147534E+03  0.46906229472E+03  0.27591134109E+03 0.  0.
         25    2    3    3    0    0  0.23536666364E+02 -0.39190498832E+02 -0.24569242385E+03  0.28007527910E+03  0.12644178488E+03 0.  0.
         25    2    3    3    0    0 -0.23536666364E+02  0.39190498832E+02 -0.13363905150E+03  0.18898701562E+03  0.12556602298E+03 0.  0.
          5    1    4    4  502    0  0.19825797952E+02  0.31892120190E+02 -0.17715108622E+03  0.18114846658E+03  0.47000000000E+01 0.  1.
         -5    1    4    4    0  502  0.37108684123E+01 -0.71082619022E+02 -0.68541337622E+02  0.98926812515E+02  0.47000000000E+01 0.  1.
          5    1    5    5  503    0  0.44890262840E+01  0.39382083298E+02  0.11144135259E+02  0.41441302979E+02  0.47000000000E+01 0.  1.
         -5    1    5    5    0  503 -0.28025692648E+02 -0.19158446659E+00 -0.14478318676E+03  0.14754571265E+03  0.47000000000E+01 0.  1.
<mgrwt>
<rscale>  0 0.27591134E+03</rscale>
<asrwt>0</asrwt>
<pdfrwt beam="1">  1        1 0.65261061E-01 0.27591134E+03</pdfrwt>
<pdfrwt beam="2">  1       -1 0.69023705E-02 0.27591134E+03</pdfrwt>
<totfact> 0.60268836E+03</totfact>
</mgrwt>
</event>
<event>
 9    1  0.2073852E-002  0.2752904E+03  0.7818608E-02  0.1098289E+00
          2   -1    0    0  501    0  0.00000000000E+00  0.00000000000E+00  0.50301739847E+02  0.50301739847E+02  0.00000000000E+00 0. -1.
         -2   -1    0    0    0  501 -0.00000000000E+00 -0.00000000000E+00 -0.37665100147E+03  0.37665100147E+03  0.00000000000E+00 0. -1.
         36    2    1    2    0    0  0.00000000000E+00  0.00000000000E+00 -0.32634926162E+03  0.42695274132E+03  0.27529039714E+03 0.  0.
         25    2    3    3    0    0  0.13866077625E+02 -0.65250213434E+02 -0.17706050365E+03  0.22186770019E+03  0.11586628488E+03 0.  0.
         25    2    3    3    0    0 -0.13866077625E+02  0.65250213434E+02 -0.14928875797E+03  0.20508504113E+03  0.12378563073E+03 0.  0.
          5    1    4    4  502    0  0.40154348068E+02  0.12786223790E+02 -0.25949069052E+02  0.49712205466E+02  0.47000000000E+01 0.  1.
         -5    1    4    4    0  502 -0.26288270443E+02 -0.78036437224E+02 -0.15111143460E+03  0.17215549472E+03  0.47000000000E+01 0.  1.
          5    1    5    5  503    0 -0.40474476263E+02  0.82387429852E+02 -0.58814812718E+02  0.10911986080E+03  0.47000000000E+01 0.  1.
         -5    1    5    5    0  503  0.26608398638E+02 -0.17137216418E+02 -0.90473945257E+02  0.95965180326E+02  0.47000000000E+01 0.  1.
<mgrwt>
<rscale>  0 0.27529040E+03</rscale>
<asrwt>0</asrwt>
<pdfrwt beam="1">  1        2 0.77387292E-02 0.27529040E+03</pdfrwt>
<pdfrwt beam="2">  1       -2 0.57946308E-01 0.27529040E+03</pdfrwt>
<totfact> 0.25153854E+03</totfact>
</mgrwt>
</event>
<event>
 9    1  0.2073852E-002  0.2747916E+03  0.7818608E-02  0.1098568E+00
          1   -1    0    0  501    0  0.00000000000E+00  0.00000000000E+00  0.61236564925E+03  0.61236564925E+03  0.00000000000E+00 0. -1.
         -1   -1    0    0    0  501 -0.00000000000E+00 -0.00000000000E+00 -0.30827333449E+02  0.30827333449E+02  0.00000000000E+00 0. -1.
         36    2    1    2    0    0 -0.14210854715E-13 -0.35527136788E-14  0.58153831581E+03  0.64319298270E+03  0.27479155782E+03 0.  0.
         25    2    3    3    0    0  0.76299615797E+02 -0.28090958680E+02  0.33130159320E+03  0.36374782602E+03  0.12625768075E+03 0.  0.
         25    2    3    3    0    0 -0.76299615797E+02  0.28090958680E+02  0.25023672260E+03  0.27944515668E+03  0.94129936371E+02 0.  0.
          5    1    4    4  502    0  0.70132879601E+02  0.17594079571E+02  0.78882874748E+02  0.10711101888E+03  0.47000000000E+01 0. -1.
         -5    1    4    4    0  502  0.61667361967E+01 -0.45685038252E+02  0.25241871845E+03  0.25663680714E+03  0.47000000000E+01 0. -1.
          5    1    5    5  503    0 -0.64794079012E+02 -0.16238922940E+02  0.86684832825E+02  0.10953686838E+03  0.47000000000E+01 0. -1.
         -5    1    5    5    0  503 -0.11505536785E+02  0.44329881620E+02  0.16355188978E+03  0.16990828830E+03  0.47000000000E+01 0. -1.
<mgrwt>
<rscale>  0 0.27479156E+03</rscale>
<asrwt>0</asrwt>
<pdfrwt beam="1">  1        1 0.94210091E-01 0.27479156E+03</pdfrwt>
<pdfrwt beam="2">  1       -1 0.47426671E-02 0.27479156E+03</pdfrwt>
<totfact> 0.64891177E+03</totfact>
</mgrwt>
</event>
<event>
 9    1  0.2073852E-002  0.2749405E+03  0.7818608E-02  0.1098485E+00
          2   -1    0    0  501    0  0.00000000000E+00  0.00000000000E+00  0.12646711890E+04  0.12646711890E+04  0.00000000000E+00 0. -1.
         -2   -1    0    0    0  501 -0.00000000000E+00 -0.00000000000E+00 -0.14943072243E+02  0.14943072243E+02  0.00000000000E+00 0. -1.
         36    2    1    2    0    0  0.00000000000E+00  0.88817841970E-15  0.12497281168E+04  0.12796142613E+04  0.27494052405E+03 0.  0.
         25    2    3    3    0    0 -0.87833988603E+01 -0.56470749534E+00  0.37842173045E+03  0.39895267815E+03  0.12602684768E+03 0.  0.
         25    2    3    3    0    0  0.87833988603E+01  0.56470749534E+00  0.87130638635E+03  0.88066158313E+03  0.12772054700E+03 0.  0.
          5    1    4    4  502    0  0.58303218227E+02  0.38550545994E+01  0.19021872343E+03  0.19904617415E+03  0.47000000000E+01 0. -1.
         -5    1    4    4    0  502 -0.67086617087E+02 -0.44197620947E+01  0.18820300703E+03  0.19990650400E+03  0.47000000000E+01 0. -1.
          5    1    5    5  503    0 -0.46063044963E+02  0.29825062742E+02  0.23777961290E+03  0.24407493273E+03  0.47000000000E+01 0.  1.
         -5    1    5    5    0  503  0.54846443823E+02 -0.29260355247E+02  0.63352677345E+03  0.63658665040E+03  0.47000000000E+01 0.  1.
<mgrwt>
<rscale>  0 0.27494052E+03</rscale>
<asrwt>0</asrwt>
<pdfrwt beam="1">  1        2 0.19456471E+00 0.27494052E+03</pdfrwt>
<pdfrwt beam="2">  1       -2 0.22989352E-02 0.27494052E+03</pdfrwt>
<totfact> 0.11544511E+04</totfact>
</mgrwt>
</event>
<event>
 9    1  0.2073852E-002  0.2873246E+03  0.7818608E-02  0.1091754E+00
         -2   -1    0    0    0  501 -0.00000000000E+00  0.00000000000E+00  0.68234407583E+02  0.68234407583E+02  0.00000000000E+00 0. -1.
          2   -1    0    0  501    0  0.00000000000E+00 -0.00000000000E+00 -0.30246998099E+03  0.30246998099E+03  0.00000000000E+00 0. -1.
         36    2    1    2    0    0  0.71054273576E-14 -0.35527136788E-14 -0.23423557341E+03  0.37070438857E+03  0.28732462452E+03 0.  0.
         25    2    3    3    0    0 -0.57257409193E+02  0.27542607225E+02 -0.68196785368E+02  0.15497890911E+03  0.12381702070E+03 0.  0.
         25    2    3    3    0    0  0.57257409193E+02 -0.27542607225E+02 -0.16603878804E+03  0.21572547946E+03  0.12219491493E+03 0.  0.
          5    1    4    4  502    0 -0.49365252270E+02  0.48177918776E+02  0.13303285430E+02  0.70406728319E+02  0.47000000000E+01 0. -1.
         -5    1    4    4    0  502 -0.78921569233E+01 -0.20635311551E+02 -0.81500070798E+02  0.84572180791E+02  0.47000000000E+01 0. -1.
          5    1    5    5  503    0 -0.91980959439E+01 -0.49640971513E+02 -0.21557506493E+02  0.55096706870E+02  0.47000000000E+01 0.  1.
         -5    1    5    5    0  503  0.66455505137E+02  0.22098364288E+02 -0.14448128155E+03  0.16062877259E+03  0.47000000000E+01 0.  1.
<mgrwt>
<rscale>  0 0.28732462E+03</rscale>
<asrwt>0</asrwt>
<pdfrwt beam="1">  1        2 0.46533843E-01 0.28732462E+03</pdfrwt>
<pdfrwt beam="2">  1       -2 0.10497601E-01 0.28732462E+03</pdfrwt>
<totfact> 0.66189034E+03</totfact>
</mgrwt>
</event>
<event>
 9    1  0.2073852E-002  0.2741754E+03  0.7818608E-02  0.1098913E+00
          1   -1    0    0  501    0  0.00000000000E+00  0.00000000000E+00  0.38227122461E+03  0.38227122461E+03  0.00000000000E+00 0.  1.
         -1   -1    0    0    0  501 -0.00000000000E+00 -0.00000000000E+00 -0.49161527210E+02  0.49161527210E+02  0.00000000000E+00 0.  1.
         36    2    1    2    0    0  0.00000000000E+00  0.35527136788E-14  0.33310969740E+03  0.43143275182E+03  0.27417539795E+03 0.  0.
         25    2    3    3    0    0 -0.47891201488E+02  0.10525313859E+02  0.23377844057E+03  0.26924857126E+03  0.12425008829E+03 0.  0.
         25    2    3    3    0    0  0.47891201488E+02 -0.10525313859E+02  0.99331256834E+02  0.16218418056E+03  0.11845953076E+03 0.  0.
          5    1    4    4  502    0 -0.70023393143E+02  0.66829451779E+01  0.23589248514E+03  0.24620173007E+03  0.47000000000E+01 0.  1.
         -5    1    4    4    0  502  0.22132191655E+02  0.38423686807E+01 -0.21140445706E+01  0.23046841193E+02  0.47000000000E+01 0.  1.
          5    1    5    5  503    0  0.68409520170E+02  0.35231493306E+02  0.51402215962E+02  0.92657424831E+02  0.47000000000E+01 0. -1.
         -5    1    5    5    0  503 -0.20518318682E+02 -0.45756807165E+02  0.47929040872E+02  0.69526755731E+02  0.47000000000E+01 0. -1.
<mgrwt>
<rscale>  0 0.27417540E+03</rscale>
<asrwt>0</asrwt>
<pdfrwt beam="1">  1        1 0.58810956E-01 0.27417540E+03</pdfrwt>
<pdfrwt beam="2">  1       -1 0.75633121E-02 0.27417540E+03</pdfrwt>
<totfact> 0.59932512E+03</totfact>
</mgrwt>
</event>
<event>
 9    1  0.2073852E-002  0.2754486E+03  0.7818608E-02  0.1098201E+00
         -2   -1    0    0    0  501 -0.00000000000E+00  0.00000000000E+00  0.46752128239E+02  0.46752128239E+02  0.00000000000E+00 0. -1.
          2   -1    0    0  501    0  0.00000000000E+00 -0.00000000000E+00 -0.40571382326E+03  0.40571382326E+03  0.00000000000E+00 0. -1.
         36    2    1    2    0    0  0.00000000000E+00  0.00000000000E+00 -0.35896169502E+03  0.45246595150E+03  0.27544861367E+03 0.  0.
         25    2    3    3    0    0  0.46259994567E+02  0.27663381883E+02 -0.17748105184E+03  0.22480328339E+03  0.12701079743E+03 0.  0.
         25    2    3    3    0    0 -0.46259994567E+02 -0.27663381883E+02 -0.18148064318E+03  0.22766266811E+03  0.12645084740E+03 0.  0.
          5    1    4    4  502    0  0.13535595488E+02 -0.32802692105E+02 -0.15190200176E+01  0.35827731946E+02  0.47000000000E+01 0.  1.
         -5    1    4    4    0  502  0.32724399079E+02  0.60466073988E+02 -0.17596203183E+03  0.18897555144E+03  0.47000000000E+01 0.  1.
          5    1    5    5  503    0 -0.11806155132E+02  0.46453237877E+01 -0.17965286608E+03  0.18016161251E+03  0.47000000000E+01 0. -1.
         -5    1    5    5    0  503 -0.34453839435E+02 -0.32308705671E+02 -0.18277770980E+01  0.47501055599E+02  0.47000000000E+01 0. -1.
<mgrwt>
<rscale>  0 0.27544861E+03</rscale>
<asrwt>0</asrwt>
<pdfrwt beam="1">  1        2 0.62417514E-01 0.27544861E+03</pdfrwt>
<pdfrwt beam="2">  1       -2 0.71926348E-02 0.27544861E+03</pdfrwt>
<totfact> 0.87219779E+03</totfact>
</mgrwt>
</event>
<event>
 9    1  0.2073852E-002  0.2741245E+03  0.7818608E-02  0.1098942E+00
          2   -1    0    0  501    0  0.00000000000E+00  0.00000000000E+00  0.15613496087E+03  0.15613496087E+03  0.00000000000E+00 0.  1.
         -2   -1    0    0    0  501 -0.00000000000E+00 -0.00000000000E+00 -0.12031934737E+03  0.12031934737E+03  0.00000000000E+00 0.  1.
         36    2    1    2    0    0 -0.71054273576E-14 -0.17763568394E-14  0.35815613500E+02  0.27645430824E+03  0.27412447241E+03 0.  0.
         25    2    3    3    0    0  0.20511050392E+02 -0.21672781458E+01  0.69682551667E+02  0.14454283311E+03  0.12494627771E+03 0.  0.
         25    2    3    3    0    0 -0.20511050392E+02  0.21672781458E+01 -0.33866938167E+02  0.13191147513E+03  0.12581044268E+03 0.  0.
          5    1    4    4  502    0  0.57174721864E+02  0.12788987943E+02  0.83700309773E+02  0.10227579816E+03  0.47000000000E+01 0.  1.
         -5    1    4    4    0  502 -0.36663671471E+02 -0.14956266089E+02 -0.14017758106E+02  0.42267034949E+02  0.47000000000E+01 0.  1.
          5    1    5    5  503    0 -0.61964041294E+02 -0.19403903342E+02  0.12075706532E+02  0.66211528956E+02  0.47000000000E+01 0. -1.
         -5    1    5    5    0  503  0.41452990902E+02  0.21571181487E+02 -0.45942644699E+02  0.65699946175E+02  0.47000000000E+01 0. -1.
<mgrwt>
<rscale>  0 0.27412447E+03</rscale>
<asrwt>0</asrwt>
<pdfrwt beam="1">  1        2 0.24020763E-01 0.27412447E+03</pdfrwt>
<pdfrwt beam="2">  1       -2 0.18510669E-01 0.27412447E+03</pdfrwt>
<totfact> 0.53642244E+03</totfact>
</mgrwt>
</event>
<event>
 9    1  0.2073852E-002  0.2774812E+03  0.7818608E-02  0.1097073E+00
          4   -1    0    0  501    0  0.00000000000E+00  0.00000000000E+00  0.33190511023E+03  0.33190511023E+03  0.00000000000E+00 0. -1.
         -4   -1    0    0    0  501 -0.00000000000E+00 -0.00000000000E+00 -0.57995367702E+02  0.57995367702E+02  0.00000000000E+00 0. -1.
         36    2    1    2    0    0  0.00000000000E+00 -0.71054273576E-14  0.27390974253E+03  0.38990047793E+03  0.27748123475E+03 0.  0.
         25    2    3    3    0    0 -0.11608242900E+02 -0.44702307184E+02  0.19837690617E+03  0.23759972938E+03  0.12234045501E+03 0.  0.
         25    2    3    3    0    0  0.11608242900E+02  0.44702307184E+02  0.75532836359E+02  0.15230074855E+03  0.12392441676E+03 0.  0.
          5    1    4    4  502    0  0.36818252204E+02 -0.34773235074E+02  0.23904671983E+02  0.56198620227E+02  0.47000000000E+01 0.  1.
         -5    1    4    4    0  502 -0.48426495104E+02 -0.99290721108E+01  0.17447223419E+03  0.18140110916E+03  0.47000000000E+01 0.  1.
          5    1    5    5  503    0  0.66286301717E+02  0.39059564354E+02  0.43958620906E+02  0.88735414096E+02  0.47000000000E+01 0.  1.
         -5    1    5    5    0  503 -0.54678058817E+02  0.56427428304E+01  0.31574215454E+02  0.63565334453E+02  0.47000000000E+01 0.  1.
<mgrwt>
<rscale>  0 0.27748123E+03</rscale>
<asrwt>0</asrwt>
<pdfrwt beam="1">  1        4 0.51062324E-01 0.27748123E+03</pdfrwt>
<pdfrwt beam="2">  1       -4 0.89223644E-02 0.27748123E+03</pdfrwt>
<totfact> 0.64125012E+02</totfact>
</mgrwt>
</event>
<event>
 9    1  0.2073852E-002  0.2743825E+03  0.7818608E-02  0.1098797E+00
          3   -1    0    0  501    0  0.00000000000E+00  0.00000000000E+00  0.12302565999E+04  0.12302565999E+04  0.00000000000E+00 0. -1.
         -3   -1    0    0    0  501 -0.00000000000E+00 -0.00000000000E+00 -0.15298792448E+02  0.15298792448E+02  0.00000000000E+00 0. -1.
         36    2    1    2    0    0  0.00000000000E+00  0.71054273576E-14  0.12149578074E+04  0.12455553923E+04  0.27438250949E+03 0.  0.
         25    2    3    3    0    0 -0.36871775729E+02  0.21180313463E+02  0.43204435674E+03  0.45173061682E+03  0.12486028376E+03 0.  0.
         25    2    3    3    0    0  0.36871775729E+02 -0.21180313463E+02  0.78291345069E+03  0.79382477550E+03  0.12408130159E+03 0.  0.
          5    1    4    4  502    0  0.28701862520E+02  0.23301411047E+02  0.41879242555E+02  0.56059911041E+02  0.47000000000E+01 0. -1.
         -5    1    4    4    0  502 -0.65573638249E+02 -0.21210975842E+01  0.39016511419E+03  0.39567070578E+03  0.47000000000E+01 0. -1.
          5    1    5    5  503    0  0.20445544926E+02 -0.60037677432E+02  0.67302150354E+03  0.67601965744E+03  0.47000000000E+01 0. -1.
         -5    1    5    5    0  503  0.16426230804E+02  0.38857363969E+02  0.10989194715E+03  0.11780511806E+03  0.47000000000E+01 0. -1.
<mgrwt>
<rscale>  0 0.27438251E+03</rscale>
<asrwt>0</asrwt>
<pdfrwt beam="1">  1        3 0.18927017E+00 0.27438251E+03</pdfrwt>
<pdfrwt beam="2">  1       -3 0.23536613E-02 0.27438251E+03</pdfrwt>
<totfact> 0.35105833E+02</totfact>
</mgrwt>
</event>
<event>
 9    1  0.2073852E-002  0.2754108E+03  0.7818608E-02  0.1098222E+00
          2   -1    0    0  501    0  0.00000000000E+00  0.00000000000E+00  0.11635881109E+04  0.11635881109E+04  0.00000000000E+00 0. -1.
         -2   -1    0    0    0  501 -0.00000000000E+00 -0.00000000000E+00 -0.16296811323E+02  0.16296811323E+02  0.00000000000E+00 0. -1.
         36    2    1    2    0    0 -0.14210854715E-13  0.71054273576E-14  0.11472912996E+04  0.11798849222E+04  0.27541079065E+03 0.  0.
         25    2    3    3    0    0 -0.45800963733E+02 -0.22054255705E+02  0.42969814642E+03  0.44960915147E+03  0.12216289771E+03 0.  0.
         25    2    3    3    0    0  0.45800963733E+02  0.22054255705E+02  0.71759315317E+03  0.73027577077E+03  0.12561309413E+03 0.  0.
          5    1    4    4  502    0  0.13826773404E+02 -0.59458339701E+02  0.17941526150E+03  0.18957425955E+03  0.47000000000E+01 0. -1.
         -5    1    4    4    0  502 -0.59627737137E+02  0.37404083996E+02  0.25028288492E+03  0.26003489193E+03  0.47000000000E+01 0. -1.
          5    1    5    5  503    0  0.76550037016E+02 -0.15739734087E+02  0.55436240955E+03  0.55986374996E+03  0.47000000000E+01 0.  1.
         -5    1    5    5    0  503 -0.30749073283E+02  0.37793989792E+02  0.16323074362E+03  0.17041202080E+03  0.47000000000E+01 0.  1.
<mgrwt>
<rscale>  0 0.27541079E+03</rscale>
<asrwt>0</asrwt>
<pdfrwt beam="1">  1        2 0.17901349E+00 0.27541079E+03</pdfrwt>
<pdfrwt beam="2">  1       -2 0.25072027E-02 0.27541079E+03</pdfrwt>
<totfact> 0.11586453E+04</totfact>
</mgrwt>
</event>
<event>
 9    1  0.2073852E-002  0.2750436E+03  0.7818608E-02  0.1098427E+00
         -1   -1    0    0    0  501 -0.00000000000E+00  0.00000000000E+00  0.13821988936E+02  0.13821988936E+02  0.00000000000E+00 0.  1.
          1   -1    0    0  501    0  0.00000000000E+00 -0.00000000000E+00 -0.13682722634E+04  0.13682722634E+04  0.00000000000E+00 0.  1.
         36    2    1    2    0    0  0.00000000000E+00  0.00000000000E+00 -0.13544502744E+04  0.13820942523E+04  0.27504358989E+03 0.  0.
         25    2    3    3    0    0 -0.39297364326E+02  0.11422206362E+02 -0.56458607167E+03  0.57981487775E+03  0.12551139584E+03 0.  0.
         25    2    3    3    0    0  0.39297364326E+02 -0.11422206362E+02 -0.78986420278E+03  0.80227937458E+03  0.13450645487E+03 0.  0.
          5    1    4    4  502    0 -0.83093072531E+02  0.18775274882E+01 -0.42686980572E+03  0.43491137585E+03  0.47000000000E+01 0.  1.
         -5    1    4    4    0  502  0.43795708205E+02  0.95446788742E+01 -0.13771626596E+03  0.14490350189E+03  0.47000000000E+01 0.  1.
          5    1    5    5  503    0  0.54761118337E+02  0.17555009811E+02 -0.13806485475E+03  0.14963606707E+03  0.47000000000E+01 0. -1.
         -5    1    5    5    0  503 -0.15463754011E+02 -0.28977216173E+02 -0.65179934803E+03  0.65264330751E+03  0.47000000000E+01 0. -1.
<mgrwt>
<rscale>  0 0.27504359E+03</rscale>
<asrwt>0</asrwt>
<pdfrwt beam="1">  1        1 0.21050349E+00 0.27504359E+03</pdfrwt>
<pdfrwt beam="2">  1       -1 0.21264592E-02 0.27504359E+03</pdfrwt>
<totfact> 0.54950173E+03</totfact>
</mgrwt>
</event>
<event>
 9    1  0.2073852E-002  0.2744859E+03  0.7818608E-02  0.1098739E+00
         -4   -1    0    0    0  501 -0.00000000000E+00  0.00000000000E+00  0.13487887602E+04  0.13487887602E+04  0.00000000000E+00 0.  1.
          4   -1    0    0  501    0  0.00000000000E+00 -0.00000000000E+00 -0.13964841677E+02  0.13964841677E+02  0.00000000000E+00 0.  1.
         36    2    1    2    0    0  0.00000000000E+00 -0.35527136788E-14  0.13348239185E+04  0.13627536018E+04  0.27448585750E+03 0.  0.
         25    2    3    3    0    0 -0.51328324894E+01  0.40464411966E+01  0.95878523613E+03  0.96702033089E+03  0.12576355471E+03 0.  0.
         25    2    3    3    0    0  0.51328324894E+01 -0.40464411966E+01  0.37603868235E+03  0.39573327093E+03  0.12311381501E+03 0.  0.
          5    1    4    4  502    0  0.49880170652E+02  0.35227154918E+02  0.40254675011E+03  0.40717927242E+03  0.47000000000E+01 0.  1.
         -5    1    4    4    0  502 -0.55013003141E+02 -0.31180713722E+02  0.55623848602E+03  0.55984105847E+03  0.47000000000E+01 0.  1.
          5    1    5    5  503    0 -0.48205513554E+02  0.30338578921E+02  0.13873596676E+03  0.15004652405E+03  0.47000000000E+01 0.  1.
         -5    1    5    5    0  503  0.53338346044E+02 -0.34385020117E+02  0.23730271559E+03  0.24568674688E+03  0.47000000000E+01 0.  1.
<mgrwt>
<rscale>  0 0.27448586E+03</rscale>
<asrwt>0</asrwt>
<pdfrwt beam="1">  1        4 0.21484382E-02 0.27448586E+03</pdfrwt>
<pdfrwt beam="2">  1       -4 0.20750586E+00 0.27448586E+03</pdfrwt>
<totfact> 0.21958563E+02</totfact>
</mgrwt>
</event>
<event>
 9    1  0.2073852E-002  0.2851900E+03  0.7818608E-02  0.1092888E+00
         -2   -1    0    0    0  501 -0.00000000000E+00  0.00000000000E+00  0.85212350552E+02  0.85212350552E+02  0.00000000000E+00 0. -1.
          2   -1    0    0  501    0  0.00000000000E+00 -0.00000000000E+00 -0.23861963099E+03  0.23861963099E+03  0.00000000000E+00 0. -1.
         36    2    1    2    0    0  0.00000000000E+00  0.17763568394E-14 -0.15340728043E+03  0.32383198154E+03  0.28519003941E+03 0.  0.
         25    2    3    3    0    0  0.68683818712E+02  0.49823017708E+01 -0.63456561260E+02  0.15551038031E+03  0.12415495533E+03 0.  0.
         25    2    3    3    0    0 -0.68683818712E+02 -0.49823017708E+01 -0.89950719175E+02  0.16832160123E+03  0.12449393269E+03 0.  0.
          5    1    4    4  502    0  0.44413032013E+02  0.10208800588E+02 -0.10062679470E+03  0.11056481734E+03  0.47000000000E+01 0.  1.
         -5    1    4    4    0  502  0.24270786699E+02 -0.52264988173E+01  0.37170233439E+02  0.44945562971E+02  0.47000000000E+01 0.  1.
          5    1    5    5  503    0 -0.72748114162E+02 -0.45211167047E+02 -0.21100475451E+02  0.88338314474E+02  0.47000000000E+01 0.  1.
         -5    1    5    5    0  503  0.40642954501E+01  0.40228865276E+02 -0.68850243724E+02  0.79983286752E+02  0.47000000000E+01 0.  1.
<mgrwt>
<rscale>  0 0.28519004E+03</rscale>
<asrwt>0</asrwt>
<pdfrwt beam="1">  1        2 0.36710712E-01 0.28519004E+03</pdfrwt>
<pdfrwt beam="2">  1       -2 0.13109593E-01 0.28519004E+03</pdfrwt>
<totfact> 0.59721177E+03</totfact>
</mgrwt>
</event>
<event>
 9    1  0.2073852E-002  0.2754403E+03  0.7818608E-02  0.1098206E+00
          2   -1    0    0  501    0  0.00000000000E+00  0.00000000000E+00  0.35882045960E+03  0.35882045960E+03  0.00000000000E+00 0. -1.
         -2   -1    0    0    0  501 -0.00000000000E+00 -0.00000000000E+00 -0.52858864722E+02  0.52858864722E+02  0.00000000000E+00 0. -1.
         36    2    1    2    0    0 -0.71054273576E-14  0.71054273576E-14  0.30596159488E+03  0.41167932432E+03  0.27544031755E+03 0.  0.
         25    2    3    3    0    0 -0.12335844161E+02 -0.57154881362E+02  0.10168574192E+03  0.16986671900E+03  0.12286520500E+03 0.  0.
         25    2    3    3    0    0  0.12335844161E+02  0.57154881362E+02  0.20427585296E+03  0.24181260533E+03  0.11543768222E+03 0.  0.
          5    1    4    4  502    0  0.45637201124E+02  0.68711594280E+01  0.18766805304E+02  0.50042481350E+02  0.47000000000E+01 0.  1.
         -5    1    4    4    0  502 -0.57973045286E+02 -0.64026040790E+02  0.82918936613E+02  0.11982423765E+03  0.47000000000E+01 0.  1.
          5    1    5    5  503    0 -0.30492253729E+02  0.36595010016E+02  0.18369022442E+03  0.18982402599E+03  0.47000000000E+01 0.  1.
         -5    1    5    5    0  503  0.42828097890E+02  0.20559871346E+02  0.20585628541E+02  0.51988579334E+02  0.47000000000E+01 0.  1.
<mgrwt>
<rscale>  0 0.27544032E+03</rscale>
<asrwt>0</asrwt>
<pdfrwt beam="1">  1        2 0.55203146E-01 0.27544032E+03</pdfrwt>
<pdfrwt beam="2">  1       -2 0.81321333E-02 0.27544032E+03</pdfrwt>
<totfact> 0.82295895E+03</totfact>
</mgrwt>
</event>
<event>
 9    1  0.2073852E-002  0.2751127E+03  0.7818608E-02  0.1098389E+00
          1   -1    0    0  501    0  0.00000000000E+00  0.00000000000E+00  0.18314028942E+04  0.18314028942E+04  0.00000000000E+00 0. -1.
         -1   -1    0    0    0  501 -0.00000000000E+00 -0.00000000000E+00 -0.10331831066E+02  0.10331831066E+02  0.00000000000E+00 0. -1.
         36    2    1    2    0    0  0.71054273576E-14  0.00000000000E+00  0.18210710632E+04  0.18417347253E+04  0.27511267013E+03 0.  0.
         25    2    3    3    0    0  0.31002499170E+02 -0.67409780198E+01  0.12817186259E+04  0.12879562479E+04  0.12256453327E+03 0.  0.
         25    2    3    3    0    0 -0.31002499170E+02  0.67409780198E+01  0.53935243724E+03  0.55377847736E+03  0.12150289993E+03 0.  0.
          5    1    4    4  502    0 -0.30397815728E+02 -0.30248865039E+02  0.21978455406E+03  0.22397848388E+03  0.47000000000E+01 0. -1.
         -5    1    4    4    0  502  0.61400314898E+02  0.23507887019E+02  0.10619340719E+04  0.10639777640E+04  0.47000000000E+01 0. -1.
          5    1    5    5  503    0 -0.69847093097E+02 -0.24321860670E+02  0.36290303326E+03  0.37039286018E+03  0.47000000000E+01 0.  1.
         -5    1    5    5    0  503  0.38844593927E+02  0.31062838690E+02  0.17644940397E+03  0.18338561718E+03  0.47000000000E+01 0.  1.
<mgrwt>
<rscale>  0 0.27511267E+03</rscale>
<asrwt>0</asrwt>
<pdfrwt beam="1">  1        1 0.28175403E+00 0.27511267E+03</pdfrwt>
<pdfrwt beam="2">  1       -1 0.15895139E-02 0.27511267E+03</pdfrwt>
<totfact> 0.41640484E+03</totfact>
</mgrwt>
</event>
<event>
 9    1  0.2073852E-002  0.2753596E+03  0.7818608E-02  0.1098251E+00
          2   -1    0    0  501    0  0.00000000000E+00  0.00000000000E+00  0.88827452737E+02  0.88827452737E+02  0.00000000000E+00 0.  1.
         -2   -1    0    0    0  501 -0.00000000000E+00 -0.00000000000E+00 -0.21339936050E+03  0.21339936050E+03  0.00000000000E+00 0.  1.
         36    2    1    2    0    0 -0.35527136788E-14  0.35527136788E-14 -0.12457190776E+03  0.30222681324E+03  0.27535955846E+03 0.  0.
         25    2    3    3    0    0 -0.27929997633E+02  0.93043037266E+01 -0.83375478329E+01  0.12801969539E+03  0.12430958478E+03 0.  0.
         25    2    3    3    0    0  0.27929997633E+02 -0.93043037266E+01 -0.11623435993E+03  0.17420711785E+03  0.12637657475E+03 0.  0.
          5    1    4    4  502    0 -0.56802478038E+02 -0.13510110007E+02 -0.46506550818E+02  0.74793006710E+02  0.47000000000E+01 0.  1.
         -5    1    4    4    0  502  0.28872480406E+02  0.22814413734E+02  0.38169002985E+02  0.53226688678E+02  0.47000000000E+01 0.  1.
          5    1    5    5  503    0 -0.35133602047E+02 -0.44659809014E+02 -0.57020570808E+02  0.80636865200E+02  0.47000000000E+01 0.  1.
         -5    1    5    5    0  503  0.63063599679E+02  0.35355505288E+02 -0.59213789121E+02  0.93570252649E+02  0.47000000000E+01 0.  1.
<mgrwt>
<rscale>  0 0.27535956E+03</rscale>
<asrwt>0</asrwt>
<pdfrwt beam="1">  1        2 0.13665762E-01 0.27535956E+03</pdfrwt>
<pdfrwt beam="2">  1       -2 0.32830671E-01 0.27535956E+03</pdfrwt>
<totfact> 0.37554888E+03</totfact>
</mgrwt>
</event>
<event>
 9    1  0.2073852E-002  0.2750510E+03  0.7818608E-02  0.1098423E+00
          2   -1    0    0  501    0  0.00000000000E+00  0.00000000000E+00  0.10108865658E+04  0.10108865658E+04  0.00000000000E+00 0. -1.
         -2   -1    0    0    0  501 -0.00000000000E+00 -0.00000000000E+00 -0.18709582421E+02  0.18709582421E+02  0.00000000000E+00 0. -1.
         36    2    1    2    0    0  0.00000000000E+00 -0.35527136788E-14  0.99217698334E+03  0.10295961482E+04  0.27505101724E+03 0.  0.
         25    2    3    3    0    0  0.39995601397E+02  0.29450915793E+02  0.40632564342E+03  0.42868643105E+03  0.12729698779E+03 0.  0.
         25    2    3    3    0    0 -0.39995601397E+02 -0.29450915793E+02  0.58585133993E+03  0.60090971713E+03  0.12411160734E+03 0.  0.
          5    1    4    4  502    0  0.58132449220E+02  0.59464610223E+02  0.36453523842E+03  0.37392974149E+03  0.47000000000E+01 0.  1.
         -5    1    4    4    0  502 -0.18136847823E+02 -0.30013694429E+02  0.41790404998E+02  0.54756689565E+02  0.47000000000E+01 0.  1.
          5    1    5    5  503    0 -0.36805170730E+02 -0.19374510877E+02  0.51197119489E+02  0.66130381128E+02  0.47000000000E+01 0.  1.
         -5    1    5    5    0  503 -0.31904306665E+01 -0.10076404917E+02  0.53465422044E+03  0.53477933600E+03  0.47000000000E+01 0.  1.
<mgrwt>
<rscale>  0 0.27505102E+03</rscale>
<asrwt>0</asrwt>
<pdfrwt beam="1">  1        2 0.15552097E+00 0.27505102E+03</pdfrwt>
<pdfrwt beam="2">  1       -2 0.28783981E-02 0.27505102E+03</pdfrwt>
<totfact> 0.11620666E+04</totfact>
</mgrwt>
</event>
<event>
 9    1  0.2073852E-002  0.2748705E+03  0.7818608E-02  0.1098524E+00
         -1   -1    0    0    0  501 -0.00000000000E+00  0.00000000000E+00  0.88800310754E+03  0.88800310754E+03  0.00000000000E+00 0. -1.
          1   -1    0    0  501    0  0.00000000000E+00 -0.00000000000E+00 -0.21270697332E+02  0.21270697332E+02  0.00000000000E+00 0. -1.
         36    2    1    2    0    0 -0.71054273576E-14  0.00000000000E+00  0.86673241021E+03  0.90927380488E+03  0.27487048100E+03 0.  0.
         25    2    3    3    0    0  0.68659886476E+01 -0.37125734767E+02  0.47912224750E+03  0.50043355077E+03  0.13946378993E+03 0.  0.
         25    2    3    3    0    0 -0.68659886476E+01  0.37125734767E+02  0.38761016271E+03  0.40884025411E+03  0.12443172088E+03 0.  0.
          5    1    4    4  502    0  0.49358519772E+02 -0.66528686949E+02  0.37536293439E+03  0.38442392248E+03  0.47000000000E+01 0.  1.
         -5    1    4    4    0  502 -0.42492531124E+02  0.29402952182E+02  0.10375931311E+03  0.11600962829E+03  0.47000000000E+01 0.  1.
          5    1    5    5  503    0  0.50025094437E+02 -0.10932463342E+02  0.11083462905E+03  0.12218197013E+03  0.47000000000E+01 0.  1.
         -5    1    5    5    0  503 -0.56891083084E+02  0.48058198109E+02  0.27677553366E+03  0.28665828398E+03  0.47000000000E+01 0.  1.
<mgrwt>
<rscale>  0 0.27487048E+03</rscale>
<asrwt>0</asrwt>
<pdfrwt beam="1">  1        1 0.32724157E-02 0.27487048E+03</pdfrwt>
<pdfrwt beam="2">  1       -1 0.13661583E+00 0.27487048E+03</pdfrwt>
<totfact> 0.14498887E+03</totfact>
</mgrwt>
</event>
<event>
 9    1  0.2073852E-002  0.2739705E+03  0.7818608E-02  0.1099028E+00
          3   -1    0    0  501    0  0.00000000000E+00  0.00000000000E+00  0.20025053037E+02  0.20025053037E+02  0.00000000000E+00 0. -1.
         -3   -1    0    0    0  501 -0.00000000000E+00 -0.00000000000E+00 -0.93707402312E+03  0.93707402312E+03  0.00000000000E+00 0. -1.
         36    2    1    2    0    0 -0.35527136788E-14  0.35527136788E-14 -0.91704897009E+03  0.95709907616E+03  0.27397048755E+03 0.  0.
         25    2    3    3    0    0 -0.10204069149E+02  0.22660625629E+02 -0.28271302621E+03  0.31110054559E+03  0.12743338377E+03 0.  0.
         25    2    3    3    0    0  0.10204069149E+02 -0.22660625629E+02 -0.63433594388E+03  0.64599853057E+03  0.11964273827E+03 0.  0.
          5    1    4    4  502    0 -0.14882233506E+02 -0.45777838490E+02 -0.18761542921E+03  0.19374914360E+03  0.47000000000E+01 0.  1.
         -5    1    4    4    0  502  0.46781643573E+01  0.68438464119E+02 -0.95097597002E+02  0.11735140199E+03  0.47000000000E+01 0.  1.
          5    1    5    5  503    0 -0.28215496450E+02 -0.45154625871E+02 -0.52695936180E+03  0.52966339638E+03  0.47000000000E+01 0.  1.
         -5    1    5    5    0  503  0.38419565599E+02  0.22494000242E+02 -0.10737658208E+03  0.11633513419E+03  0.47000000000E+01 0.  1.
<mgrwt>
<rscale>  0 0.27397049E+03</rscale>
<asrwt>0</asrwt>
<pdfrwt beam="1">  1        3 0.30807773E-02 0.27397049E+03</pdfrwt>
<pdfrwt beam="2">  1       -3 0.14416524E+00 0.27397049E+03</pdfrwt>
<totfact> 0.46809481E+02</totfact>
</mgrwt>
</event>
<event>
 9    1  0.2073852E-002  0.2713127E+03  0.7818608E-02  0.1100531E+00
          1   -1    0    0  501    0  0.00000000000E+00  0.00000000000E+00  0.24434229443E+03  0.24434229443E+03  0.00000000000E+00 0. -1.
         -1   -1    0    0    0  501 -0.00000000000E+00 -0.00000000000E+00 -0.75315041076E+02  0.75315041076E+02  0.00000000000E+00 0. -1.
         36    2    1    2    0    0  0.00000000000E+00  0.00000000000E+00  0.16902725335E+03  0.31965733550E+03  0.27131273425E+03 0.  0.
         25    2    3    3    0    0 -0.24295530880E+02  0.51910796407E+02  0.11633851096E+03  0.18095979899E+03  0.12620141090E+03 0.  0.
         25    2    3    3    0    0  0.24295530880E+02 -0.51910796407E+02  0.52688742390E+02  0.13869753651E+03  0.11478632086E+03 0.  0.
          5    1    4    4  502    0 -0.31323729278E+02  0.84601430811E+01 -0.19462490042E+02  0.38126481026E+02  0.47000000000E+01 0. -1.
         -5    1    4    4    0  502  0.70281983972E+01  0.43450653326E+02  0.13580100100E+03  0.14283331796E+03  0.47000000000E+01 0. -1.
          5    1    5    5  503    0  0.14463620921E+01 -0.47230323395E+02 -0.27623047887E+02  0.54935582147E+02  0.47000000000E+01 0. -1.
         -5    1    5    5    0  503  0.22849168788E+02 -0.46804730119E+01  0.80311790276E+02  0.83761954367E+02  0.47000000000E+01 0. -1.
<mgrwt>
<rscale>  0 0.27131273E+03</rscale>
<asrwt>0</asrwt>
<pdfrwt beam="1">  1        1 0.37591122E-01 0.27131273E+03</pdfrwt>
<pdfrwt beam="2">  1       -1 0.11586930E-01 0.27131273E+03</pdfrwt>
<totfact> 0.54613474E+03</totfact>
</mgrwt>
</event>
<event>
 9    1  0.2073852E-002  0.2749356E+03  0.7818608E-02  0.1098488E+00
         -2   -1    0    0    0  501 -0.00000000000E+00  0.00000000000E+00  0.44403917715E+02  0.44403917715E+02  0.00000000000E+00 0. -1.
          2   -1    0    0  501    0  0.00000000000E+00 -0.00000000000E+00 -0.42557957084E+03  0.42557957084E+03  0.00000000000E+00 0. -1.
         36    2    1    2    0    0  0.00000000000E+00  0.00000000000E+00 -0.38117565312E+03  0.46998348855E+03  0.27493563061E+03 0.  0.
         25    2    3    3    0    0  0.31546354630E+00  0.56476467949E+02 -0.22891850954E+03  0.26648887977E+03  0.12418916251E+03 0.  0.
         25    2    3    3    0    0 -0.31546354630E+00 -0.56476467949E+02 -0.15225714358E+03  0.20349460878E+03  0.12263004151E+03 0.  0.
          5    1    4    4  502    0 -0.26498903961E+02  0.79378816829E+02 -0.21018836384E+03  0.22628395163E+03  0.47000000000E+01 0.  1.
         -5    1    4    4    0  502  0.26814367507E+02 -0.22902348880E+02 -0.18730145698E+02  0.40204928142E+02  0.47000000000E+01 0.  1.
          5    1    5    5  503    0 -0.24601140157E+02 -0.88845054877E+02 -0.12076570812E+03  0.15200363854E+03  0.47000000000E+01 0.  1.
         -5    1    5    5    0  503  0.24285676610E+02  0.32368586928E+02 -0.31491435467E+02  0.51490970237E+02  0.47000000000E+01 0.  1.
<mgrwt>
<rscale>  0 0.27493563E+03</rscale>
<asrwt>0</asrwt>
<pdfrwt beam="1">  1        2 0.65473780E-01 0.27493563E+03</pdfrwt>
<pdfrwt beam="2">  1       -2 0.68313720E-02 0.27493563E+03</pdfrwt>
<totfact> 0.89659226E+03</totfact>
</mgrwt>
</event>
<event>
 9    1  0.2073852E-002  0.2748557E+03  0.7818608E-02  0.1098532E+00
         -1   -1    0    0    0  501 -0.00000000000E+00  0.00000000000E+00  0.32478920320E+02  0.32478920320E+02  0.00000000000E+00 0. -1.
          1   -1    0    0  501    0  0.00000000000E+00 -0.00000000000E+00 -0.58149777625E+03  0.58149777625E+03  0.00000000000E+00 0. -1.
         36    2    1    2    0    0  0.71054273576E-14 -0.71054273576E-14 -0.54901885593E+03  0.61397669657E+03  0.27485574355E+03 0.  0.
         25    2    3    3    0    0 -0.52281122610E+02  0.23755232577E+02 -0.23483211031E+03  0.27129315474E+03  0.12311063691E+03 0.  0.
         25    2    3    3    0    0  0.52281122610E+02 -0.23755232577E+02 -0.31418674561E+03  0.34268354183E+03  0.12418160839E+03 0.  0.
          5    1    4    4  502    0 -0.25283547760E+02 -0.35128088939E+02 -0.22012837795E+02  0.48784172102E+02  0.47000000000E+01 0. -1.
         -5    1    4    4    0  502 -0.26997574850E+02  0.58883321516E+02 -0.21281927252E+03  0.22250898264E+03  0.47000000000E+01 0. -1.
          5    1    5    5  503    0  0.29126391372E+02 -0.73241563400E+02 -0.14894871751E+03  0.16858375880E+03  0.47000000000E+01 0.  1.
         -5    1    5    5    0  503  0.23154731237E+02  0.49486330824E+02 -0.16523802810E+03  0.17409978302E+03  0.47000000000E+01 0.  1.
<mgrwt>
<rscale>  0 0.27485574E+03</rscale>
<asrwt>0</asrwt>
<pdfrwt beam="1">  1        1 0.89461201E-01 0.27485574E+03</pdfrwt>
<pdfrwt beam="2">  1       -1 0.49967567E-02 0.27485574E+03</pdfrwt>
<totfact> 0.64478272E+03</totfact>
</mgrwt>
</event>
<event>
 9    1  0.2073852E-002  0.2757587E+03  0.7818608E-02  0.1098028E+00
          2   -1    0    0  501    0  0.00000000000E+00  0.00000000000E+00  0.33693724257E+02  0.33693724257E+02  0.00000000000E+00 0.  1.
         -2   -1    0    0    0  501 -0.00000000000E+00 -0.00000000000E+00 -0.56422121320E+03  0.56422121320E+03  0.00000000000E+00 0.  1.
         36    2    1    2    0    0  0.00000000000E+00 -0.71054273576E-14 -0.53052748894E+03  0.59791493745E+03  0.27575869145E+03 0.  0.
         25    2    3    3    0    0 -0.76976600050E+01 -0.50778848131E+02 -0.26656346259E+03  0.29862400983E+03  0.12442859106E+03 0.  0.
         25    2    3    3    0    0  0.76976600050E+01  0.50778848131E+02 -0.26396402635E+03  0.29929092762E+03  0.13137848669E+03 0.  0.
          5    1    4    4  502    0 -0.39874936617E+02 -0.33533598105E+02 -0.25460204248E+03  0.25992076255E+03  0.47000000000E+01 0. -1.
         -5    1    4    4    0  502  0.32177276612E+02 -0.17245250026E+02 -0.11961420108E+02  0.38703247275E+02  0.47000000000E+01 0. -1.
          5    1    5    5  503    0  0.88175675455E+01  0.10717694583E+02  0.12887632473E+02  0.19514085819E+02  0.47000000000E+01 0. -1.
         -5    1    5    5    0  503 -0.11199075405E+01  0.40061153548E+02 -0.27685165883E+03  0.27977684181E+03  0.47000000000E+01 0. -1.
<mgrwt>
<rscale>  0 0.27575869E+03</rscale>
<asrwt>0</asrwt>
<pdfrwt beam="1">  1        2 0.51836504E-02 0.27575869E+03</pdfrwt>
<pdfrwt beam="2">  1       -2 0.86803255E-01 0.27575869E+03</pdfrwt>
<totfact> 0.17757596E+03</totfact>
</mgrwt>
</event>
<event>
 9    1  0.2073852E-002  0.2749412E+03  0.7818608E-02  0.1098484E+00
         -2   -1    0    0    0  501 -0.00000000000E+00  0.00000000000E+00  0.24684557281E+02  0.24684557281E+02  0.00000000000E+00 0.  1.
          2   -1    0    0  501    0  0.00000000000E+00 -0.00000000000E+00 -0.76558631288E+03  0.76558631288E+03  0.00000000000E+00 0.  1.
         36    2    1    2    0    0  0.35527136788E-14  0.17763568394E-14 -0.74090175560E+03  0.79027087016E+03  0.27494115147E+03 0.  0.
         25    2    3    3    0    0  0.14762788695E+00  0.86826557354E+01 -0.20642511694E+03  0.24106877563E+03  0.12420714704E+03 0.  0.
         25    2    3    3    0    0 -0.14762788695E+00 -0.86826557354E+01 -0.53447663866E+03  0.54920209453E+03  0.12602481128E+03 0.  0.
          5    1    4    4  502    0 -0.49874273827E+02 -0.68533392708E+01 -0.16931704812E+03  0.17670530336E+03  0.47000000000E+01 0.  1.
         -5    1    4    4    0  502  0.50021901714E+02  0.15535995006E+02 -0.37108068812E+02  0.64363472272E+02  0.47000000000E+01 0.  1.
          5    1    5    5  503    0  0.85243652691E+01 -0.24057867461E+02 -0.52968029724E+03  0.53031571076E+03  0.47000000000E+01 0.  1.
         -5    1    5    5    0  503 -0.86719931561E+01  0.15375211726E+02 -0.47963414168E+01  0.18886383770E+02  0.47000000000E+01 0.  1.
<mgrwt>
<rscale>  0 0.27494115E+03</rscale>
<asrwt>0</asrwt>
<pdfrwt beam="1">  1        2 0.11778249E+00 0.27494115E+03</pdfrwt>
<pdfrwt beam="2">  1       -2 0.37976250E-02 0.27494115E+03</pdfrwt>
<totfact> 0.11112609E+04</totfact>
</mgrwt>
</event>
<event>
 9    1  0.2073852E-002  0.2742953E+03  0.7818608E-02  0.1098846E+00
          2   -1    0    0  501    0  0.00000000000E+00  0.00000000000E+00  0.52691920682E+03  0.52691920682E+03  0.00000000000E+00 0. -1.
         -2   -1    0    0    0  501 -0.00000000000E+00 -0.00000000000E+00 -0.35697092008E+02  0.35697092008E+02  0.00000000000E+00 0. -1.
         36    2    1    2    0    0  0.00000000000E+00 -0.71054273576E-14  0.49122211482E+03  0.56261629883E+03  0.27429534015E+03 0.  0.
         25    2    3    3    0    0 -0.37876427685E+02  0.15748559568E+02  0.32711377992E+03  0.35209376197E+03  0.12362827874E+03 0.  0.
         25    2    3    3    0    0  0.37876427685E+02 -0.15748559568E+02  0.16410833490E+03  0.21052253686E+03  0.12532179396E+03 0.  0.
          5    1    4    4  502    0 -0.15858868043E+01 -0.33446236228E+02  0.20785849019E+02  0.39690140769E+02  0.47000000000E+01 0. -1.
         -5    1    4    4    0  502 -0.36290540881E+02  0.49194795796E+02  0.30632793090E+03  0.31240362120E+03  0.47000000000E+01 0. -1.
          5    1    5    5  503    0 -0.43291913820E+02  0.12595582608E+01  0.30433158814E+02  0.53141729786E+02  0.47000000000E+01 0. -1.
         -5    1    5    5    0  503  0.81168341505E+02 -0.17008117829E+02  0.13367517608E+03  0.15738080707E+03  0.47000000000E+01 0. -1.
<mgrwt>
<rscale>  0 0.27429534E+03</rscale>
<asrwt>0</asrwt>
<pdfrwt beam="1">  1        2 0.81064488E-01 0.27429534E+03</pdfrwt>
<pdfrwt beam="2">  1       -2 0.54918607E-02 0.27429534E+03</pdfrwt>
<totfact> 0.98904116E+03</totfact>
</mgrwt>
</event>
<event>
 9    1  0.2073852E-002  0.2750612E+03  0.7818608E-02  0.1098417E+00
         -2   -1    0    0    0  501 -0.00000000000E+00  0.00000000000E+00  0.12592940460E+02  0.12592940460E+02  0.00000000000E+00 0.  1.
          2   -1    0    0  501    0  0.00000000000E+00 -0.00000000000E+00 -0.15020052674E+04  0.15020052674E+04  0.00000000000E+00 0.  1.
         36    2    1    2    0    0 -0.35527136788E-14 -0.71054273576E-14 -0.14894123270E+04  0.15145982079E+04  0.27506117795E+03 0.  0.
         25    2    3    3    0    0 -0.23023313891E+02  0.41405989542E+02 -0.78589392057E+03  0.79792171440E+03  0.12963517647E+03 0.  0.
         25    2    3    3    0    0  0.23023313891E+02 -0.41405989542E+02 -0.70351840641E+03  0.71667649349E+03  0.12822838694E+03 0.  0.
          5    1    4    4  502    0  0.42375512136E+02  0.58883215838E+01 -0.11317916103E+03  0.12108661715E+03  0.47000000000E+01 0.  1.
         -5    1    4    4    0  502 -0.65398826027E+02  0.35517667958E+02 -0.67271475953E+03  0.67683509726E+03  0.47000000000E+01 0.  1.
          5    1    5    5  503    0  0.53680698820E+02 -0.57350652926E+02 -0.25651221954E+03  0.26831198928E+03  0.47000000000E+01 0. -1.
         -5    1    5    5    0  503 -0.30657384929E+02  0.15944663384E+02 -0.44700618687E+03  0.44836450422E+03  0.47000000000E+01 0. -1.
<mgrwt>
<rscale>  0 0.27506118E+03</rscale>
<asrwt>0</asrwt>
<pdfrwt beam="1">  1        2 0.23107768E+00 0.27506118E+03</pdfrwt>
<pdfrwt beam="2">  1       -2 0.19373759E-02 0.27506118E+03</pdfrwt>
<totfact> 0.11026383E+04</totfact>
</mgrwt>
</event>
<event>
 9    1  0.2073852E-002  0.2768536E+03  0.7818608E-02  0.1097420E+00
          2   -1    0    0  501    0  0.00000000000E+00  0.00000000000E+00  0.19399124972E+04  0.19399124972E+04  0.00000000000E+00 0.  1.
         -2   -1    0    0    0  501 -0.00000000000E+00 -0.00000000000E+00 -0.98777566171E+01  0.98777566171E+01  0.00000000000E+00 0.  1.
         36    2    1    2    0    0  0.35527136788E-14  0.00000000000E+00  0.19300347406E+04  0.19497902538E+04  0.27685363285E+03 0.  0.
         25    2    3    3    0    0 -0.11563463130E+02 -0.45911250948E+02  0.78567868680E+03  0.79716005586E+03  0.12622043860E+03 0.  0.
         25    2    3    3    0    0  0.11563463130E+02  0.45911250948E+02  0.11443560538E+04  0.11526301979E+04  0.12947601621E+03 0.  0.
          5    1    4    4  502    0  0.31272450447E+02 -0.75755153917E+02  0.50499179498E+03  0.51162057475E+03  0.47000000000E+01 0. -1.
         -5    1    4    4    0  502 -0.42835913577E+02  0.29843902969E+02  0.28068689182E+03  0.28553948112E+03  0.47000000000E+01 0. -1.
          5    1    5    5  503    0  0.48566934585E+02  0.46406501746E+02  0.30060113870E+03  0.30805104306E+03  0.47000000000E+01 0. -1.
         -5    1    5    5    0  503 -0.37003471455E+02 -0.49525079838E+00  0.84375491505E+03  0.84457915487E+03  0.47000000000E+01 0. -1.
<mgrwt>
<rscale>  0 0.27685363E+03</rscale>
<asrwt>0</asrwt>
<pdfrwt beam="1">  1        2 0.29844777E+00 0.27685363E+03</pdfrwt>
<pdfrwt beam="2">  1       -2 0.15196564E-02 0.27685363E+03</pdfrwt>
<totfact> 0.92497576E+03</totfact>
</mgrwt>
</event>
<event>
 9    1  0.2073852E-002  0.2744520E+03  0.7818608E-02  0.1098758E+00
         -1   -1    0    0    0  501 -0.00000000000E+00  0.00000000000E+00  0.27487407476E+02  0.27487407476E+02  0.00000000000E+00 0. -1.
          1   -1    0    0  501    0  0.00000000000E+00 -0.00000000000E+00 -0.68507644778E+03  0.68507644778E+03  0.00000000000E+00 0. -1.
         36    2    1    2    0    0  0.00000000000E+00  0.00000000000E+00 -0.65758904030E+03  0.71256385526E+03  0.27445200289E+03 0.  0.
         25    2    3    3    0    0 -0.14680033322E+02  0.17411557530E+02 -0.54834652355E+03  0.56249743068E+03  0.12329145924E+03 0.  0.
         25    2    3    3    0    0  0.14680033322E+02 -0.17411557530E+02 -0.10924251675E+03  0.15006642457E+03  0.10033612811E+03 0.  0.
          5    1    4    4  502    0 -0.59551842221E+02  0.35161824278E+02 -0.22202942383E+03  0.23259821763E+03  0.47000000000E+01 0.  1.
         -5    1    4    4    0  502  0.44871808899E+02 -0.17750266748E+02 -0.32631709972E+03  0.32989921306E+03  0.47000000000E+01 0.  1.
          5    1    5    5  503    0  0.92709952659E+01  0.15323078643E+02  0.13446607611E+02  0.22883385863E+02  0.47000000000E+01 0. -1.
         -5    1    5    5    0  503  0.54090380558E+01 -0.32734636172E+02 -0.12268912437E+03  0.12718303871E+03  0.47000000000E+01 0. -1.
<mgrwt>
<rscale>  0 0.27445200E+03</rscale>
<asrwt>0</asrwt>
<pdfrwt beam="1">  1        1 0.10539637E+00 0.27445200E+03</pdfrwt>
<pdfrwt beam="2">  1       -1 0.42288324E-02 0.27445200E+03</pdfrwt>
<totfact> 0.65647991E+03</totfact>
</mgrwt>
</event>
<event>
 9    1  0.2073852E-002  0.2751293E+03  0.7818608E-02  0.1098379E+00
          2   -1    0    0  501    0  0.00000000000E+00  0.00000000000E+00  0.22963923729E+02  0.22963923729E+02  0.00000000000E+00 0.  1.
         -2   -1    0    0    0  501 -0.00000000000E+00 -0.00000000000E+00 -0.82407689063E+03  0.82407689063E+03  0.00000000000E+00 0.  1.
         36    2    1    2    0    0  0.00000000000E+00  0.00000000000E+00 -0.80111296690E+03  0.84704081436E+03  0.27512934314E+03 0.  0.
         25    2    3    3    0    0 -0.53471017455E+02 -0.25572200610E+02 -0.53457676332E+03  0.54691556543E+03  0.99152572675E+02 0.  0.
         25    2    3    3    0    0  0.53471017455E+02  0.25572200610E+02 -0.26653620358E+03  0.30012524893E+03  0.12458141947E+03 0.  0.
          5    1    4    4  502    0 -0.15465731372E+02  0.30430826479E+02 -0.32046556907E+03  0.32231272858E+03  0.47000000000E+01 0. -1.
         -5    1    4    4    0  502 -0.38005286083E+02 -0.56003027089E+02 -0.21411119425E+03  0.22460283684E+03  0.47000000000E+01 0. -1.
          5    1    5    5  503    0  0.32352009502E+02  0.70858859208E+02 -0.21250317663E+03  0.22637871040E+03  0.47000000000E+01 0. -1.
         -5    1    5    5    0  503  0.21119007952E+02 -0.45286658598E+02 -0.54033026950E+02  0.73746538531E+02  0.47000000000E+01 0. -1.
<mgrwt>
<rscale>  0 0.27512934E+03</rscale>
<asrwt>0</asrwt>
<pdfrwt beam="1">  1        2 0.35329113E-02 0.27512934E+03</pdfrwt>
<pdfrwt beam="2">  1       -2 0.12678106E+00 0.27512934E+03</pdfrwt>
<totfact> 0.12164277E+03</totfact>
</mgrwt>
</event>
<event>
 9    1  0.2073852E-002  0.2750676E+03  0.7818608E-02  0.1098414E+00
         -2   -1    0    0    0  501 -0.00000000000E+00  0.00000000000E+00  0.65982146110E+03  0.65982146110E+03  0.00000000000E+00 0.  1.
          2   -1    0    0  501    0  0.00000000000E+00 -0.00000000000E+00 -0.28667680321E+02  0.28667680321E+02  0.00000000000E+00 0.  1.
         36    2    1    2    0    0 -0.35527136788E-14  0.00000000000E+00  0.63115378078E+03  0.68848914142E+03  0.27506763325E+03 0.  0.
         25    2    3    3    0    0  0.22256698556E+02  0.88675421577E+01  0.21160265089E+03  0.24953649180E+03  0.13007222971E+03 0.  0.
         25    2    3    3    0    0 -0.22256698556E+02 -0.88675421577E+01  0.41955112989E+03  0.43895264962E+03  0.12681594569E+03 0.  0.
          5    1    4    4  502    0  0.21701210015E+01  0.66277734355E+02  0.76823446942E+02  0.10159419027E+03  0.47000000000E+01 0. -1.
         -5    1    4    4    0  502  0.20086577555E+02 -0.57410192197E+02  0.13477920395E+03  0.14794230153E+03  0.47000000000E+01 0. -1.
          5    1    5    5  503    0  0.29833892441E+02 -0.48801739206E+02  0.26198363152E+03  0.26819616715E+03  0.47000000000E+01 0. -1.
         -5    1    5    5    0  503 -0.52090590997E+02  0.39934197048E+02  0.15756749837E+03  0.17075648247E+03  0.47000000000E+01 0. -1.
<mgrwt>
<rscale>  0 0.27506763E+03</rscale>
<asrwt>0</asrwt>
<pdfrwt beam="1">  1        2 0.44104129E-02 0.27506763E+03</pdfrwt>
<pdfrwt beam="2">  1       -2 0.10151098E+00 0.27506763E+03</pdfrwt>
<totfact> 0.15379253E+03</totfact>
</mgrwt>
</event>
<event>
 9    1  0.2073852E-002  0.2743320E+03  0.7818608E-02  0.1098826E+00
         -2   -1    0    0    0  501 -0.00000000000E+00  0.00000000000E+00  0.13256099939E+02  0.13256099939E+02  0.00000000000E+00 0. -1.
          2   -1    0    0  501    0  0.00000000000E+00 -0.00000000000E+00 -0.14193097663E+04  0.14193097663E+04  0.00000000000E+00 0. -1.
         36    2    1    2    0    0  0.00000000000E+00  0.00000000000E+00 -0.14060536664E+04  0.14325658663E+04  0.27433200401E+03 0.  0.
         25    2    3    3    0    0 -0.11666081317E+02  0.59274041924E+01 -0.88733509879E+03  0.89888019088E+03  0.14300625309E+03 0.  0.
         25    2    3    3    0    0  0.11666081317E+02 -0.59274041924E+01 -0.51871856758E+03  0.53368567538E+03  0.12482073616E+03 0.  0.
          5    1    4    4  502    0  0.48483625670E+02 -0.37007722471E+02 -0.25554494332E+03  0.26276518327E+03  0.47000000000E+01 0. -1.
         -5    1    4    4    0  502 -0.60149706987E+02  0.42935126664E+02 -0.63179015547E+03  0.63611500761E+03  0.47000000000E+01 0. -1.
          5    1    5    5  503    0  0.14588235901E+02  0.43443521664E+02 -0.42611007358E+03  0.42859309491E+03  0.47000000000E+01 0. -1.
         -5    1    5    5    0  503 -0.29221545839E+01 -0.49370925856E+02 -0.92608494002E+02  0.10509258046E+03  0.47000000000E+01 0. -1.
<mgrwt>
<rscale>  0 0.27433200E+03</rscale>
<asrwt>0</asrwt>
<pdfrwt beam="1">  1        2 0.21835522E+00 0.27433200E+03</pdfrwt>
<pdfrwt beam="2">  1       -2 0.20394012E-02 0.27433200E+03</pdfrwt>
<totfact> 0.11327102E+04</totfact>
</mgrwt>
</event>
<event>
 9    1  0.2073852E-002  0.2894455E+03  0.7818608E-02  0.1090639E+00
         -2   -1    0    0    0  501 -0.00000000000E+00  0.00000000000E+00  0.93645363150E+02  0.93645363150E+02  0.00000000000E+00 0. -1.
          2   -1    0    0  501    0  0.00000000000E+00 -0.00000000000E+00 -0.22365941888E+03  0.22365941888E+03  0.00000000000E+00 0. -1.
         36    2    1    2    0    0  0.71054273576E-14  0.00000000000E+00 -0.13001405573E+03  0.31730478202E+03  0.28944545256E+03 0.  0.
         25    2    3    3    0    0  0.21957851796E+02 -0.65876169205E+02 -0.72575895178E+02  0.16431159120E+03  0.13003546254E+03 0.  0.
         25    2    3    3    0    0 -0.21957851796E+02  0.65876169205E+02 -0.57438160548E+02  0.15299319082E+03  0.12363639119E+03 0.  0.
          5    1    4    4  502    0 -0.47180530951E+02 -0.19943901987E+02 -0.61912383439E+02  0.80492204283E+02  0.47000000000E+01 0. -1.
         -5    1    4    4    0  502  0.69138382747E+02 -0.45932267218E+02 -0.10663511739E+02  0.83819386918E+02  0.47000000000E+01 0. -1.
          5    1    5    5  503    0 -0.21845123660E+02 -0.33920137498E+02 -0.26121580005E+02  0.48292981866E+02  0.47000000000E+01 0.  1.
         -5    1    5    5    0  503 -0.11272813664E+00  0.99796306702E+02 -0.31316580543E+02  0.10470020896E+03  0.47000000000E+01 0.  1.
<mgrwt>
<rscale>  0 0.28944545E+03</rscale>
<asrwt>0</asrwt>
<pdfrwt beam="1">  1        2 0.34409142E-01 0.28944545E+03</pdfrwt>
<pdfrwt beam="2">  1       -2 0.14406979E-01 0.28944545E+03</pdfrwt>
<totfact> 0.54918785E+03</totfact>
</mgrwt>
</event>
<event>
 9    1  0.2073852E-002  0.2743432E+03  0.7818608E-02  0.1098819E+00
         -2   -1    0    0    0  501 -0.00000000000E+00  0.00000000000E+00  0.42945279093E+02  0.42945279093E+02  0.00000000000E+00 0. -1.
          2   -1    0    0  501    0  0.00000000000E+00 -0.00000000000E+00 -0.43814019252E+03  0.43814019252E+03  0.00000000000E+00 0. -1.
         36    2    1    2    0    0 -0.35527136788E-14  0.71054273576E-14 -0.39519491342E+03  0.48108547161E+03  0.27434323647E+03 0.  0.
         25    2    3    3    0    0  0.18075531662E+02  0.23901022116E+02 -0.12747649470E+03  0.18363175932E+03  0.12873376645E+03 0.  0.
         25    2    3    3    0    0 -0.18075531662E+02 -0.23901022116E+02 -0.26771841872E+03  0.29745371229E+03  0.12612523749E+03 0.  0.
          5    1    4    4  502    0  0.46642389728E+01  0.76707563326E+02 -0.66611415986E+02  0.10180852683E+03  0.47000000000E+01 0.  1.
         -5    1    4    4    0  502  0.13411292689E+02 -0.52806541210E+02 -0.60865078719E+02  0.81823232481E+02  0.47000000000E+01 0.  1.
          5    1    5    5  503    0  0.47697803086E+02  0.87621130482E+01 -0.15800897463E+03  0.16535047961E+03  0.47000000000E+01 0.  1.
         -5    1    5    5    0  503 -0.65773334747E+02 -0.32663135164E+02 -0.10970944409E+03  0.13210323268E+03  0.47000000000E+01 0.  1.
<mgrwt>
<rscale>  0 0.27434324E+03</rscale>
<asrwt>0</asrwt>
<pdfrwt beam="1">  1        2 0.67406185E-01 0.27434324E+03</pdfrwt>
<pdfrwt beam="2">  1       -2 0.66069658E-02 0.27434324E+03</pdfrwt>
<totfact> 0.91437900E+03</totfact>
</mgrwt>
</event>
<event>
 9    1  0.2073852E-002  0.2739390E+03  0.7818608E-02  0.1099046E+00
          1   -1    0    0  501    0  0.00000000000E+00  0.00000000000E+00  0.34759680844E+03  0.34759680844E+03  0.00000000000E+00 0.  1.
         -1   -1    0    0    0  501 -0.00000000000E+00 -0.00000000000E+00 -0.53972444713E+02  0.53972444713E+02  0.00000000000E+00 0.  1.
         36    2    1    2    0    0  0.00000000000E+00  0.00000000000E+00  0.29362436373E+03  0.40156925316E+03  0.27393904086E+03 0.  0.
         25    2    3    3    0    0  0.19099398369E+02  0.36552556603E+02  0.21819169826E+03  0.24981765756E+03  0.11445684090E+03 0.  0.
         25    2    3    3    0    0 -0.19099398369E+02 -0.36552556603E+02  0.75432665472E+02  0.15175159559E+03  0.12505032320E+03 0.  0.
          5    1    4    4  502    0  0.15390883918E+02  0.41250311032E+02  0.23084451030E+03  0.23505264390E+03  0.47000000000E+01 0.  1.
         -5    1    4    4    0  502  0.37085144501E+01 -0.46977544285E+01 -0.12652812039E+02  0.14765013667E+02  0.47000000000E+01 0.  1.
          5    1    5    5  503    0 -0.15555222308E+02 -0.41422308034E+02  0.10878622177E+03  0.11753426986E+03  0.47000000000E+01 0.  1.
         -5    1    5    5    0  503 -0.35441760606E+01  0.48697514310E+01 -0.33353556297E+02  0.34217325738E+02  0.47000000000E+01 0.  1.
<mgrwt>
<rscale>  0 0.27393904E+03</rscale>
<asrwt>0</asrwt>
<pdfrwt beam="1">  1        1 0.53476431E-01 0.27393904E+03</pdfrwt>
<pdfrwt beam="2">  1       -1 0.83034532E-02 0.27393904E+03</pdfrwt>
<totfact> 0.58650899E+03</totfact>
</mgrwt>
</event>
<event>
 9    1  0.2073852E-002  0.2753424E+03  0.7818608E-02  0.1098260E+00
         -2   -1    0    0    0  501 -0.00000000000E+00  0.00000000000E+00  0.85120835254E+03  0.85120835254E+03  0.00000000000E+00 0. -1.
          2   -1    0    0  501    0  0.00000000000E+00 -0.00000000000E+00 -0.22266410715E+02  0.22266410715E+02  0.00000000000E+00 0. -1.
         36    2    1    2    0    0  0.00000000000E+00  0.00000000000E+00  0.82894194183E+03  0.87347476325E+03  0.27534236711E+03 0.  0.
         25    2    3    3    0    0  0.32544562243E+02  0.63610700686E+01  0.57054761816E+03  0.58472341793E+03  0.12360129102E+03 0.  0.
         25    2    3    3    0    0 -0.32544562243E+02 -0.63610700686E+01  0.25839432366E+03  0.28875134532E+03  0.12453955669E+03 0.  0.
          5    1    4    4  502    0  0.77341732737E+01 -0.51507477522E+02  0.38922578145E+03  0.39272335889E+03  0.47000000000E+01 0. -1.
         -5    1    4    4    0  502  0.24810388970E+02  0.57868547590E+02  0.18132183672E+03  0.19200005904E+03  0.47000000000E+01 0. -1.
          5    1    5    5  503    0 -0.70992565712E+02 -0.36094435611E+02  0.16919674263E+03  0.18706250395E+03  0.47000000000E+01 0.  1.
         -5    1    5    5    0  503  0.38448003468E+02  0.29733365542E+02  0.89197581036E+02  0.10168884137E+03  0.47000000000E+01 0.  1.
<mgrwt>
<rscale>  0 0.27534237E+03</rscale>
<asrwt>0</asrwt>
<pdfrwt beam="1">  1        2 0.34256023E-02 0.27534237E+03</pdfrwt>
<pdfrwt beam="2">  1       -2 0.13095511E+00 0.27534237E+03</pdfrwt>
<totfact> 0.11706609E+03</totfact>
</mgrwt>
</event>
<event>
 9    1  0.2073852E-002  0.2754577E+03  0.7818608E-02  0.1098196E+00
         -3   -1    0    0    0  501 -0.00000000000E+00  0.00000000000E+00  0.77005140746E+02  0.77005140746E+02  0.00000000000E+00 0.  1.
          3   -1    0    0  501    0  0.00000000000E+00 -0.00000000000E+00 -0.24633732642E+03  0.24633732642E+03  0.00000000000E+00 0.  1.
         36    2    1    2    0    0  0.14210854715E-13  0.00000000000E+00 -0.16933218568E+03  0.32334246717E+03  0.27545773173E+03 0.  0.
         25    2    3    3    0    0 -0.55120675956E+02 -0.43943079129E+01 -0.11907492129E+03  0.18088691757E+03  0.12443328014E+03 0.  0.
         25    2    3    3    0    0  0.55120675956E+02  0.43943079129E+01 -0.50257264388E+02  0.14245554960E+03  0.12128558087E+03 0.  0.
          5    1    4    4  502    0  0.34445043479E+02  0.20629342363E+02 -0.53248188431E+02  0.66854247119E+02  0.47000000000E+01 0.  1.
         -5    1    4    4    0  502 -0.89565719435E+02 -0.25023650276E+02 -0.65826732856E+02  0.11403267045E+03  0.47000000000E+01 0.  1.
          5    1    5    5  503    0  0.86286673867E+02 -0.17497519720E+02 -0.54802370873E+02  0.10381205680E+03  0.47000000000E+01 0. -1.
         -5    1    5    5    0  503 -0.31165997911E+02  0.21891827633E+02  0.45451064850E+01  0.38643492801E+02  0.47000000000E+01 0. -1.
<mgrwt>
<rscale>  0 0.27545773E+03</rscale>
<asrwt>0</asrwt>
<pdfrwt beam="1">  1        3 0.37898051E-01 0.27545773E+03</pdfrwt>
<pdfrwt beam="2">  1       -3 0.11846945E-01 0.27545773E+03</pdfrwt>
<totfact> 0.97376580E+02</totfact>
</mgrwt>
</event>
<event>
 9    1  0.2073852E-002  0.2738775E+03  0.7818608E-02  0.1099081E+00
          2   -1    0    0  501    0  0.00000000000E+00  0.00000000000E+00  0.21413236162E+02  0.21413236162E+02  0.00000000000E+00 0.  1.
         -2   -1    0    0    0  501 -0.00000000000E+00 -0.00000000000E+00 -0.87573061557E+03  0.87573061557E+03  0.00000000000E+00 0.  1.
         36    2    1    2    0    0  0.00000000000E+00  0.00000000000E+00 -0.85431737941E+03  0.89714385173E+03  0.27387753822E+03 0.  0.
         25    2    3    3    0    0 -0.30551364945E+02 -0.49341065199E+02 -0.50865656602E+03  0.52617837543E+03  0.12150824664E+03 0.  0.
         25    2    3    3    0    0  0.30551364945E+02  0.49341065199E+02 -0.34566081339E+03  0.37096547630E+03  0.12151567833E+03 0.  0.
          5    1    4    4  502    0 -0.74277261200E+02 -0.51440767478E+02 -0.35379376014E+03  0.36517855742E+03  0.47000000000E+01 0.  1.
         -5    1    4    4    0  502  0.43725896254E+02  0.20997022796E+01 -0.15486280588E+03  0.16099981801E+03  0.47000000000E+01 0.  1.
          5    1    5    5  503    0 -0.16014206064E+02  0.51581052420E+02 -0.57529926324E+02  0.79049618515E+02  0.47000000000E+01 0. -1.
         -5    1    5    5    0  503  0.46565571009E+02 -0.22399872211E+01 -0.28813088706E+03  0.29191585779E+03  0.47000000000E+01 0. -1.
<mgrwt>
<rscale>  0 0.27387754E+03</rscale>
<asrwt>0</asrwt>
<pdfrwt beam="1">  1        2 0.32943450E-02 0.27387754E+03</pdfrwt>
<pdfrwt beam="2">  1       -2 0.13472775E+00 0.27387754E+03</pdfrwt>
<totfact> 0.11499005E+03</totfact>
</mgrwt>
</event>
<event>
 9    1  0.2073852E-002  0.2747900E+03  0.7818608E-02  0.1098569E+00
         -2   -1    0    0    0  501 -0.00000000000E+00  0.00000000000E+00  0.17887523474E+02  0.17887523474E+02  0.00000000000E+00 0.  1.
          2   -1    0    0  501    0  0.00000000000E+00 -0.00000000000E+00 -0.10553384747E+04  0.10553384747E+04  0.00000000000E+00 0.  1.
         36    2    1    2    0    0  0.14210854715E-13  0.35527136788E-14 -0.10374509513E+04  0.10732259982E+04  0.27479004159E+03 0.  0.
         25    2    3    3    0    0  0.56527550224E+02 -0.62943144366E+01 -0.55256446022E+03  0.56860032767E+03  0.12142432871E+03 0.  0.
         25    2    3    3    0    0 -0.56527550224E+02  0.62943144366E+01 -0.48488649105E+03  0.50462567055E+03  0.12766039261E+03 0.  0.
          5    1    4    4  502    0 -0.34492687589E+02  0.18304735192E+02 -0.18186899894E+03  0.18607318884E+03  0.47000000000E+01 0.  1.
         -5    1    4    4    0  502  0.91020237813E+02 -0.24599049629E+02 -0.37069546128E+03  0.38252713884E+03  0.47000000000E+01 0.  1.
          5    1    5    5  503    0 -0.44401311526E+01 -0.44897011677E+02 -0.70537638765E+02  0.83863608941E+02  0.47000000000E+01 0.  1.
         -5    1    5    5    0  503 -0.52087419071E+02  0.51191326113E+02 -0.41434885229E+03  0.42076206161E+03  0.47000000000E+01 0.  1.
<mgrwt>
<rscale>  0 0.27479004E+03</rscale>
<asrwt>0</asrwt>
<pdfrwt beam="1">  1        2 0.16235977E+00 0.27479004E+03</pdfrwt>
<pdfrwt beam="2">  1       -2 0.27519267E-02 0.27479004E+03</pdfrwt>
<totfact> 0.11678081E+04</totfact>
</mgrwt>
</event>
<event>
 9    1  0.2073852E-002  0.2758120E+03  0.7818608E-02  0.1097999E+00
         -2   -1    0    0    0  501 -0.00000000000E+00  0.00000000000E+00  0.88923977586E+01  0.88923977586E+01  0.00000000000E+00 0.  1.
          2   -1    0    0  501    0  0.00000000000E+00 -0.00000000000E+00 -0.21386882628E+04  0.21386882628E+04  0.00000000000E+00 0.  1.
         36    2    1    2    0    0 -0.71054273576E-14  0.00000000000E+00 -0.21297958650E+04  0.21475806605E+04  0.27581201362E+03 0.  0.
         25    2    3    3    0    0 -0.25473125804E+02 -0.54587768015E+02 -0.13101370041E+04  0.13174291819E+04  0.12462734458E+03 0.  0.
         25    2    3    3    0    0  0.25473125804E+02  0.54587768015E+02 -0.81965886088E+03  0.83015147869E+03  0.11697061509E+03 0.  0.
          5    1    4    4  502    0 -0.20074415279E+02  0.36643557278E+02 -0.26753192312E+03  0.27081571654E+03  0.47000000000E+01 0. -1.
         -5    1    4    4    0  502 -0.53987105252E+01 -0.91231325293E+02 -0.10426050810E+04  0.10466134653E+04  0.47000000000E+01 0. -1.
          5    1    5    5  503    0  0.34083671724E+02 -0.20467186672E+02 -0.12204777035E+03  0.12844590556E+03  0.47000000000E+01 0. -1.
         -5    1    5    5    0  503 -0.86105459197E+01  0.75054954687E+02 -0.69761109054E+03  0.70170557313E+03  0.47000000000E+01 0. -1.
<mgrwt>
<rscale>  0 0.27581201E+03</rscale>
<asrwt>0</asrwt>
<pdfrwt beam="1">  1        2 0.32902892E+00 0.27581201E+03</pdfrwt>
<pdfrwt beam="2">  1       -2 0.13680614E-02 0.27581201E+03</pdfrwt>
<totfact> 0.84731291E+03</totfact>
</mgrwt>
</event>
<event>
 9    1  0.2073852E-002  0.2739065E+03  0.7818608E-02  0.1099064E+00
          2   -1    0    0  501    0  0.00000000000E+00  0.00000000000E+00  0.33367512455E+03  0.33367512455E+03  0.00000000000E+00 0. -1.
         -2   -1    0    0    0  501 -0.00000000000E+00 -0.00000000000E+00 -0.56210921078E+02  0.56210921078E+02  0.00000000000E+00 0. -1.
         36    2    1    2    0    0  0.53290705182E-14  0.14210854715E-13  0.27746420347E+03  0.38988604562E+03  0.27390645185E+03 0.  0.
         25    2    3    3    0    0  0.81830197481E+01  0.53970105219E+02  0.74528159840E+02  0.15060725130E+03  0.11894689346E+03 0.  0.
         25    2    3    3    0    0 -0.81830197481E+01 -0.53970105219E+02  0.20293604363E+03  0.23927879433E+03  0.11441839687E+03 0.  0.
          5    1    4    4  502    0  0.39210653984E+01  0.70627246326E+02  0.98112807747E+02  0.12104460220E+03  0.47000000000E+01 0. -1.
         -5    1    4    4    0  502  0.42619543497E+01 -0.16657141107E+02 -0.23584647907E+02  0.29562649097E+02  0.47000000000E+01 0. -1.
          5    1    5    5  503    0  0.40056765729E+02 -0.24328056708E+02  0.16342378054E+03  0.17007592678E+03  0.47000000000E+01 0. -1.
         -5    1    5    5    0  503 -0.48239785477E+02 -0.29642048511E+02  0.39512263088E+02  0.69202867550E+02  0.47000000000E+01 0. -1.
<mgrwt>
<rscale>  0 0.27390645E+03</rscale>
<asrwt>0</asrwt>
<pdfrwt beam="1">  1        2 0.51334634E-01 0.27390645E+03</pdfrwt>
<pdfrwt beam="2">  1       -2 0.86478342E-02 0.27390645E+03</pdfrwt>
<totfact> 0.80811204E+03</totfact>
</mgrwt>
</event>
<event>
 9    1  0.2073852E-002  0.2755163E+03  0.7818608E-02  0.1098163E+00
         -2   -1    0    0    0  501 -0.00000000000E+00  0.00000000000E+00  0.43355403171E+02  0.43355403171E+02  0.00000000000E+00 0.  1.
          2   -1    0    0  501    0  0.00000000000E+00 -0.00000000000E+00 -0.43771510064E+03  0.43771510064E+03  0.00000000000E+00 0.  1.
         36    2    1    2    0    0  0.00000000000E+00  0.00000000000E+00 -0.39435969747E+03  0.48107050381E+03  0.27551634915E+03 0.  0.
         25    2    3    3    0    0  0.86644299874E+01  0.33366179692E+02 -0.25016881274E+03  0.28477481961E+03  0.13162024437E+03 0.  0.
         25    2    3    3    0    0 -0.86644299874E+01 -0.33366179692E+02 -0.14419088473E+03  0.19629568419E+03  0.12865694734E+03 0.  0.
          5    1    4    4  502    0  0.39718166659E+02  0.73118886541E+02 -0.17860373465E+03  0.19709208092E+03  0.47000000000E+01 0. -1.
         -5    1    4    4    0  502 -0.31053736672E+02 -0.39752706848E+02 -0.71565078088E+02  0.87682738693E+02  0.47000000000E+01 0. -1.
          5    1    5    5  503    0 -0.49258490355E+01  0.47295068599E+02 -0.30209317080E+02  0.56531233322E+02  0.47000000000E+01 0.  1.
         -5    1    5    5    0  503 -0.37385809519E+01 -0.80661248291E+02 -0.11398156765E+03  0.13976445087E+03  0.47000000000E+01 0.  1.
<mgrwt>
<rscale>  0 0.27551635E+03</rscale>
<asrwt>0</asrwt>
<pdfrwt beam="1">  1        2 0.67340786E-01 0.27551635E+03</pdfrwt>
<pdfrwt beam="2">  1       -2 0.66700619E-02 0.27551635E+03</pdfrwt>
<totfact> 0.90217152E+03</totfact>
</mgrwt>
</event>
<event>
 9    1  0.2073852E-002  0.2708436E+03  0.7818608E-02  0.1100798E+00
          2   -1    0    0  501    0  0.00000000000E+00  0.00000000000E+00  0.21762559121E+03  0.21762559121E+03  0.00000000000E+00 0.  1.
         -2   -1    0    0    0  501 -0.00000000000E+00 -0.00000000000E+00 -0.84268874242E+02  0.84268874242E+02  0.00000000000E+00 0.  1.
         36    2    1    2    0    0  0.14210854715E-13 -0.71054273576E-14  0.13335671697E+03  0.30189446546E+03  0.27084359751E+03 0.  0.
         25    2    3    3    0    0 -0.44148310911E+02 -0.14042767556E+02  0.69335633516E+02  0.15146059691E+03  0.12643816538E+03 0.  0.
         25    2    3    3    0    0  0.44148310911E+02  0.14042767556E+02  0.64021083456E+02  0.15043386855E+03  0.12800537880E+03 0.  0.
          5    1    4    4  502    0 -0.46071862831E+02 -0.51499784518E+02  0.85770186006E+02  0.11024272837E+03  0.47000000000E+01 0. -1.
         -5    1    4    4    0  502  0.19235519199E+01  0.37457016962E+02 -0.16434552490E+02  0.41217868543E+02  0.47000000000E+01 0. -1.
          5    1    5    5  503    0  0.50999769507E+02 -0.33939140912E+02 -0.95789957084E+01  0.62182706072E+02  0.47000000000E+01 0.  1.
         -5    1    5    5    0  503 -0.68514585960E+01  0.47981908469E+02  0.73600079164E+02  0.88251162475E+02  0.47000000000E+01 0.  1.
<mgrwt>
<rscale>  0 0.27084360E+03</rscale>
<asrwt>0</asrwt>
<pdfrwt beam="1">  1        2 0.33480860E-01 0.27084360E+03</pdfrwt>
<pdfrwt beam="2">  1       -2 0.12964442E-01 0.27084360E+03</pdfrwt>
<totfact> 0.67088525E+03</totfact>
</mgrwt>
</event>
<event>
 9    1  0.2073852E-002  0.2756427E+03  0.7818608E-02  0.1098093E+00
          1   -1    0    0  501    0  0.00000000000E+00  0.00000000000E+00  0.38838603272E+02  0.38838603272E+02  0.00000000000E+00 0.  1.
         -1   -1    0    0    0  501 -0.00000000000E+00 -0.00000000000E+00 -0.48906818686E+03  0.48906818686E+03  0.00000000000E+00 0.  1.
         36    2    1    2    0    0  0.00000000000E+00  0.00000000000E+00 -0.45022958358E+03  0.52790679013E+03  0.27564270556E+03 0.  0.
         25    2    3    3    0    0 -0.50939717288E+02 -0.33536128018E+02 -0.24922187648E+03  0.28382027057E+03  0.12133785721E+03 0.  0.
         25    2    3    3    0    0  0.50939717288E+02  0.33536128018E+02 -0.20100770711E+03  0.24408651956E+03  0.12431654771E+03 0.  0.
          5    1    4    4  502    0 -0.40473612558E+02 -0.75147695315E+02 -0.20458897769E+03  0.22172963089E+03  0.47000000000E+01 0.  1.
         -5    1    4    4    0  502 -0.10466104729E+02  0.41611567297E+02 -0.44632898792E+02  0.62090639679E+02  0.47000000000E+01 0.  1.
          5    1    5    5  503    0  0.42925561470E+02  0.78557102983E+02 -0.15495646092E+03  0.17901792379E+03  0.47000000000E+01 0. -1.
         -5    1    5    5    0  503  0.80141558178E+01 -0.45020974965E+02 -0.46051246186E+02  0.65068595770E+02  0.47000000000E+01 0. -1.
<mgrwt>
<rscale>  0 0.27564271E+03</rscale>
<asrwt>0</asrwt>
<pdfrwt beam="1">  1        1 0.59751699E-02 0.27564271E+03</pdfrwt>
<pdfrwt beam="2">  1       -1 0.75241258E-01 0.27564271E+03</pdfrwt>
<totfact> 0.24016721E+03</totfact>
</mgrwt>
</event>
<event>
 9    1  0.2073852E-002  0.2749853E+03  0.7818608E-02  0.1098460E+00
         -1   -1    0    0    0  501 -0.00000000000E+00  0.00000000000E+00  0.94816179836E+03  0.94816179836E+03  0.00000000000E+00 0. -1.
          1   -1    0    0  501    0  0.00000000000E+00 -0.00000000000E+00 -0.19937765497E+02  0.19937765497E+02  0.00000000000E+00 0. -1.
         36    2    1    2    0    0  0.00000000000E+00 -0.17763568394E-14  0.92822403287E+03  0.96809956386E+03  0.27498529116E+03 0.  0.
         25    2    3    3    0    0  0.48063910520E+02  0.73846154083E+01  0.33800497913E+03  0.36270945599E+03  0.12225429035E+03 0.  0.
         25    2    3    3    0    0 -0.48063910520E+02 -0.73846154083E+01  0.59021905373E+03  0.60539010787E+03  0.12559450335E+03 0.  0.
          5    1    4    4  502    0  0.39680929430E+02  0.59994350446E+02  0.24543474171E+03  0.25580109594E+03  0.47000000000E+01 0. -1.
         -5    1    4    4    0  502  0.83829810906E+01 -0.52609735038E+02  0.92570237422E+02  0.10690836005E+03  0.47000000000E+01 0. -1.
          5    1    5    5  503    0  0.37330876523E+02 -0.15191179390E+02  0.29998642956E+03  0.30271820922E+03  0.47000000000E+01 0.  1.
         -5    1    5    5    0  503 -0.85394787043E+02  0.78065639814E+01  0.29023262417E+03  0.30267189864E+03  0.47000000000E+01 0.  1.
<mgrwt>
<rscale>  0 0.27498529E+03</rscale>
<asrwt>0</asrwt>
<pdfrwt beam="1">  1        1 0.30673493E-02 0.27498529E+03</pdfrwt>
<pdfrwt beam="2">  1       -1 0.14587101E+00 0.27498529E+03</pdfrwt>
<totfact> 0.13429604E+03</totfact>
</mgrwt>
</event>
<event>
 9    1  0.2073852E-002  0.2745315E+03  0.7818608E-02  0.1098714E+00
         -1   -1    0    0    0  501 -0.00000000000E+00  0.00000000000E+00  0.33920462909E+03  0.33920462909E+03  0.00000000000E+00 0.  1.
          1   -1    0    0  501    0  0.00000000000E+00 -0.00000000000E+00 -0.55547240602E+02  0.55547240602E+02  0.00000000000E+00 0.  1.
         36    2    1    2    0    0  0.00000000000E+00  0.71054273576E-14  0.28365738848E+03  0.39475186969E+03  0.27453146374E+03 0.  0.
         25    2    3    3    0    0  0.11672852448E+02 -0.47708625798E+02  0.10787073651E+03  0.17372026273E+03  0.12700498190E+03 0.  0.
         25    2    3    3    0    0 -0.11672852448E+02  0.47708625798E+02  0.17578665198E+03  0.22103160696E+03  0.12466617746E+03 0.  0.
          5    1    4    4  502    0  0.43967846297E+02  0.26902379403E+02  0.24811318658E+02  0.57398615481E+02  0.47000000000E+01 0. -1.
         -5    1    4    4    0  502 -0.32294993850E+02 -0.74611005201E+02  0.83059417849E+02  0.11632164725E+03  0.47000000000E+01 0. -1.
          5    1    5    5  503    0  0.49540494743E+02  0.25074353677E+02  0.35056118656E+02  0.65833162517E+02  0.47000000000E+01 0.  1.
         -5    1    5    5    0  503 -0.61213347191E+02  0.22634272121E+02  0.14073053332E+03  0.15519844444E+03  0.47000000000E+01 0.  1.
<mgrwt>
<rscale>  0 0.27453146E+03</rscale>
<asrwt>0</asrwt>
<pdfrwt beam="1">  1        1 0.85457295E-02 0.27453146E+03</pdfrwt>
<pdfrwt beam="2">  1       -1 0.52185326E-01 0.27453146E+03</pdfrwt>
<totfact> 0.30019403E+03</totfact>
</mgrwt>
</event>
<event>
 9    1  0.2073852E-002  0.2733638E+03  0.7818608E-02  0.1099370E+00
         -2   -1    0    0    0  501 -0.00000000000E+00  0.00000000000E+00  0.15479798205E+02  0.15479798205E+02  0.00000000000E+00 0.  1.
          2   -1    0    0  501    0  0.00000000000E+00 -0.00000000000E+00 -0.12068598685E+04  0.12068598685E+04  0.00000000000E+00 0.  1.
         36    2    1    2    0    0 -0.71054273576E-14 -0.71054273576E-14 -0.11913800703E+04  0.12223396667E+04  0.27336383979E+03 0.  0.
         25    2    3    3    0    0 -0.40689133539E+02 -0.30299163091E+02 -0.68875662299E+03  0.70148014982E+03  0.12294336098E+03 0.  0.
         25    2    3    3    0    0  0.40689133539E+02  0.30299163091E+02 -0.50262344732E+03  0.52085951689E+03  0.12684897192E+03 0.  0.
          5    1    4    4  502    0  0.16597120921E+02  0.34582282915E+02 -0.33666458339E+03  0.33887539070E+03  0.47000000000E+01 0.  1.
         -5    1    4    4    0  502 -0.57286254460E+02 -0.64881446007E+02 -0.35209203959E+03  0.36260475911E+03  0.47000000000E+01 0.  1.
          5    1    5    5  503    0  0.76422025899E+02  0.20734124475E+02 -0.18821892339E+03  0.20425151917E+03  0.47000000000E+01 0. -1.
         -5    1    5    5    0  503 -0.35732892360E+02  0.95650386160E+01 -0.31440452392E+03  0.31660799772E+03  0.47000000000E+01 0. -1.
<mgrwt>
<rscale>  0 0.27336384E+03</rscale>
<asrwt>0</asrwt>
<pdfrwt beam="1">  1        2 0.18567079E+00 0.27336384E+03</pdfrwt>
<pdfrwt beam="2">  1       -2 0.23815068E-02 0.27336384E+03</pdfrwt>
<totfact> 0.11808542E+04</totfact>
</mgrwt>
</event>
<event>
 9    1  0.2073852E-002  0.2814746E+03  0.7818608E-02  0.1094886E+00
          2   -1    0    0  501    0  0.00000000000E+00  0.00000000000E+00  0.23065639270E+03  0.23065639270E+03  0.00000000000E+00 0.  1.
         -2   -1    0    0    0  501 -0.00000000000E+00 -0.00000000000E+00 -0.85872297332E+02  0.85872297332E+02  0.00000000000E+00 0.  1.
         36    2    1    2    0    0  0.71054273576E-14  0.00000000000E+00  0.14478409537E+03  0.31652869003E+03  0.28147464778E+03 0.  0.
         25    2    3    3    0    0  0.57766702148E+02 -0.23040366682E+02  0.53371583835E+02  0.14935906689E+03  0.12486694730E+03 0.  0.
         25    2    3    3    0    0 -0.57766702148E+02  0.23040366682E+02  0.91412511534E+02  0.16716962314E+03  0.12538574585E+03 0.  0.
          5    1    4    4  502    0  0.62028411585E+02  0.35599665630E+02  0.29020619052E+01  0.71731248421E+02  0.47000000000E+01 0. -1.
         -5    1    4    4    0  502 -0.42617094370E+01 -0.58640032312E+02  0.50469521930E+02  0.77627818472E+02  0.47000000000E+01 0. -1.
          5    1    5    5  503    0  0.12428686913E-01 -0.48014656670E+02  0.30326069782E+02  0.56983926840E+02  0.47000000000E+01 0. -1.
         -5    1    5    5    0  503 -0.57779130835E+02  0.71055023352E+02  0.61086441752E+02  0.11018569630E+03  0.47000000000E+01 0. -1.
<mgrwt>
<rscale>  0 0.28147465E+03</rscale>
<asrwt>0</asrwt>
<pdfrwt beam="1">  1        2 0.35485599E-01 0.28147465E+03</pdfrwt>
<pdfrwt beam="2">  1       -2 0.13211123E-01 0.28147465E+03</pdfrwt>
<totfact> 0.61160938E+03</totfact>
</mgrwt>
</event>
<event>
 9    1  0.2073852E-002  0.2752638E+03  0.7818608E-02  0.1098304E+00
          1   -1    0    0  501    0  0.00000000000E+00  0.00000000000E+00  0.10618713562E+03  0.10618713562E+03  0.00000000000E+00 0.  1.
         -1   -1    0    0    0  501 -0.00000000000E+00 -0.00000000000E+00 -0.17838830517E+03  0.17838830517E+03  0.00000000000E+00 0.  1.
         36    2    1    2    0    0  0.00000000000E+00  0.00000000000E+00 -0.72201169553E+02  0.28457544079E+03  0.27526382366E+03 0.  0.
         25    2    3    3    0    0  0.26656338778E+02  0.34420012457E+02  0.35374573330E+01  0.13030222304E+03  0.12276342318E+03 0.  0.
         25    2    3    3    0    0 -0.26656338778E+02 -0.34420012457E+02 -0.75738626886E+02  0.15427321775E+03  0.12715576455E+03 0.  0.
          5    1    4    4  502    0  0.25666830380E+02  0.74750248578E+02  0.26690061274E+02  0.83551392658E+02  0.47000000000E+01 0.  1.
         -5    1    4    4    0  502  0.98950839782E+00 -0.40330236121E+02 -0.23152603941E+02  0.46750830385E+02  0.47000000000E+01 0.  1.
          5    1    5    5  503    0  0.49761927852E+02 -0.28464579227E+02 -0.29682796086E+02  0.64727429407E+02  0.47000000000E+01 0. -1.
         -5    1    5    5    0  503 -0.76418266630E+02 -0.59554332296E+01 -0.46055830799E+02  0.89545788345E+02  0.47000000000E+01 0. -1.
<mgrwt>
<rscale>  0 0.27526382E+03</rscale>
<asrwt>0</asrwt>
<pdfrwt beam="1">  1        1 0.16336483E-01 0.27526382E+03</pdfrwt>
<pdfrwt beam="2">  1       -1 0.27444354E-01 0.27526382E+03</pdfrwt>
<totfact> 0.39373816E+03</totfact>
</mgrwt>
</event>
<event>
 9    1  0.2073852E-002  0.2758102E+03  0.7818608E-02  0.1098000E+00
          1   -1    0    0  501    0  0.00000000000E+00  0.00000000000E+00  0.10267759935E+04  0.10267759935E+04  0.00000000000E+00 0.  1.
         -1   -1    0    0    0  501 -0.00000000000E+00 -0.00000000000E+00 -0.18521869309E+02  0.18521869309E+02  0.00000000000E+00 0.  1.
         36    2    1    2    0    0 -0.71054273576E-14  0.00000000000E+00  0.10082541242E+04  0.10452978628E+04  0.27581015761E+03 0.  0.
         25    2    3    3    0    0  0.23541893168E+02 -0.43740235253E+02  0.38999224638E+03  0.41236908917E+03  0.12444631193E+03 0.  0.
         25    2    3    3    0    0 -0.23541893168E+02  0.43740235253E+02  0.61826187779E+03  0.63292877362E+03  0.12603036947E+03 0.  0.
          5    1    4    4  502    0 -0.15241281829E+02 -0.34584529796E+02  0.36066088201E+03  0.36266616631E+03  0.47000000000E+01 0.  1.
         -5    1    4    4    0  502  0.38783174997E+02 -0.91557054564E+01  0.29331364369E+02  0.49702922862E+02  0.47000000000E+01 0.  1.
          5    1    5    5  503    0 -0.34943650946E+02 -0.31378659226E+02  0.12110620530E+03  0.12997877503E+03  0.47000000000E+01 0.  1.
         -5    1    5    5    0  503  0.11401757778E+02  0.75118894479E+02  0.49715567249E+03  0.50294999858E+03  0.47000000000E+01 0.  1.
<mgrwt>
<rscale>  0 0.27581016E+03</rscale>
<asrwt>0</asrwt>
<pdfrwt beam="1">  1        1 0.15796549E+00 0.27581016E+03</pdfrwt>
<pdfrwt beam="2">  1       -1 0.28495192E-02 0.27581016E+03</pdfrwt>
<totfact> 0.62125830E+03</totfact>
</mgrwt>
</event>
<event>
 9    1  0.2073852E-002  0.2757397E+03  0.7818608E-02  0.1098039E+00
          2   -1    0    0  501    0  0.00000000000E+00  0.00000000000E+00  0.95290347252E+03  0.95290347252E+03  0.00000000000E+00 0.  1.
         -2   -1    0    0    0  501 -0.00000000000E+00 -0.00000000000E+00 -0.19947560436E+02  0.19947560436E+02  0.00000000000E+00 0.  1.
         36    2    1    2    0    0 -0.35527136788E-14  0.21316282073E-13  0.93295591209E+03  0.97285103296E+03  0.27573972951E+03 0.  0.
         25    2    3    3    0    0 -0.82177798317E+01 -0.51525603778E+02  0.35980184898E+03  0.38348263537E+03  0.12198008587E+03 0.  0.
         25    2    3    3    0    0  0.82177798317E+01  0.51525603778E+02  0.57315406311E+03  0.58936839759E+03  0.12699255204E+03 0.  0.
          5    1    4    4  502    0 -0.36451025600E+02 -0.71380400220E+02  0.32292019380E+03  0.33275122895E+03  0.47000000000E+01 0. -1.
         -5    1    4    4    0  502  0.28233245769E+02  0.19854796442E+02  0.36881655179E+02  0.50731406418E+02  0.47000000000E+01 0. -1.
          5    1    5    5  503    0  0.13212158610E+02 -0.26298986092E+02  0.36805307375E+02  0.47359460043E+02  0.47000000000E+01 0. -1.
         -5    1    5    5    0  503 -0.49943787783E+01  0.77824589869E+02  0.53634875573E+03  0.54200893755E+03  0.47000000000E+01 0. -1.
<mgrwt>
<rscale>  0 0.27573973E+03</rscale>
<asrwt>0</asrwt>
<pdfrwt beam="1">  1        2 0.14660050E+00 0.27573973E+03</pdfrwt>
<pdfrwt beam="2">  1       -2 0.30688562E-02 0.27573973E+03</pdfrwt>
<totfact> 0.11473667E+04</totfact>
</mgrwt>
</event>
<event>
 9    1  0.2073852E-002  0.2739157E+03  0.7818608E-02  0.1099059E+00
         -2   -1    0    0    0  501 -0.00000000000E+00  0.00000000000E+00  0.34941703550E+02  0.34941703550E+02  0.00000000000E+00 0.  1.
          2   -1    0    0  501    0  0.00000000000E+00 -0.00000000000E+00 -0.53682145841E+03  0.53682145841E+03  0.00000000000E+00 0.  1.
         36    2    1    2    0    0 -0.35527136788E-14  0.00000000000E+00 -0.50187975486E+03  0.57176316196E+03  0.27391572616E+03 0.  0.
         25    2    3    3    0    0 -0.19052095706E+02 -0.66855887446E+01 -0.35841251749E+03  0.38276998554E+03  0.13283692895E+03 0.  0.
         25    2    3    3    0    0  0.19052095706E+02  0.66855887446E+01 -0.14346723737E+03  0.18899317642E+03  0.12135853116E+03 0.  0.
          5    1    4    4  502    0 -0.23543519271E+02 -0.25325057228E+02 -0.13694399608E+02  0.37487096499E+02  0.47000000000E+01 0. -1.
         -5    1    4    4    0  502  0.44914235654E+01  0.18639468484E+02 -0.34471811788E+03  0.34528288904E+03  0.47000000000E+01 0. -1.
          5    1    5    5  503    0  0.55684055791E+02  0.29364399242E+02 -0.34983950371E+02  0.72173047571E+02  0.47000000000E+01 0.  1.
         -5    1    5    5    0  503 -0.36631960085E+02 -0.22678810497E+02 -0.10848328700E+03  0.11682012885E+03  0.47000000000E+01 0.  1.
<mgrwt>
<rscale>  0 0.27391573E+03</rscale>
<asrwt>0</asrwt>
<pdfrwt beam="1">  1        2 0.82587916E-01 0.27391573E+03</pdfrwt>
<pdfrwt beam="2">  1       -2 0.53756467E-02 0.27391573E+03</pdfrwt>
<totfact> 0.10004987E+04</totfact>
</mgrwt>
</event>
<event>
 9    1  0.2073852E-002  0.2738523E+03  0.7818608E-02  0.1099095E+00
         -1   -1    0    0    0  501 -0.00000000000E+00  0.00000000000E+00  0.44881141510E+03  0.44881141510E+03  0.00000000000E+00 0.  1.
          1   -1    0    0  501    0  0.00000000000E+00 -0.00000000000E+00 -0.41774263614E+02  0.41774263614E+02  0.00000000000E+00 0.  1.
         36    2    1    2    0    0  0.00000000000E+00 -0.71054273576E-14  0.40703715148E+03  0.49058567871E+03  0.27385226942E+03 0.  0.
         25    2    3    3    0    0  0.40827789572E+02  0.41719734054E+02  0.21771899683E+03  0.25704049304E+03  0.12353464643E+03 0.  0.
         25    2    3    3    0    0 -0.40827789572E+02 -0.41719734054E+02  0.18931815465E+03  0.23354518567E+03  0.12367111813E+03 0.  0.
          5    1    4    4  502    0 -0.57288351810E+01  0.45579655005E+02  0.14400904567E+02  0.48371484940E+02  0.47000000000E+01 0. -1.
         -5    1    4    4    0  502  0.46556624753E+02 -0.38599209506E+01  0.20331809227E+03  0.20866900810E+03  0.47000000000E+01 0. -1.
          5    1    5    5  503    0 -0.27679364079E+02 -0.85732879873E+02  0.13315714102E+03  0.16083901296E+03  0.47000000000E+01 0. -1.
         -5    1    5    5    0  503 -0.13148425493E+02  0.44013145819E+02  0.56161013634E+02  0.72706172711E+02  0.47000000000E+01 0. -1.
<mgrwt>
<rscale>  0 0.27385227E+03</rscale>
<asrwt>0</asrwt>
<pdfrwt beam="1">  1        1 0.64268101E-02 0.27385227E+03</pdfrwt>
<pdfrwt beam="2">  1       -1 0.69047907E-01 0.27385227E+03</pdfrwt>
<totfact> 0.25827158E+03</totfact>
</mgrwt>
</event>
<event>
 9    1  0.2073852E-002  0.2731142E+03  0.7818608E-02  0.1099510E+00
          2   -1    0    0  501    0  0.00000000000E+00  0.00000000000E+00  0.20341499099E+04  0.20341499099E+04  0.00000000000E+00 0. -1.
         -2   -1    0    0    0  501 -0.00000000000E+00 -0.00000000000E+00 -0.91673883661E+01  0.91673883661E+01  0.00000000000E+00 0. -1.
         36    2    1    2    0    0  0.17763568394E-14  0.17763568394E-14  0.20249825215E+04  0.20433172983E+04  0.27311420482E+03 0.  0.
         25    2    3    3    0    0  0.28398163442E+01 -0.15894993507E+02  0.60646042983E+03  0.62013233615E+03  0.12848792169E+03 0.  0.
         25    2    3    3    0    0 -0.28398163442E+01  0.15894993507E+02  0.14185220917E+04  0.14231849621E+04  0.11397278776E+03 0.  0.
          5    1    4    4  502    0 -0.44493055319E+01 -0.17588363609E+02  0.61031582836E+01  0.19710032857E+02  0.47000000000E+01 0.  1.
         -5    1    4    4    0  502  0.72891218762E+01  0.16933701023E+01  0.60035727154E+03  0.60042230330E+03  0.47000000000E+01 0.  1.
          5    1    5    5  503    0  0.38316522836E+02 -0.67763881660E+01  0.20317819107E+03  0.20692400220E+03  0.47000000000E+01 0. -1.
         -5    1    5    5    0  503 -0.41156339180E+02  0.22671381673E+02  0.12153439006E+04  0.12162609599E+04  0.47000000000E+01 0. -1.
<mgrwt>
<rscale>  0 0.27311420E+03</rscale>
<asrwt>0</asrwt>
<pdfrwt beam="1">  1        2 0.31294578E+00 0.27311420E+03</pdfrwt>
<pdfrwt beam="2">  1       -2 0.14103691E-02 0.27311420E+03</pdfrwt>
<totfact> 0.92024528E+03</totfact>
</mgrwt>
</event>
<event>
 9    1  0.2073852E-002  0.2738018E+03  0.7818608E-02  0.1099123E+00
         -2   -1    0    0    0  501 -0.00000000000E+00  0.00000000000E+00  0.20111574596E+02  0.20111574596E+02  0.00000000000E+00 0.  1.
          2   -1    0    0  501    0  0.00000000000E+00 -0.00000000000E+00 -0.93189417974E+03  0.93189417974E+03  0.00000000000E+00 0.  1.
         36    2    1    2    0    0  0.71054273576E-14  0.00000000000E+00 -0.91178260514E+03  0.95200575433E+03  0.27380182111E+03 0.  0.
         25    2    3    3    0    0 -0.43240144867E+02 -0.80403614835E+01 -0.51916248641E+03  0.53461246354E+03  0.11977663098E+03 0.  0.
         25    2    3    3    0    0  0.43240144867E+02  0.80403614835E+01 -0.39262011873E+03  0.41739329080E+03  0.13465602114E+03 0.  0.
          5    1    4    4  502    0  0.23198294067E+02 -0.19941478397E+02 -0.36433140702E+03  0.36564366199E+03  0.47000000000E+01 0.  1.
         -5    1    4    4    0  502 -0.66438438935E+02  0.11901116913E+02 -0.15483107939E+03  0.16896880155E+03  0.47000000000E+01 0.  1.
          5    1    5    5  503    0  0.45820776054E+02 -0.58699592819E+02 -0.21423946669E+03  0.22686080491E+03  0.47000000000E+01 0. -1.
         -5    1    5    5    0  503 -0.25806311866E+01  0.66739954302E+02 -0.17838065204E+03  0.19053248589E+03  0.47000000000E+01 0. -1.
<mgrwt>
<rscale>  0 0.27380182E+03</rscale>
<asrwt>0</asrwt>
<pdfrwt beam="1">  1        2 0.14336831E+00 0.27380182E+03</pdfrwt>
<pdfrwt beam="2">  1       -2 0.30940890E-02 0.27380182E+03</pdfrwt>
<totfact> 0.11682988E+04</totfact>
</mgrwt>
</event>
<event>
 9    1  0.2073852E-002  0.2773330E+03  0.7818608E-02  0.1097155E+00
          2   -1    0    0  501    0  0.00000000000E+00  0.00000000000E+00  0.69145756234E+03  0.69145756234E+03  0.00000000000E+00 0. -1.
         -2   -1    0    0    0  501 -0.00000000000E+00 -0.00000000000E+00 -0.27808504333E+02  0.27808504333E+02  0.00000000000E+00 0. -1.
         36    2    1    2    0    0  0.00000000000E+00  0.00000000000E+00  0.66364905801E+03  0.71926606668E+03  0.27733301728E+03 0.  0.
         25    2    3    3    0    0 -0.18497253100E+02  0.13784915964E+02  0.47985261268E+03  0.49583463493E+03  0.12272441899E+03 0.  0.
         25    2    3    3    0    0  0.18497253100E+02 -0.13784915964E+02  0.18379644533E+03  0.22343143175E+03  0.12493317853E+03 0.  0.
          5    1    4    4  502    0 -0.17799633614E+02  0.50581675289E+02  0.43171579161E+03  0.43505855647E+03  0.47000000000E+01 0. -1.
         -5    1    4    4    0  502 -0.69761948615E+00 -0.36796759325E+02  0.48136821067E+02  0.60776078454E+02  0.47000000000E+01 0. -1.
          5    1    5    5  503    0  0.13096459357E+02 -0.67647802945E+02  0.75858212165E+02  0.10258801511E+03  0.47000000000E+01 0. -1.
         -5    1    5    5    0  503  0.54007937431E+01  0.53862886981E+02  0.10793823316E+03  0.12084341664E+03  0.47000000000E+01 0. -1.
<mgrwt>
<rscale>  0 0.27733302E+03</rscale>
<asrwt>0</asrwt>
<pdfrwt beam="1">  1        2 0.10637807E+00 0.27733302E+03</pdfrwt>
<pdfrwt beam="2">  1       -2 0.42782319E-02 0.27733302E+03</pdfrwt>
<totfact> 0.10530684E+04</totfact>
</mgrwt>
</event>
<event>
 9    1  0.2073852E-002  0.2741921E+03  0.7818608E-02  0.1098904E+00
         -2   -1    0    0    0  501 -0.00000000000E+00  0.00000000000E+00  0.18029102151E+02  0.18029102151E+02  0.00000000000E+00 0. -1.
          2   -1    0    0  501    0  0.00000000000E+00 -0.00000000000E+00 -0.10424994479E+04  0.10424994479E+04  0.00000000000E+00 0. -1.
         36    2    1    2    0    0 -0.71054273576E-14 -0.71054273576E-14 -0.10244703458E+04  0.10605285501E+04  0.27419211541E+03 0.  0.
         25    2    3    3    0    0 -0.31991464804E+02 -0.56012697356E+02 -0.57959181894E+03  0.59654622528E+03  0.12561785790E+03 0.  0.
         25    2    3    3    0    0  0.31991464804E+02  0.56012697356E+02 -0.44487852682E+03  0.46398232478E+03  0.11489916450E+03 0.  0.
          5    1    4    4  502    0  0.47002192269E+02 -0.14922358909E+02 -0.15619428664E+03  0.16386161251E+03  0.47000000000E+01 0. -1.
         -5    1    4    4    0  502 -0.78993657073E+02 -0.41090338448E+02 -0.42339753230E+03  0.43268461277E+03  0.47000000000E+01 0. -1.
          5    1    5    5  503    0  0.30195504109E+02  0.81258757728E+02 -0.20362667484E+03  0.22136094254E+03  0.47000000000E+01 0.  1.
         -5    1    5    5    0  503  0.17959606949E+01 -0.25246060371E+02 -0.24125185198E+03  0.24262138225E+03  0.47000000000E+01 0.  1.
<mgrwt>
<rscale>  0 0.27419212E+03</rscale>
<asrwt>0</asrwt>
<pdfrwt beam="1">  1        2 0.16038455E+00 0.27419212E+03</pdfrwt>
<pdfrwt beam="2">  1       -2 0.27737077E-02 0.27419212E+03</pdfrwt>
<totfact> 0.11747772E+04</totfact>
</mgrwt>
</event>
<event>
 9    1  0.2073852E-002  0.2752928E+03  0.7818608E-02  0.1098288E+00
          1   -1    0    0  501    0  0.00000000000E+00  0.00000000000E+00  0.27295802379E+04  0.27295802379E+04  0.00000000000E+00 0. -1.
         -1   -1    0    0    0  501 -0.00000000000E+00 -0.00000000000E+00 -0.69411898688E+01  0.69411898688E+01  0.00000000000E+00 0. -1.
         36    2    1    2    0    0  0.00000000000E+00  0.00000000000E+00  0.27226390480E+04  0.27365214277E+04  0.27529282369E+03 0.  0.
         25    2    3    3    0    0  0.38374388772E+02  0.31126183472E+02  0.16587040727E+04  0.16642059056E+04  0.12585969399E+03 0.  0.
         25    2    3    3    0    0 -0.38374388772E+02 -0.31126183472E+02  0.10639349753E+04  0.10723155221E+04  0.12434433742E+03 0.  0.
          5    1    4    4  502    0  0.45858764512E+02 -0.22803680004E+02  0.29805161372E+03  0.30245642421E+03  0.47000000000E+01 0. -1.
         -5    1    4    4    0  502 -0.74843757406E+01  0.53929863477E+02  0.13606524590E+04  0.13617494814E+04  0.47000000000E+01 0. -1.
          5    1    5    5  503    0  0.34047395500E+01  0.32492146347E+02  0.98690765978E+02  0.10406387036E+03  0.47000000000E+01 0. -1.
         -5    1    5    5    0  503 -0.41779128322E+02 -0.63618329819E+02  0.96524420932E+03  0.96825165173E+03  0.47000000000E+01 0. -1.
<mgrwt>
<rscale>  0 0.27529282E+03</rscale>
<asrwt>0</asrwt>
<pdfrwt beam="1">  1        1 0.41993457E+00 0.27529282E+03</pdfrwt>
<pdfrwt beam="2">  1       -1 0.10678775E-02 0.27529282E+03</pdfrwt>
<totfact> 0.19012176E+03</totfact>
</mgrwt>
</event>
<event>
 9    1  0.2073852E-002  0.2727119E+03  0.7818608E-02  0.1099737E+00
          1   -1    0    0  501    0  0.00000000000E+00  0.00000000000E+00  0.15150343319E+03  0.15150343319E+03  0.00000000000E+00 0. -1.
         -1   -1    0    0    0  501 -0.00000000000E+00 -0.00000000000E+00 -0.12272295960E+03  0.12272295960E+03  0.00000000000E+00 0. -1.
         36    2    1    2    0    0  0.00000000000E+00  0.17763568394E-14  0.28780473591E+02  0.27422639279E+03  0.27271193381E+03 0.  0.
         25    2    3    3    0    0 -0.31870211587E+02  0.58195400071E+01  0.22618386013E+02  0.14558546232E+03  0.14012122616E+03 0.  0.
         25    2    3    3    0    0  0.31870211587E+02 -0.58195400071E+01  0.61620875781E+01  0.12864093047E+03  0.12434202925E+03 0.  0.
          5    1    4    4  502    0 -0.86187801337E+01  0.12791004569E+02 -0.58552724918E+02  0.60732238261E+02  0.47000000000E+01 0.  1.
         -5    1    4    4    0  502 -0.23251431453E+02 -0.69714645615E+01  0.81171110931E+02  0.84853224055E+02  0.47000000000E+01 0.  1.
          5    1    5    5  503    0  0.45572342725E+02  0.37588999003E+02 -0.33507881008E+02  0.68078185619E+02  0.47000000000E+01 0.  1.
         -5    1    5    5    0  503 -0.13702131138E+02 -0.43408539010E+02  0.39669968586E+02  0.60562744855E+02  0.47000000000E+01 0.  1.
<mgrwt>
<rscale>  0 0.27271193E+03</rscale>
<asrwt>0</asrwt>
<pdfrwt beam="1">  1        1 0.23308220E-01 0.27271193E+03</pdfrwt>
<pdfrwt beam="2">  1       -1 0.18880455E-01 0.27271193E+03</pdfrwt>
<totfact> 0.46074806E+03</totfact>
</mgrwt>
</event>
<event>
 9    1  0.2073852E-002  0.2745954E+03  0.7818608E-02  0.1098678E+00
          2   -1    0    0  501    0  0.00000000000E+00  0.00000000000E+00  0.10619154951E+03  0.10619154951E+03  0.00000000000E+00 0. -1.
         -2   -1    0    0    0  501 -0.00000000000E+00 -0.00000000000E+00 -0.17751556482E+03  0.17751556482E+03  0.00000000000E+00 0. -1.
         36    2    1    2    0    0  0.71054273576E-14  0.00000000000E+00 -0.71324015315E+02  0.28370711433E+03  0.27459535969E+03 0.  0.
         25    2    3    3    0    0 -0.43761251120E+02  0.95338321354E+01 -0.11368505296E+03  0.15991262737E+03  0.10315917831E+03 0.  0.
         25    2    3    3    0    0  0.43761251120E+02 -0.95338321354E+01  0.42361037645E+02  0.12379448697E+03  0.10735304578E+03 0.  0.
          5    1    4    4  502    0  0.11854406057E+02  0.44127527708E+02 -0.37207792588E+02  0.59112396956E+02  0.47000000000E+01 0. -1.
         -5    1    4    4    0  502 -0.55615657177E+02 -0.34593695573E+02 -0.76477260373E+02  0.10080023041E+03  0.47000000000E+01 0. -1.
          5    1    5    5  503    0  0.30678972089E+02  0.40597468193E+02  0.49666033163E+02  0.71261199837E+02  0.47000000000E+01 0. -1.
         -5    1    5    5    0  503  0.13082279031E+02 -0.50131300328E+02 -0.73049955174E+01  0.52533287131E+02  0.47000000000E+01 0. -1.
<mgrwt>
<rscale>  0 0.27459536E+03</rscale>
<asrwt>0</asrwt>
<pdfrwt beam="1">  1        2 0.16337162E-01 0.27459536E+03</pdfrwt>
<pdfrwt beam="2">  1       -2 0.27310087E-01 0.27459536E+03</pdfrwt>
<totfact> 0.42447619E+03</totfact>
</mgrwt>
</event>
<event>
 9    1  0.2073852E-002  0.2747279E+03  0.7818608E-02  0.1098604E+00
          1   -1    0    0  501    0  0.00000000000E+00  0.00000000000E+00  0.82147999298E+03  0.82147999298E+03  0.00000000000E+00 0.  1.
         -1   -1    0    0    0  501 -0.00000000000E+00 -0.00000000000E+00 -0.22969343071E+02  0.22969343071E+02  0.00000000000E+00 0.  1.
         36    2    1    2    0    0  0.00000000000E+00 -0.14210854715E-13  0.79851064991E+03  0.84444933605E+03  0.27472790746E+03 0.  0.
         25    2    3    3    0    0  0.28123564746E+02 -0.44009627760E+02  0.36207469292E+03  0.38839911506E+03  0.13049140623E+03 0.  0.
         25    2    3    3    0    0 -0.28123564746E+02  0.44009627760E+02  0.43643595699E+03  0.45605022099E+03  0.12156347017E+03 0.  0.
          5    1    4    4  502    0  0.65505510783E+02 -0.59150097377E+02  0.16496227459E+03  0.18714793080E+03  0.47000000000E+01 0.  1.
         -5    1    4    4    0  502 -0.37381946037E+02  0.15140469617E+02  0.19711241832E+03  0.20125118426E+03  0.47000000000E+01 0.  1.
          5    1    5    5  503    0  0.21515498339E+02 -0.17838795020E+02  0.27574834313E+02  0.39542391985E+02  0.47000000000E+01 0. -1.
         -5    1    5    5    0  503 -0.49639063085E+02  0.61848422780E+02  0.40886112268E+03  0.41650782900E+03  0.47000000000E+01 0. -1.
<mgrwt>
<rscale>  0 0.27472791E+03</rscale>
<asrwt>0</asrwt>
<pdfrwt beam="1">  1        1 0.12638151E+00 0.27472791E+03</pdfrwt>
<pdfrwt beam="2">  1       -1 0.35337457E-02 0.27472791E+03</pdfrwt>
<totfact> 0.65283500E+03</totfact>
</mgrwt>
</event>
<event>
 9    1  0.2073852E-002  0.2692933E+03  0.7818608E-02  0.1101685E+00
          2   -1    0    0  501    0  0.00000000000E+00  0.00000000000E+00  0.12987670278E+04  0.12987670278E+04  0.00000000000E+00 0.  1.
         -2   -1    0    0    0  501 -0.00000000000E+00 -0.00000000000E+00 -0.13959182554E+02  0.13959182554E+02  0.00000000000E+00 0.  1.
         36    2    1    2    0    0  0.00000000000E+00  0.00000000000E+00  0.12848078453E+04  0.13127262104E+04  0.26929334219E+03 0.  0.
         25    2    3    3    0    0  0.33394657094E+02 -0.29986962470E+01  0.81408441916E+03  0.82446815052E+03  0.12605591773E+03 0.  0.
         25    2    3    3    0    0 -0.33394657094E+02  0.29986962470E+01  0.47072342611E+03  0.48825805986E+03  0.12526449549E+03 0.  0.
          5    1    4    4  502    0  0.11337404708E+02  0.98112466907E+01  0.78630823514E+03  0.78646521090E+03  0.47000000000E+01 0. -1.
         -5    1    4    4    0  502  0.22057252386E+02 -0.12809942938E+02  0.27776184025E+02  0.38002939621E+02  0.47000000000E+01 0. -1.
          5    1    5    5  503    0  0.29235934842E+02  0.42930841172E+02  0.24813418872E+03  0.25355564009E+03  0.47000000000E+01 0.  1.
         -5    1    5    5    0  503 -0.62630591936E+02 -0.39932144925E+02  0.22258923739E+03  0.23470241977E+03  0.47000000000E+01 0.  1.
<mgrwt>
<rscale>  0 0.26929334E+03</rscale>
<asrwt>0</asrwt>
<pdfrwt beam="1">  1        2 0.19981022E+00 0.26929334E+03</pdfrwt>
<pdfrwt beam="2">  1       -2 0.21475676E-02 0.26929334E+03</pdfrwt>
<totfact> 0.12212518E+04</totfact>
</mgrwt>
</event>
<event>
 9    1  0.2073852E-002  0.2744119E+03  0.7818608E-02  0.1098781E+00
          4   -1    0    0  501    0  0.00000000000E+00  0.00000000000E+00  0.46873200045E+03  0.46873200045E+03  0.00000000000E+00 0. -1.
         -4   -1    0    0    0  501 -0.00000000000E+00 -0.00000000000E+00 -0.40162553092E+02  0.40162553092E+02  0.00000000000E+00 0. -1.
         36    2    1    2    0    0 -0.17763568394E-14  0.00000000000E+00  0.42856944736E+03  0.50889455354E+03  0.27441190830E+03 0.  0.
         25    2    3    3    0    0  0.66934042710E+01 -0.52441897080E+02  0.13874596843E+03  0.18886477167E+03  0.11672405061E+03 0.  0.
         25    2    3    3    0    0 -0.66934042710E+01  0.52441897080E+02  0.28982347892E+03  0.32002978187E+03  0.12500583234E+03 0.  0.
          5    1    4    4  502    0  0.20387823456E+02 -0.46430535520E+02  0.15685352131E+03  0.16491384151E+03  0.47000000000E+01 0. -1.
         -5    1    4    4    0  502 -0.13694419185E+02 -0.60113615599E+01 -0.18107552874E+02  0.23950930163E+02  0.47000000000E+01 0. -1.
          5    1    5    5  503    0 -0.23584938738E+02 -0.76609625189E+01  0.18257418537E+01  0.25305394984E+02  0.47000000000E+01 0. -1.
         -5    1    5    5    0  503  0.16891534467E+02  0.60102859599E+02  0.28799773707E+03  0.29472438689E+03  0.47000000000E+01 0. -1.
<mgrwt>
<rscale>  0 0.27441191E+03</rscale>
<asrwt>0</asrwt>
<pdfrwt beam="1">  1        4 0.72112611E-01 0.27441191E+03</pdfrwt>
<pdfrwt beam="2">  1       -4 0.61788547E-02 0.27441191E+03</pdfrwt>
<totfact> 0.56613422E+02</totfact>
</mgrwt>
</event>
<event>
 9    1  0.2073852E-002  0.2754374E+03  0.7818608E-02  0.1098207E+00
         -1   -1    0    0    0  501 -0.00000000000E+00  0.00000000000E+00  0.27070953877E+03  0.27070953877E+03  0.00000000000E+00 0.  1.
          1   -1    0    0  501    0  0.00000000000E+00 -0.00000000000E+00 -0.70061981959E+02  0.70061981959E+02  0.00000000000E+00 0.  1.
         36    2    1    2    0    0 -0.35527136788E-14  0.00000000000E+00  0.20064755681E+03  0.34077152073E+03  0.27543744714E+03 0.  0.
         25    2    3    3    0    0 -0.23012996687E+02 -0.50779642719E+02  0.81347817096E+02  0.15977957853E+03  0.12571346880E+03 0.  0.
         25    2    3    3    0    0  0.23012996687E+02  0.50779642719E+02  0.11929973971E+03  0.18099194220E+03  0.12416716601E+03 0.  0.
          5    1    4    4  502    0 -0.11228312628E+02 -0.61278661612E+01 -0.33359560787E+02  0.36035760628E+02  0.47000000000E+01 0. -1.
         -5    1    4    4    0  502 -0.11784684059E+02 -0.44651776557E+02  0.11470737788E+03  0.12374381790E+03  0.47000000000E+01 0. -1.
          5    1    5    5  503    0  0.24760773313E+02  0.88023232811E+02  0.55853608219E+02  0.10725157789E+03  0.47000000000E+01 0.  1.
         -5    1    5    5    0  503 -0.17477766260E+01 -0.37243590093E+02  0.63446131493E+02  0.73740364303E+02  0.47000000000E+01 0.  1.
<mgrwt>
<rscale>  0 0.27543745E+03</rscale>
<asrwt>0</asrwt>
<pdfrwt beam="1">  1        1 0.10778767E-01 0.27543745E+03</pdfrwt>
<pdfrwt beam="2">  1       -1 0.41647621E-01 0.27543745E+03</pdfrwt>
<totfact> 0.33143943E+03</totfact>
</mgrwt>
</event>
<event>
 9    1  0.2073852E-002  0.2749784E+03  0.7818608E-02  0.1098464E+00
          2   -1    0    0  501    0  0.00000000000E+00  0.00000000000E+00  0.81940587633E+03  0.81940587633E+03  0.00000000000E+00 0. -1.
         -2   -1    0    0    0  501 -0.00000000000E+00 -0.00000000000E+00 -0.23069503606E+02  0.23069503606E+02  0.00000000000E+00 0. -1.
         36    2    1    2    0    0 -0.71054273576E-14  0.00000000000E+00  0.79633637272E+03  0.84247537993E+03  0.27497844874E+03 0.  0.
         25    2    3    3    0    0 -0.52588062511E+02  0.17542390285E+00  0.34140457107E+03  0.36788647150E+03  0.12656160427E+03 0.  0.
         25    2    3    3    0    0  0.52588062511E+02 -0.17542390285E+00  0.45493180165E+03  0.47458890843E+03  0.12452370360E+03 0.  0.
          5    1    4    4  502    0 -0.28903257806E+02  0.53228764585E+02  0.26450203218E+03  0.27138923103E+03  0.47000000000E+01 0. -1.
         -5    1    4    4    0  502 -0.23684804706E+02 -0.53053340682E+02  0.76902538890E+02  0.96497240474E+02  0.47000000000E+01 0. -1.
          5    1    5    5  503    0  0.38145205191E+02 -0.61153137803E+02  0.25254340348E+03  0.26266903812E+03  0.47000000000E+01 0. -1.
         -5    1    5    5    0  503  0.14442857320E+02  0.60977713901E+02  0.20238839817E+03  0.21191987031E+03  0.47000000000E+01 0. -1.
<mgrwt>
<rscale>  0 0.27497845E+03</rscale>
<asrwt>0</asrwt>
<pdfrwt beam="1">  1        2 0.12606242E+00 0.27497845E+03</pdfrwt>
<pdfrwt beam="2">  1       -2 0.35491550E-02 0.27497845E+03</pdfrwt>
<totfact> 0.11283797E+04</totfact>
</mgrwt>
</event>
<event>
 9    1  0.2073852E-002  0.2748245E+03  0.7818608E-02  0.1098550E+00
          3   -1    0    0  501    0  0.00000000000E+00  0.00000000000E+00  0.93556569869E+02  0.93556569869E+02  0.00000000000E+00 0.  1.
         -3   -1    0    0    0  501 -0.00000000000E+00 -0.00000000000E+00 -0.20182575213E+03  0.20182575213E+03  0.00000000000E+00 0.  1.
         36    2    1    2    0    0  0.00000000000E+00 -0.71054273576E-14 -0.10826918226E+03  0.29538232200E+03  0.27482449004E+03 0.  0.
         25    2    3    3    0    0  0.93291157110E+01 -0.46016881080E+02 -0.83866379074E+02  0.16013388679E+03  0.12808085890E+03 0.  0.
         25    2    3    3    0    0 -0.93291157110E+01  0.46016881080E+02 -0.24402803191E+02  0.13524843521E+03  0.12446709075E+03 0.  0.
          5    1    4    4  502    0  0.42431954186E+02 -0.37454630376E+02  0.12171707534E+02  0.58082359947E+02  0.47000000000E+01 0.  1.
         -5    1    4    4    0  502 -0.33102838475E+02 -0.85622507044E+01 -0.96038086608E+02  0.10205152685E+03  0.47000000000E+01 0.  1.
          5    1    5    5  503    0  0.34307699384E+02  0.54875961110E+02  0.24118186656E+02  0.69225474157E+02  0.47000000000E+01 0. -1.
         -5    1    5    5    0  503 -0.43636815095E+02 -0.88590800293E+01 -0.48520989847E+02  0.66022961053E+02  0.47000000000E+01 0. -1.
<mgrwt>
<rscale>  0 0.27482449E+03</rscale>
<asrwt>0</asrwt>
<pdfrwt beam="1">  1        3 0.14393319E-01 0.27482449E+03</pdfrwt>
<pdfrwt beam="2">  1       -3 0.31050116E-01 0.27482449E+03</pdfrwt>
<totfact> 0.10202460E+03</totfact>
</mgrwt>
</event>
<event>
 9    1  0.2073852E-002  0.2753783E+03  0.7818608E-02  0.1098240E+00
          2   -1    0    0  501    0  0.00000000000E+00  0.00000000000E+00  0.60196121296E+03  0.60196121296E+03  0.00000000000E+00 0. -1.
         -2   -1    0    0    0  501 -0.00000000000E+00 -0.00000000000E+00 -0.31494234820E+02  0.31494234820E+02  0.00000000000E+00 0. -1.
         36    2    1    2    0    0  0.17763568394E-14  0.35527136788E-14  0.57046697814E+03  0.63345544778E+03  0.27537834188E+03 0.  0.
         25    2    3    3    0    0  0.10983993542E+02  0.28716212494E+02  0.15394899507E+03  0.19914919058E+03  0.12253504825E+03 0.  0.
         25    2    3    3    0    0 -0.10983993542E+02 -0.28716212494E+02  0.41651798307E+03  0.43430625721E+03  0.11911937647E+03 0.  0.
          5    1    4    4  502    0  0.63440041348E+02 -0.74271086298E+00  0.59741662205E+02  0.87271683086E+02  0.47000000000E+01 0.  1.
         -5    1    4    4    0  502 -0.52456047806E+02  0.29458923357E+02  0.94207332866E+02  0.11187750749E+03  0.47000000000E+01 0.  1.
          5    1    5    5  503    0 -0.74423580930E+01 -0.13808674410E+02  0.41789904777E+03  0.41821976557E+03  0.47000000000E+01 0.  1.
         -5    1    5    5    0  503 -0.35416354493E+01 -0.14907538085E+02 -0.13810647029E+01  0.16086491635E+02  0.47000000000E+01 0.  1.
<mgrwt>
<rscale>  0 0.27537834E+03</rscale>
<asrwt>0</asrwt>
<pdfrwt beam="1">  1        2 0.92609409E-01 0.27537834E+03</pdfrwt>
<pdfrwt beam="2">  1       -2 0.48452673E-02 0.27537834E+03</pdfrwt>
<totfact> 0.10277224E+04</totfact>
</mgrwt>
</event>
