<event>
 9    1  0.7997082E-001  0.2734126E+03  0.7818608E-02  0.1099342E+00
          2   -1    0    0  501    0  0.00000000000E+00  0.00000000000E+00  0.15208844665E+04  0.15208844665E+04  0.00000000000E+00 0. -1.
         -2   -1    0    0    0  501 -0.00000000000E+00 -0.00000000000E+00 -0.12287987073E+02  0.12287987073E+02  0.00000000000E+00 0. -1.
         35    2    1    2    0    0  0.00000000000E+00  0.00000000000E+00  0.15085964794E+04  0.15331724536E+04  0.27341257223E+03 0.  0.
         25    2    3    3    0    0  0.76140025383E+01 -0.36978050659E+02  0.94989761990E+03  0.95890722613E+03  0.12558754224E+03 0.  0.
         25    2    3    3    0    0 -0.76140025383E+01  0.36978050659E+02  0.55869885955E+03  0.57426522746E+03  0.12732158713E+03 0.  0.
          5    1    4    4  502    0 -0.16864136501E+02  0.14077334301E+02  0.76832506073E+03  0.76865340654E+03  0.47000000000E+01 0. -1.
         -5    1    4    4    0  502  0.24478139039E+02 -0.51055384960E+02  0.18157255917E+03  0.19025381959E+03  0.47000000000E+01 0. -1.
          5    1    5    5  503    0 -0.16000841621E+02 -0.32026798979E+02  0.39107938128E+03  0.39274281056E+03  0.47000000000E+01 0. -1.
         -5    1    5    5    0  503  0.83868390823E+01  0.69004849638E+02  0.16761947826E+03  0.18152241690E+03  0.47000000000E+01 0. -1.
<mgrwt>
<rscale>  0 0.27341257E+03</rscale>
<asrwt>0</asrwt>
<pdfrwt beam="1">  1        2 0.23398208E+00 0.27341257E+03</pdfrwt>
<pdfrwt beam="2">  1       -2 0.18904608E-02 0.27341257E+03</pdfrwt>
<totfact> 0.11166928E+04</totfact>
</mgrwt>
</event>
<event>
 9    1  0.7997082E-001  0.2721290E+03  0.7818608E-02  0.1100067E+00
          2   -1    0    0  501    0  0.00000000000E+00  0.00000000000E+00  0.47330732890E+03  0.47330732890E+03  0.00000000000E+00 0. -1.
         -2   -1    0    0    0  501 -0.00000000000E+00 -0.00000000000E+00 -0.39115266158E+02  0.39115266158E+02  0.00000000000E+00 0. -1.
         35    2    1    2    0    0  0.71054273576E-14 -0.71054273576E-14  0.43419206275E+03  0.51242259506E+03  0.27212895579E+03 0.  0.
         25    2    3    3    0    0  0.12025322783E+01 -0.56910849754E+02  0.20136144799E+03  0.24232395366E+03  0.12220546173E+03 0.  0.
         25    2    3    3    0    0 -0.12025322783E+01  0.56910849754E+02  0.23283061475E+03  0.27009864140E+03  0.12451060202E+03 0.  0.
          5    1    4    4  502    0 -0.30574103054E+02 -0.76386190497E+02  0.78378172973E+02  0.11373149904E+03  0.47000000000E+01 0. -1.
         -5    1    4    4    0  502  0.31776635333E+02  0.19475340743E+02  0.12298327502E+03  0.12859245462E+03  0.47000000000E+01 0. -1.
          5    1    5    5  503    0  0.36900645362E+02  0.32107801607E+02  0.21077717898E+02  0.53468951214E+02  0.47000000000E+01 0. -1.
         -5    1    5    5    0  503 -0.38103177640E+02  0.24803048148E+02  0.21175289686E+03  0.21662969019E+03  0.47000000000E+01 0. -1.
<mgrwt>
<rscale>  0 0.27212896E+03</rscale>
<asrwt>0</asrwt>
<pdfrwt beam="1">  1        2 0.72816508E-01 0.27212896E+03</pdfrwt>
<pdfrwt beam="2">  1       -2 0.60177336E-02 0.27212896E+03</pdfrwt>
<totfact> 0.96924003E+03</totfact>
</mgrwt>
</event>
<event>
 9    1  0.7997082E-001  0.2751342E+03  0.7818608E-02  0.1098377E+00
          2   -1    0    0  501    0  0.00000000000E+00  0.00000000000E+00  0.18510538373E+04  0.18510538373E+04  0.00000000000E+00 0. -1.
         -2   -1    0    0    0  501 -0.00000000000E+00 -0.00000000000E+00 -0.10223751144E+02  0.10223751144E+02  0.00000000000E+00 0. -1.
         35    2    1    2    0    0  0.71054273576E-14  0.00000000000E+00  0.18408300862E+04  0.18612775884E+04  0.27513424931E+03 0.  0.
         25    2    3    3    0    0 -0.40697418840E+02  0.43172319008E+02  0.94288612456E+03  0.95299026563E+03  0.12504428608E+03 0.  0.
         25    2    3    3    0    0  0.40697418840E+02 -0.43172319008E+02  0.89794396160E+03  0.90828732281E+03  0.12313559021E+03 0.  0.
          5    1    4    4  502    0 -0.57524881670E+02  0.38318011279E+02  0.23817725031E+03  0.24804812953E+03  0.47000000000E+01 0.  1.
         -5    1    4    4    0  502  0.16827462829E+02  0.48543077297E+01  0.70470887425E+03  0.70494213610E+03  0.47000000000E+01 0.  1.
          5    1    5    5  503    0  0.33159943227E+02 -0.66190109831E+02  0.85892517844E+03  0.86212253458E+03  0.47000000000E+01 0.  1.
         -5    1    5    5    0  503  0.75374756132E+01  0.23017790823E+02  0.39018783161E+02  0.46164788230E+02  0.47000000000E+01 0.  1.
<mgrwt>
<rscale>  0 0.27513425E+03</rscale>
<asrwt>0</asrwt>
<pdfrwt beam="1">  1        2 0.28477725E+00 0.27513425E+03</pdfrwt>
<pdfrwt beam="2">  1       -2 0.15728863E-02 0.27513425E+03</pdfrwt>
<totfact> 0.97918778E+03</totfact>
</mgrwt>
</event>
<event>
 9    1  0.7997082E-001  0.2745280E+03  0.7818608E-02  0.1098716E+00
          2   -1    0    0  501    0  0.00000000000E+00  0.00000000000E+00  0.94583335980E+03  0.94583335980E+03  0.00000000000E+00 0.  1.
         -2   -1    0    0    0  501 -0.00000000000E+00 -0.00000000000E+00 -0.19920422227E+02  0.19920422227E+02  0.00000000000E+00 0.  1.
         35    2    1    2    0    0  0.00000000000E+00 -0.71054273576E-14  0.92591293757E+03  0.96575378203E+03  0.27452795766E+03 0.  0.
         25    2    3    3    0    0  0.34624376577E+02  0.30430972319E+02  0.32636397176E+03  0.35155822233E+03  0.12229002451E+03 0.  0.
         25    2    3    3    0    0 -0.34624376577E+02 -0.30430972319E+02  0.59954896582E+03  0.61419555970E+03  0.12510927869E+03 0.  0.
          5    1    4    4  502    0  0.77632148066E+02  0.17491128399E+02  0.25441870675E+03  0.26661518773E+03  0.47000000000E+01 0. -1.
         -5    1    4    4    0  502 -0.43007771489E+02  0.12939843920E+02  0.71945265008E+02  0.84943034595E+02  0.47000000000E+01 0. -1.
          5    1    5    5  503    0 -0.45729469260E+01  0.46239383238E+02  0.14863005015E+03  0.15579465400E+03  0.47000000000E+01 0. -1.
         -5    1    5    5    0  503 -0.30051429651E+02 -0.76670355557E+02  0.45091891566E+03  0.45840090570E+03  0.47000000000E+01 0. -1.
<mgrwt>
<rscale>  0 0.27452796E+03</rscale>
<asrwt>0</asrwt>
<pdfrwt beam="1">  1        2 0.14551279E+00 0.27452796E+03</pdfrwt>
<pdfrwt beam="2">  1       -2 0.30646811E-02 0.27452796E+03</pdfrwt>
<totfact> 0.11613498E+04</totfact>
</mgrwt>
</event>
<event>
 9    1  0.7997082E-001  0.2769178E+03  0.7818608E-02  0.1097384E+00
          1   -1    0    0  501    0  0.00000000000E+00  0.00000000000E+00  0.45784083197E+03  0.45784083197E+03  0.00000000000E+00 0.  1.
         -1   -1    0    0    0  501 -0.00000000000E+00 -0.00000000000E+00 -0.41872339412E+02  0.41872339412E+02  0.00000000000E+00 0.  1.
         35    2    1    2    0    0 -0.35527136788E-14 -0.35527136788E-14  0.41596849256E+03  0.49971317139E+03  0.27691779801E+03 0.  0.
         25    2    3    3    0    0  0.19637494648E+02  0.24849035051E+02  0.11782654075E+03  0.17476434819E+03  0.12512544886E+03 0.  0.
         25    2    3    3    0    0 -0.19637494648E+02 -0.24849035051E+02  0.29814195181E+03  0.32494882320E+03  0.12529967489E+03 0.  0.
          5    1    4    4  502    0 -0.31341588483E+02 -0.15866886403E+02 -0.48163474983E+01  0.35767869044E+02  0.47000000000E+01 0. -1.
         -5    1    4    4    0  502  0.50979083131E+02  0.40715921453E+02  0.12264288825E+03  0.13899647914E+03  0.47000000000E+01 0. -1.
          5    1    5    5  503    0  0.26872123293E+02 -0.60793473569E+02  0.11944892613E+03  0.13677753248E+03  0.47000000000E+01 0.  1.
         -5    1    5    5    0  503 -0.46509617941E+02  0.35944438518E+02  0.17869302568E+03  0.18817129072E+03  0.47000000000E+01 0.  1.
<mgrwt>
<rscale>  0 0.27691780E+03</rscale>
<asrwt>0</asrwt>
<pdfrwt beam="1">  1        1 0.70437048E-01 0.27691780E+03</pdfrwt>
<pdfrwt beam="2">  1       -1 0.64418987E-02 0.27691780E+03</pdfrwt>
<totfact> 0.60602455E+03</totfact>
</mgrwt>
</event>
<event>
 9    1  0.7997082E-001  0.2732904E+03  0.7818608E-02  0.1099411E+00
          1   -1    0    0  501    0  0.00000000000E+00  0.00000000000E+00  0.54763775477E+02  0.54763775477E+02  0.00000000000E+00 0. -1.
         -1   -1    0    0    0  501 -0.00000000000E+00 -0.00000000000E+00 -0.34095374144E+03  0.34095374144E+03  0.00000000000E+00 0. -1.
         35    2    1    2    0    0  0.00000000000E+00  0.00000000000E+00 -0.28618996596E+03  0.39571751691E+03  0.27329042533E+03 0.  0.
         25    2    3    3    0    0  0.31064077506E+02 -0.42925597228E+02 -0.12130651161E+03  0.18202814453E+03  0.12494555547E+03 0.  0.
         25    2    3    3    0    0 -0.31064077506E+02  0.42925597228E+02 -0.16488345435E+03  0.21368937239E+03  0.12517591839E+03 0.  0.
          5    1    4    4  502    0 -0.20701459908E+01 -0.72772763501E+02 -0.11577879742E+03  0.13684655840E+03  0.47000000000E+01 0. -1.
         -5    1    4    4    0  502  0.33134223497E+02  0.29847166273E+02 -0.55277141868E+01  0.45181586132E+02  0.47000000000E+01 0. -1.
          5    1    5    5  503    0 -0.25821543555E+02  0.69679233176E+02 -0.16996767589E+03  0.18556144130E+03  0.47000000000E+01 0.  1.
         -5    1    5    5    0  503 -0.52425339514E+01 -0.26753635949E+02  0.50842215427E+01  0.28127931090E+02  0.47000000000E+01 0.  1.
<mgrwt>
<rscale>  0 0.27329043E+03</rscale>
<asrwt>0</asrwt>
<pdfrwt beam="1">  1        1 0.84251964E-02 0.27329043E+03</pdfrwt>
<pdfrwt beam="2">  1       -1 0.52454421E-01 0.27329043E+03</pdfrwt>
<totfact> 0.30307148E+03</totfact>
</mgrwt>
</event>
<event>
 9    1  0.7997082E-001  0.2772656E+03  0.7818608E-02  0.1097192E+00
          1   -1    0    0  501    0  0.00000000000E+00  0.00000000000E+00  0.89147515066E+03  0.89147515066E+03  0.00000000000E+00 0. -1.
         -1   -1    0    0    0  501 -0.00000000000E+00 -0.00000000000E+00 -0.21558711318E+02  0.21558711318E+02  0.00000000000E+00 0. -1.
         35    2    1    2    0    0  0.35527136788E-14  0.00000000000E+00  0.86991643934E+03  0.91303386198E+03  0.27726561575E+03 0.  0.
         25    2    3    3    0    0 -0.93677819473E+01  0.48468546664E+02  0.55193996766E+03  0.56804730030E+03  0.12491217761E+03 0.  0.
         25    2    3    3    0    0  0.93677819473E+01 -0.48468546664E+02  0.31797647168E+03  0.34498656168E+03  0.12437739282E+03 0.  0.
          5    1    4    4  502    0  0.52284100493E+02  0.53148721731E+01  0.14784797705E+03  0.15698085663E+03  0.47000000000E+01 0. -1.
         -5    1    4    4    0  502 -0.61651882440E+02  0.43153674491E+02  0.40409199061E+03  0.41106644366E+03  0.47000000000E+01 0. -1.
          5    1    5    5  503    0  0.22723760299E+02  0.24753053081E+02  0.21600496134E+03  0.21865341580E+03  0.47000000000E+01 0.  1.
         -5    1    5    5    0  503 -0.13355978352E+02 -0.73221599746E+02  0.10197151035E+03  0.12633314589E+03  0.47000000000E+01 0.  1.
<mgrwt>
<rscale>  0 0.27726562E+03</rscale>
<asrwt>0</asrwt>
<pdfrwt beam="1">  1        1 0.13714999E+00 0.27726562E+03</pdfrwt>
<pdfrwt beam="2">  1       -1 0.33167255E-02 0.27726562E+03</pdfrwt>
<totfact> 0.62986024E+03</totfact>
</mgrwt>
</event>
<event>
 9    1  0.7997082E-001  0.2727709E+03  0.7818608E-02  0.1099704E+00
          2   -1    0    0  501    0  0.00000000000E+00  0.00000000000E+00  0.13323000277E+04  0.13323000277E+04  0.00000000000E+00 0.  1.
         -2   -1    0    0    0  501 -0.00000000000E+00 -0.00000000000E+00 -0.13961566174E+02  0.13961566174E+02  0.00000000000E+00 0.  1.
         35    2    1    2    0    0 -0.71054273576E-14 -0.14210854715E-13  0.13183384615E+04  0.13462615938E+04  0.27277092953E+03 0.  0.
         25    2    3    3    0    0  0.34209567353E+02 -0.41470084587E+02  0.61408938146E+03  0.62895466110E+03  0.12485245247E+03 0.  0.
         25    2    3    3    0    0 -0.34209567353E+02  0.41470084587E+02  0.70424908002E+03  0.71730693273E+03  0.12518948282E+03 0.  0.
          5    1    4    4  502    0 -0.89985047454E+01  0.61816093348E+01  0.48013647539E+03  0.48028357288E+03  0.47000000000E+01 0.  1.
         -5    1    4    4    0  502  0.43208072098E+02 -0.47651693921E+02  0.13395290607E+03  0.14867108822E+03  0.47000000000E+01 0.  1.
          5    1    5    5  503    0  0.93886227720E+01 -0.40868659821E+02  0.18572613409E+03  0.19045913072E+03  0.47000000000E+01 0.  1.
         -5    1    5    5    0  503 -0.43598190125E+02  0.82338744408E+02  0.51852294594E+03  0.52684780200E+03  0.47000000000E+01 0.  1.
<mgrwt>
<rscale>  0 0.27277093E+03</rscale>
<asrwt>0</asrwt>
<pdfrwt beam="1">  1        2 0.20496913E+00 0.27277093E+03</pdfrwt>
<pdfrwt beam="2">  1       -2 0.21479343E-02 0.27277093E+03</pdfrwt>
<totfact> 0.11704278E+04</totfact>
</mgrwt>
</event>
<event>
 9    1  0.7997082E-001  0.2707802E+03  0.7818608E-02  0.1100834E+00
         -2   -1    0    0    0  501 -0.00000000000E+00  0.00000000000E+00  0.48337338385E+01  0.48337338385E+01  0.00000000000E+00 0. -1.
          2   -1    0    0  501    0  0.00000000000E+00 -0.00000000000E+00 -0.37921992993E+04  0.37921992993E+04  0.00000000000E+00 0. -1.
         35    2    1    2    0    0 -0.71054273576E-14  0.00000000000E+00 -0.37873655655E+04  0.37970330332E+04  0.27078022140E+03 0.  0.
         25    2    3    3    0    0 -0.23259948407E+02  0.45394293181E+02 -0.14357142127E+04  0.14414796225E+04  0.11826468057E+03 0.  0.
         25    2    3    3    0    0  0.23259948407E+02 -0.45394293181E+02 -0.23516513528E+04  0.23555534107E+04  0.12556320345E+03 0.  0.
          5    1    4    4  502    0 -0.21907089130E+02 -0.36440860208E+02 -0.33567598814E+03  0.33839077390E+03  0.47000000000E+01 0.  1.
         -5    1    4    4    0  502 -0.13528592769E+01  0.81835153389E+02 -0.11000382245E+04  0.11030888486E+04  0.47000000000E+01 0.  1.
          5    1    5    5  503    0  0.49752878370E+02 -0.73359813665E+02 -0.12142062372E+04  0.12174464619E+04  0.47000000000E+01 0.  1.
         -5    1    5    5    0  503 -0.26492929964E+02  0.27965520484E+02 -0.11374451157E+04  0.11381069488E+04  0.47000000000E+01 0.  1.
<mgrwt>
<rscale>  0 0.27078022E+03</rscale>
<asrwt>0</asrwt>
<pdfrwt beam="1">  1        2 0.58341412E+00 0.27078022E+03</pdfrwt>
<pdfrwt beam="2">  1       -2 0.74365284E-03 0.27078022E+03</pdfrwt>
<totfact> 0.20911014E+03</totfact>
</mgrwt>
</event>
<event>
 9    1  0.7997082E-001  0.2755928E+03  0.7818608E-02  0.1098121E+00
          2   -1    0    0  501    0  0.00000000000E+00  0.00000000000E+00  0.13733208844E+04  0.13733208844E+04  0.00000000000E+00 0. -1.
         -2   -1    0    0    0  501 -0.00000000000E+00 -0.00000000000E+00 -0.13826229507E+02  0.13826229507E+02  0.00000000000E+00 0. -1.
         35    2    1    2    0    0 -0.17763568394E-14 -0.71054273576E-14  0.13594946549E+04  0.13871471139E+04  0.27559281366E+03 0.  0.
         25    2    3    3    0    0  0.15584045717E+02 -0.32217017746E+02  0.45006552867E+03  0.46852499335E+03  0.12520339684E+03 0.  0.
         25    2    3    3    0    0 -0.15584045717E+02  0.32217017746E+02  0.90942912625E+03  0.91862212059E+03  0.12459721524E+03 0.  0.
          5    1    4    4  502    0 -0.75522607433E+01 -0.64633545637E+02  0.12506675142E+03  0.14106138442E+03  0.47000000000E+01 0.  1.
         -5    1    4    4    0  502  0.23136306460E+02  0.32416527890E+02  0.32499877726E+03  0.32746360893E+03  0.47000000000E+01 0.  1.
          5    1    5    5  503    0  0.62328635596E+00  0.12120015140E+02  0.52039379485E+01  0.14016212864E+02  0.47000000000E+01 0.  1.
         -5    1    5    5    0  503 -0.16207332073E+02  0.20097002606E+02  0.90422518830E+03  0.90460590772E+03  0.47000000000E+01 0.  1.
<mgrwt>
<rscale>  0 0.27559281E+03</rscale>
<asrwt>0</asrwt>
<pdfrwt beam="1">  1        2 0.21128003E+00 0.27559281E+03</pdfrwt>
<pdfrwt beam="2">  1       -2 0.21271133E-02 0.27559281E+03</pdfrwt>
<totfact> 0.11277711E+04</totfact>
</mgrwt>
</event>
<event>
 9    1  0.7997082E-001  0.2885772E+03  0.7818608E-02  0.1091094E+00
         -2   -1    0    0    0  501 -0.00000000000E+00  0.00000000000E+00  0.15492556558E+02  0.15492556558E+02  0.00000000000E+00 0.  1.
          2   -1    0    0  501    0  0.00000000000E+00 -0.00000000000E+00 -0.13438198794E+04  0.13438198794E+04  0.00000000000E+00 0.  1.
         35    2    1    2    0    0  0.35527136788E-14  0.00000000000E+00 -0.13283273228E+04  0.13593124360E+04  0.28857723739E+03 0.  0.
         25    2    3    3    0    0 -0.25162545135E+02 -0.45466303977E+02 -0.89099824732E+03  0.90133312600E+03  0.12579025726E+03 0.  0.
         25    2    3    3    0    0  0.25162545135E+02  0.45466303977E+02 -0.43732907552E+03  0.45797930996E+03  0.12565026693E+03 0.  0.
          5    1    4    4  502    0  0.15150932858E+02 -0.42388760956E+02 -0.80411973077E+03  0.80539244424E+03  0.47000000000E+01 0. -1.
         -5    1    4    4    0  502 -0.40313477992E+02 -0.30775430214E+01 -0.86878516547E+02  0.95940681759E+02  0.47000000000E+01 0. -1.
          5    1    5    5  503    0  0.57624318740E+02  0.26360945470E+02 -0.39902555382E+03  0.40405314522E+03  0.47000000000E+01 0.  1.
         -5    1    5    5    0  503 -0.32461773606E+02  0.19105358508E+02 -0.38303521704E+02  0.53926164747E+02  0.47000000000E+01 0.  1.
<mgrwt>
<rscale>  0 0.28857724E+03</rscale>
<asrwt>0</asrwt>
<pdfrwt beam="1">  1        2 0.20674155E+00 0.28857724E+03</pdfrwt>
<pdfrwt beam="2">  1       -2 0.23834698E-02 0.28857724E+03</pdfrwt>
<totfact> 0.99045579E+03</totfact>
</mgrwt>
</event>
<event>
 9    1  0.7997082E-001  0.2932291E+03  0.7818608E-02  0.1088675E+00
          1   -1    0    0  501    0  0.00000000000E+00  0.00000000000E+00  0.15988744212E+04  0.15988744212E+04  0.00000000000E+00 0.  1.
         -1   -1    0    0    0  501 -0.00000000000E+00 -0.00000000000E+00 -0.13444345095E+02  0.13444345095E+02  0.00000000000E+00 0.  1.
         35    2    1    2    0    0  0.71054273576E-14  0.35527136788E-14  0.15854300762E+04  0.16123187663E+04  0.29322905369E+03 0.  0.
         25    2    3    3    0    0 -0.27447959865E+02  0.91657047673E+01  0.39933851111E+03  0.41938117656E+03  0.12478751601E+03 0.  0.
         25    2    3    3    0    0  0.27447959865E+02 -0.91657047673E+01  0.11860915650E+04  0.11929375898E+04  0.12429598469E+03 0.  0.
          5    1    4    4  502    0  0.43743775253E+02  0.27681639838E+02  0.20632360864E+03  0.21277056314E+03  0.47000000000E+01 0. -1.
         -5    1    4    4    0  502 -0.71191735118E+02 -0.18515935070E+02  0.19301490247E+03  0.20661061342E+03  0.47000000000E+01 0. -1.
          5    1    5    5  503    0  0.48311245855E+02 -0.55763902569E+02  0.58261128145E+03  0.58728322348E+03  0.47000000000E+01 0.  1.
         -5    1    5    5    0  503 -0.20863285990E+02  0.46598197802E+02  0.60348028359E+03  0.60565436630E+03  0.47000000000E+01 0.  1.
<mgrwt>
<rscale>  0 0.29322905E+03</rscale>
<asrwt>0</asrwt>
<pdfrwt beam="1">  1        1 0.24598053E+00 0.29322905E+03</pdfrwt>
<pdfrwt beam="2">  1       -1 0.20683620E-02 0.29322905E+03</pdfrwt>
<totfact> 0.40207640E+03</totfact>
</mgrwt>
</event>
<event>
 9    1  0.7997082E-001  0.2776368E+03  0.7818608E-02  0.1096987E+00
          2   -1    0    0  501    0  0.00000000000E+00  0.00000000000E+00  0.83442290449E+03  0.83442290449E+03  0.00000000000E+00 0. -1.
         -2   -1    0    0    0  501 -0.00000000000E+00 -0.00000000000E+00 -0.23094465391E+02  0.23094465391E+02  0.00000000000E+00 0. -1.
         35    2    1    2    0    0  0.71054273576E-14  0.71054273576E-14  0.81132843910E+03  0.85751736989E+03  0.27763681953E+03 0.  0.
         25    2    3    3    0    0 -0.39452056289E+02 -0.44599816905E+02  0.37587940565E+03  0.40059001352E+03  0.12506567446E+03 0.  0.
         25    2    3    3    0    0  0.39452056289E+02  0.44599816905E+02  0.43544903345E+03  0.45692735636E+03  0.12498455843E+03 0.  0.
          5    1    4    4  502    0 -0.53578137815E+02  0.24907831928E+02  0.24034755782E+03  0.24754808724E+03  0.47000000000E+01 0.  1.
         -5    1    4    4    0  502  0.14126081526E+02 -0.69507648833E+02  0.13553184783E+03  0.15304192629E+03  0.47000000000E+01 0.  1.
          5    1    5    5  503    0 -0.12616081519E+02  0.27309633017E+02  0.37062142781E+03  0.37187002342E+03  0.47000000000E+01 0.  1.
         -5    1    5    5    0  503  0.52068137808E+02  0.17290183888E+02  0.64827605645E+02  0.85057332943E+02  0.47000000000E+01 0.  1.
<mgrwt>
<rscale>  0 0.27763682E+03</rscale>
<asrwt>0</asrwt>
<pdfrwt beam="1">  1        2 0.12837273E+00 0.27763682E+03</pdfrwt>
<pdfrwt beam="2">  1       -2 0.35529953E-02 0.27763682E+03</pdfrwt>
<totfact> 0.11008259E+04</totfact>
</mgrwt>
</event>
<event>
 9    1  0.7997082E-001  0.2790641E+03  0.7818608E-02  0.1096201E+00
         -2   -1    0    0    0  501 -0.00000000000E+00  0.00000000000E+00  0.24736922124E+02  0.24736922124E+02  0.00000000000E+00 0.  1.
          2   -1    0    0  501    0  0.00000000000E+00 -0.00000000000E+00 -0.78704974405E+03  0.78704974405E+03  0.00000000000E+00 0.  1.
         35    2    1    2    0    0  0.00000000000E+00  0.35527136788E-14 -0.76231282193E+03  0.81178666618E+03  0.27906406595E+03 0.  0.
         25    2    3    3    0    0 -0.31407907309E+02 -0.29901634017E+02 -0.51095494714E+03  0.52778654066E+03  0.12491240987E+03 0.  0.
         25    2    3    3    0    0  0.31407907309E+02  0.29901634017E+02 -0.25135787479E+03  0.28400012551E+03  0.12487884414E+03 0.  0.
          5    1    4    4  502    0  0.36437211332E+02  0.23795607157E+02 -0.13268023517E+03  0.13971412275E+03  0.47000000000E+01 0. -1.
         -5    1    4    4    0  502 -0.67845118641E+02 -0.53697241174E+02 -0.37827471197E+03  0.38807241792E+03  0.47000000000E+01 0. -1.
          5    1    5    5  503    0 -0.20890050906E+02 -0.27330261991E+02 -0.16166715683E+03  0.16535324927E+03  0.47000000000E+01 0. -1.
         -5    1    5    5    0  503  0.52297958216E+02  0.57231896007E+02 -0.89690717965E+02  0.11864687625E+03  0.47000000000E+01 0. -1.
<mgrwt>
<rscale>  0 0.27906407E+03</rscale>
<asrwt>0</asrwt>
<pdfrwt beam="1">  1        2 0.12108456E+00 0.27906407E+03</pdfrwt>
<pdfrwt beam="2">  1       -2 0.38056809E-02 0.27906407E+03</pdfrwt>
<totfact> 0.10704017E+04</totfact>
</mgrwt>
</event>
<event>
 9    1  0.7997082E-001  0.2727376E+03  0.7818608E-02  0.1099723E+00
         -1   -1    0    0    0  501 -0.00000000000E+00  0.00000000000E+00  0.14003000946E+03  0.14003000946E+03  0.00000000000E+00 0. -1.
          1   -1    0    0  501    0  0.00000000000E+00 -0.00000000000E+00 -0.13280333237E+03  0.13280333237E+03  0.00000000000E+00 0. -1.
         35    2    1    2    0    0  0.00000000000E+00 -0.71054273576E-14  0.72266770907E+01  0.27283334182E+03  0.27273761667E+03 0.  0.
         25    2    3    3    0    0 -0.23912525293E+02 -0.23976005833E+02  0.45718731053E+02  0.13708837870E+03  0.12472515177E+03 0.  0.
         25    2    3    3    0    0  0.23912525293E+02  0.23976005833E+02 -0.38492053962E+02  0.13574496313E+03  0.12569168260E+03 0.  0.
          5    1    4    4  502    0 -0.56064747890E+02 -0.44816778281E+02 -0.64184903481E+01  0.72215556425E+02  0.47000000000E+01 0.  1.
         -5    1    4    4    0  502  0.32152222597E+02  0.20840772448E+02  0.52137221401E+02  0.64872822272E+02  0.47000000000E+01 0.  1.
          5    1    5    5  503    0  0.53152861065E+02 -0.34927688650E+02 -0.13177071618E+02  0.65122156677E+02  0.47000000000E+01 0.  1.
         -5    1    5    5    0  503 -0.29240335772E+02  0.58903694483E+02 -0.25314982344E+02  0.70622806450E+02  0.47000000000E+01 0.  1.
<mgrwt>
<rscale>  0 0.27273762E+03</rscale>
<asrwt>0</asrwt>
<pdfrwt beam="1">  1        1 0.20431282E-01 0.27273762E+03</pdfrwt>
<pdfrwt beam="2">  1       -1 0.21543078E-01 0.27273762E+03</pdfrwt>
<totfact> 0.44014064E+03</totfact>
</mgrwt>
</event>
<event>
 9    1  0.7997082E-001  0.2751533E+03  0.7818608E-02  0.1098366E+00
          2   -1    0    0  501    0  0.00000000000E+00  0.00000000000E+00  0.72220420856E+03  0.72220420856E+03  0.00000000000E+00 0. -1.
         -2   -1    0    0    0  501 -0.00000000000E+00 -0.00000000000E+00 -0.26207736169E+02  0.26207736169E+02  0.00000000000E+00 0. -1.
         35    2    1    2    0    0  0.00000000000E+00  0.00000000000E+00  0.69599647239E+03  0.74841194473E+03  0.27515331986E+03 0.  0.
         25    2    3    3    0    0 -0.41480466687E+02  0.24497436525E+01  0.23930712344E+03  0.27298010951E+03  0.12459378194E+03 0.  0.
         25    2    3    3    0    0  0.41480466687E+02 -0.24497436525E+01  0.45668934895E+03  0.47543183522E+03  0.12547365515E+03 0.  0.
          5    1    4    4  502    0 -0.17017712867E+02  0.62545062471E+02  0.10045690722E+03  0.11964600954E+03  0.47000000000E+01 0.  1.
         -5    1    4    4    0  502 -0.24462753820E+02 -0.60095318818E+02  0.13885021622E+03  0.15333409997E+03  0.47000000000E+01 0.  1.
          5    1    5    5  503    0  0.59356773861E+02 -0.50371710917E+02  0.32121322588E+03  0.33054585513E+03  0.47000000000E+01 0. -1.
         -5    1    5    5    0  503 -0.17876307174E+02  0.47921967264E+02  0.13547612307E+03  0.14488598009E+03  0.47000000000E+01 0. -1.
<mgrwt>
<rscale>  0 0.27515332E+03</rscale>
<asrwt>0</asrwt>
<pdfrwt beam="1">  1        2 0.11110832E+00 0.27515332E+03</pdfrwt>
<pdfrwt beam="2">  1       -2 0.40319600E-02 0.27515332E+03</pdfrwt>
<totfact> 0.10917546E+04</totfact>
</mgrwt>
</event>
<event>
 9    1  0.7997082E-001  0.2790129E+03  0.7818608E-02  0.1096229E+00
          2   -1    0    0  501    0  0.00000000000E+00  0.00000000000E+00  0.14280875814E+04  0.14280875814E+04  0.00000000000E+00 0.  1.
         -2   -1    0    0    0  501 -0.00000000000E+00 -0.00000000000E+00 -0.13628050855E+02  0.13628050855E+02  0.00000000000E+00 0.  1.
         35    2    1    2    0    0  0.00000000000E+00 -0.71054273576E-14  0.14144595306E+04  0.14417156323E+04  0.27901290426E+03 0.  0.
         25    2    3    3    0    0  0.45644475150E+02  0.37854574976E+02  0.70573608815E+03  0.71922531016E+03  0.12532052385E+03 0.  0.
         25    2    3    3    0    0 -0.45644475150E+02 -0.37854574976E+02  0.70872344242E+03  0.72249032212E+03  0.12722798735E+03 0.  0.
          5    1    4    4  502    0  0.51708360145E+02 -0.35636755139E+02  0.38264800564E+03  0.38779546032E+03  0.47000000000E+01 0.  1.
         -5    1    4    4    0  502 -0.60638849949E+01  0.73491330115E+02  0.32308808251E+03  0.33142984984E+03  0.47000000000E+01 0.  1.
          5    1    5    5  503    0 -0.37208477342E+02  0.41311541745E+02  0.38843047824E+03  0.39241743168E+03  0.47000000000E+01 0.  1.
         -5    1    5    5    0  503 -0.84359978078E+01 -0.79166116720E+02  0.32029296418E+03  0.33007289043E+03  0.47000000000E+01 0.  1.
<mgrwt>
<rscale>  0 0.27901290E+03</rscale>
<asrwt>0</asrwt>
<pdfrwt beam="1">  1        2 0.21970566E+00 0.27901290E+03</pdfrwt>
<pdfrwt beam="2">  1       -2 0.20966243E-02 0.27901290E+03</pdfrwt>
<totfact> 0.10760475E+04</totfact>
</mgrwt>
</event>
<event>
 9    1  0.7997082E-001  0.2753955E+03  0.7818608E-02  0.1098231E+00
         -2   -1    0    0    0  501 -0.00000000000E+00  0.00000000000E+00  0.10890525852E+02  0.10890525852E+02  0.00000000000E+00 0. -1.
          2   -1    0    0  501    0  0.00000000000E+00 -0.00000000000E+00 -0.17410245028E+04  0.17410245028E+04  0.00000000000E+00 0. -1.
         35    2    1    2    0    0  0.00000000000E+00  0.17763568394E-14 -0.17301339770E+04  0.17519150287E+04  0.27539551454E+03 0.  0.
         25    2    3    3    0    0 -0.49408464857E+02  0.17281287931E+01 -0.10498450857E+04  0.10584759273E+04  0.12550857308E+03 0.  0.
         25    2    3    3    0    0  0.49408464857E+02 -0.17281287931E+01 -0.68028889125E+03  0.69343910134E+03  0.12498251427E+03 0.  0.
          5    1    4    4  502    0 -0.28948169024E+02 -0.57611144076E+02 -0.70297655551E+03  0.70594275123E+03  0.47000000000E+01 0. -1.
         -5    1    4    4    0  502 -0.20460295832E+02  0.59339272869E+02 -0.34686853021E+03  0.35253317611E+03  0.47000000000E+01 0. -1.
          5    1    5    5  503    0 -0.41555810344E+02 -0.98142563113E+01 -0.21474566445E+03  0.21899998950E+03  0.47000000000E+01 0.  1.
         -5    1    5    5    0  503  0.90964275201E+02  0.80861275182E+01 -0.46554322680E+03  0.47443911184E+03  0.47000000000E+01 0.  1.
<mgrwt>
<rscale>  0 0.27539551E+03</rscale>
<asrwt>0</asrwt>
<pdfrwt beam="1">  1        2 0.26784971E+00 0.27539551E+03</pdfrwt>
<pdfrwt beam="2">  1       -2 0.16754668E-02 0.27539551E+03</pdfrwt>
<totfact> 0.10196717E+04</totfact>
</mgrwt>
</event>
<event>
 9    1  0.7997082E-001  0.2749104E+03  0.7818608E-02  0.1098502E+00
         -2   -1    0    0    0  501 -0.00000000000E+00  0.00000000000E+00  0.12125807511E+03  0.12125807511E+03  0.00000000000E+00 0.  1.
          2   -1    0    0  501    0  0.00000000000E+00 -0.00000000000E+00 -0.15581582752E+03  0.15581582752E+03  0.00000000000E+00 0.  1.
         35    2    1    2    0    0 -0.35527136788E-14  0.14210854715E-13 -0.34557752405E+02  0.27707390263E+03  0.27491036588E+03 0.  0.
         25    2    3    3    0    0  0.21256434675E+02  0.49291793583E+02 -0.28807955030E+02  0.13899109688E+03  0.12492841874E+03 0.  0.
         25    2    3    3    0    0 -0.21256434675E+02 -0.49291793583E+02 -0.57497973748E+01  0.13808280575E+03  0.12709163680E+03 0.  0.
          5    1    4    4  502    0  0.37816380615E+02  0.22219549970E+02 -0.72452034839E+02  0.84824373832E+02  0.47000000000E+01 0. -1.
         -5    1    4    4    0  502 -0.16559945940E+02  0.27072243612E+02  0.43644079808E+02  0.54166723051E+02  0.47000000000E+01 0. -1.
          5    1    5    5  503    0  0.19885272962E+02 -0.45694753851E+02 -0.54513288247E+02  0.74008264442E+02  0.47000000000E+01 0.  1.
         -5    1    5    5    0  503 -0.41141707636E+02 -0.35970397317E+01  0.48763490872E+02  0.64074541310E+02  0.47000000000E+01 0.  1.
<mgrwt>
<rscale>  0 0.27491037E+03</rscale>
<asrwt>0</asrwt>
<pdfrwt beam="1">  1        2 0.23971666E-01 0.27491037E+03</pdfrwt>
<pdfrwt beam="2">  1       -2 0.18655088E-01 0.27491037E+03</pdfrwt>
<totfact> 0.53067886E+03</totfact>
</mgrwt>
</event>
<event>
 9    1  0.7997082E-001  0.2759770E+03  0.7818608E-02  0.1097907E+00
         -3   -1    0    0    0  501 -0.00000000000E+00  0.00000000000E+00  0.74765522557E+03  0.74765522557E+03  0.00000000000E+00 0.  1.
          3   -1    0    0  501    0  0.00000000000E+00 -0.00000000000E+00 -0.25467395837E+02  0.25467395837E+02  0.00000000000E+00 0.  1.
         35    2    1    2    0    0  0.00000000000E+00  0.00000000000E+00  0.72218782974E+03  0.77312262141E+03  0.27597703947E+03 0.  0.
         25    2    3    3    0    0  0.22725580571E+02 -0.10664976367E+02  0.22337875734E+03  0.25721540371E+03  0.12502600106E+03 0.  0.
         25    2    3    3    0    0 -0.22725580571E+02  0.10664976367E+02  0.49880907240E+03  0.51590721770E+03  0.12930418724E+03 0.  0.
          5    1    4    4  502    0 -0.82582895485E+01  0.28832805347E+02  0.22834699576E+01  0.30443952527E+02  0.47000000000E+01 0. -1.
         -5    1    4    4    0  502  0.30983870119E+02 -0.39497781714E+02  0.22109528738E+03  0.22677145118E+03  0.47000000000E+01 0. -1.
          5    1    5    5  503    0 -0.60329901909E+02  0.32949555106E+02  0.42044558248E+03  0.42605392625E+03  0.47000000000E+01 0. -1.
         -5    1    5    5    0  503  0.37604321338E+02 -0.22284578739E+02  0.78363489916E+02  0.89853291452E+02  0.47000000000E+01 0. -1.
<mgrwt>
<rscale>  0 0.27597704E+03</rscale>
<asrwt>0</asrwt>
<pdfrwt beam="1">  1        3 0.39180615E-02 0.27597704E+03</pdfrwt>
<pdfrwt beam="2">  1       -3 0.11502386E+00 0.27597704E+03</pdfrwt>
<totfact> 0.55621434E+02</totfact>
</mgrwt>
</event>
<event>
 9    1  0.7997082E-001  0.2749770E+03  0.7818608E-02  0.1098464E+00
          2   -1    0    0  501    0  0.00000000000E+00  0.00000000000E+00  0.26993018007E+04  0.26993018007E+04  0.00000000000E+00 0. -1.
         -2   -1    0    0    0  501 -0.00000000000E+00 -0.00000000000E+00 -0.70029527503E+01  0.70029527503E+01  0.00000000000E+00 0. -1.
         35    2    1    2    0    0 -0.17763568394E-14  0.00000000000E+00  0.26922988479E+04  0.27063047534E+04  0.27497696608E+03 0.  0.
         25    2    3    3    0    0 -0.13649141168E+02  0.22344111007E+02  0.82118591406E+03  0.83099015544E+03  0.12455028959E+03 0.  0.
         25    2    3    3    0    0  0.13649141168E+02 -0.22344111007E+02  0.18711129339E+04  0.18753145980E+04  0.12270155578E+03 0.  0.
          5    1    4    4  502    0 -0.35066518471E+01 -0.36932198049E+02  0.61567105625E+03  0.61680566093E+03  0.47000000000E+01 0.  1.
         -5    1    4    4    0  502 -0.10142489321E+02  0.59276309056E+02  0.20551485782E+03  0.21418449451E+03  0.47000000000E+01 0.  1.
          5    1    5    5  503    0  0.46280801205E+02 -0.31001388592E+02  0.40881318973E+03  0.41261763505E+03  0.47000000000E+01 0.  1.
         -5    1    5    5    0  503 -0.32631660037E+02  0.86572775845E+01  0.14622997441E+04  0.14626969629E+04  0.47000000000E+01 0.  1.
<mgrwt>
<rscale>  0 0.27497697E+03</rscale>
<asrwt>0</asrwt>
<pdfrwt beam="1">  1        2 0.41527637E+00 0.27497697E+03</pdfrwt>
<pdfrwt beam="2">  1       -2 0.10773795E-02 0.27497697E+03</pdfrwt>
<totfact> 0.59455531E+03</totfact>
</mgrwt>
</event>
<event>
 9    1  0.7997082E-001  0.2794206E+03  0.7818608E-02  0.1096006E+00
          1   -1    0    0  501    0  0.00000000000E+00  0.00000000000E+00  0.85724086651E+03  0.85724086651E+03  0.00000000000E+00 0. -1.
         -1   -1    0    0    0  501 -0.00000000000E+00 -0.00000000000E+00 -0.22769525993E+02  0.22769525993E+02  0.00000000000E+00 0. -1.
         35    2    1    2    0    0  0.35527136788E-14  0.14210854715E-13  0.83447134052E+03  0.88001039250E+03  0.27942060191E+03 0.  0.
         25    2    3    3    0    0 -0.23951086826E+02  0.54463163813E+02  0.45794229833E+03  0.47860999318E+03  0.12576361238E+03 0.  0.
         25    2    3    3    0    0  0.23951086826E+02 -0.54463163813E+02  0.37652904219E+03  0.40140039933E+03  0.12573094367E+03 0.  0.
          5    1    4    4  502    0 -0.19705581384E+02 -0.16637063767E+02  0.33813625009E+03  0.33915087417E+03  0.47000000000E+01 0.  1.
         -5    1    4    4    0  502 -0.42455054418E+01  0.71100227580E+02  0.11980604824E+03  0.13945911900E+03  0.47000000000E+01 0.  1.
          5    1    5    5  503    0  0.65927952358E+02 -0.67769027854E+02  0.26502092261E+03  0.28142017600E+03  0.47000000000E+01 0.  1.
         -5    1    5    5    0  503 -0.41976865531E+02  0.13305864042E+02  0.11150811958E+03  0.11998022333E+03  0.47000000000E+01 0.  1.
<mgrwt>
<rscale>  0 0.27942060E+03</rscale>
<asrwt>0</asrwt>
<pdfrwt beam="1">  1        1 0.13188319E+00 0.27942060E+03</pdfrwt>
<pdfrwt beam="2">  1       -1 0.35030047E-02 0.27942060E+03</pdfrwt>
<totfact> 0.61869254E+03</totfact>
</mgrwt>
</event>
<event>
 9    1  0.7997082E-001  0.2762262E+03  0.7818608E-02  0.1097768E+00
          2   -1    0    0  501    0  0.00000000000E+00  0.00000000000E+00  0.13212664560E+04  0.13212664560E+04  0.00000000000E+00 0. -1.
         -2   -1    0    0    0  501 -0.00000000000E+00 -0.00000000000E+00 -0.14437079519E+02  0.14437079519E+02  0.00000000000E+00 0. -1.
         35    2    1    2    0    0  0.00000000000E+00  0.00000000000E+00  0.13068293765E+04  0.13357035355E+04  0.27622620362E+03 0.  0.
         25    2    3    3    0    0  0.16408642312E+02  0.98869266955E+00  0.38859116926E+03  0.40858170364E+03  0.12516265683E+03 0.  0.
         25    2    3    3    0    0 -0.16408642312E+02 -0.98869266955E+00  0.91823820723E+03  0.92712183189E+03  0.12697741884E+03 0.  0.
          5    1    4    4  502    0  0.27025330883E+02 -0.21567886660E+02  0.38029175033E+03  0.38188931330E+03  0.47000000000E+01 0. -1.
         -5    1    4    4    0  502 -0.10616688571E+02  0.22556579330E+02  0.82994189288E+01  0.26692390336E+02  0.47000000000E+01 0. -1.
          5    1    5    5  503    0  0.34881193012E+02 -0.41656101432E+02  0.26230649033E+03  0.26791549654E+03  0.47000000000E+01 0. -1.
         -5    1    5    5    0  503 -0.51289835323E+02  0.40667408762E+02  0.65593171690E+03  0.65920633536E+03  0.47000000000E+01 0. -1.
<mgrwt>
<rscale>  0 0.27622620E+03</rscale>
<asrwt>0</asrwt>
<pdfrwt beam="1">  1        2 0.20327167E+00 0.27622620E+03</pdfrwt>
<pdfrwt beam="2">  1       -2 0.22210902E-02 0.27622620E+03</pdfrwt>
<totfact> 0.11300796E+04</totfact>
</mgrwt>
</event>
<event>
 9    1  0.7997082E-001  0.2758367E+03  0.7818608E-02  0.1097985E+00
          1   -1    0    0  501    0  0.00000000000E+00  0.00000000000E+00  0.11977030592E+03  0.11977030592E+03  0.00000000000E+00 0. -1.
         -1   -1    0    0    0  501 -0.00000000000E+00 -0.00000000000E+00 -0.15881620065E+03  0.15881620065E+03  0.00000000000E+00 0. -1.
         35    2    1    2    0    0 -0.14210854715E-13  0.35527136788E-14 -0.39045894726E+02  0.27858650656E+03  0.27583665410E+03 0.  0.
         25    2    3    3    0    0  0.57416747484E+02  0.83078215947E+01 -0.24615599983E+02  0.13976464441E+03  0.12474985079E+03 0.  0.
         25    2    3    3    0    0 -0.57416747484E+02 -0.83078215947E+01 -0.14430294743E+02  0.13882186216E+03  0.12528995656E+03 0.  0.
          5    1    4    4  502    0 -0.36252536357E+02 -0.16690924478E+02 -0.11650913995E+02  0.41840974525E+02  0.47000000000E+01 0.  1.
         -5    1    4    4    0  502  0.93669283841E+02  0.24998746073E+02 -0.12964685988E+02  0.97923669883E+02  0.47000000000E+01 0.  1.
          5    1    5    5  503    0  0.32169555854E+02 -0.30820550818E+02  0.21792199594E+01  0.44851150222E+02  0.47000000000E+01 0. -1.
         -5    1    5    5    0  503 -0.89586303338E+02  0.22512729223E+02 -0.16609514703E+02  0.93970711935E+02  0.47000000000E+01 0. -1.
<mgrwt>
<rscale>  0 0.27583665E+03</rscale>
<asrwt>0</asrwt>
<pdfrwt beam="1">  1        1 0.18426201E-01 0.27583665E+03</pdfrwt>
<pdfrwt beam="2">  1       -1 0.24433262E-01 0.27583665E+03</pdfrwt>
<totfact> 0.40883831E+03</totfact>
</mgrwt>
</event>
<event>
 9    1  0.7997082E-001  0.2768637E+03  0.7818608E-02  0.1097414E+00
          3   -1    0    0  501    0  0.00000000000E+00  0.00000000000E+00  0.74361292264E+02  0.74361292264E+02  0.00000000000E+00 0. -1.
         -3   -1    0    0    0  501 -0.00000000000E+00 -0.00000000000E+00 -0.25770636960E+03  0.25770636960E+03  0.00000000000E+00 0. -1.
         35    2    1    2    0    0  0.00000000000E+00 -0.35527136788E-14 -0.18334507734E+03  0.33206766186E+03  0.27686371137E+03 0.  0.
         25    2    3    3    0    0  0.18105024712E+02 -0.80651748696E+01 -0.16346539922E+03  0.20404930647E+03  0.12050868750E+03 0.  0.
         25    2    3    3    0    0 -0.18105024712E+02  0.80651748696E+01 -0.19879678114E+02  0.12801835539E+03  0.12490259705E+03 0.  0.
          5    1    4    4  502    0 -0.65800865238E+01 -0.15481621642E+02  0.15393579745E+02  0.23281547300E+02  0.47000000000E+01 0.  1.
         -5    1    4    4    0  502  0.24685111236E+02  0.74164467720E+01 -0.17885897897E+03  0.18076775917E+03  0.47000000000E+01 0.  1.
          5    1    5    5  503    0  0.14521613166E+02 -0.27564790522E+02  0.40010758373E+02  0.50927848090E+02  0.47000000000E+01 0.  1.
         -5    1    5    5    0  503 -0.32626637878E+02  0.35629965392E+02 -0.59890436487E+02  0.77090507299E+02  0.47000000000E+01 0.  1.
<mgrwt>
<rscale>  0 0.27686371E+03</rscale>
<asrwt>0</asrwt>
<pdfrwt beam="1">  1        3 0.11440199E-01 0.27686371E+03</pdfrwt>
<pdfrwt beam="2">  1       -3 0.39647134E-01 0.27686371E+03</pdfrwt>
<totfact> 0.94675313E+02</totfact>
</mgrwt>
</event>
<event>
 9    1  0.7997082E-001  0.2724625E+03  0.7818608E-02  0.1099878E+00
          2   -1    0    0  501    0  0.00000000000E+00  0.00000000000E+00  0.23148945241E+04  0.23148945241E+04  0.00000000000E+00 0. -1.
         -2   -1    0    0    0  501 -0.00000000000E+00 -0.00000000000E+00 -0.80171900004E+01  0.80171900004E+01  0.00000000000E+00 0. -1.
         35    2    1    2    0    0 -0.71054273576E-14 -0.35527136788E-14  0.23068773341E+04  0.23229117141E+04  0.27246246883E+03 0.  0.
         25    2    3    3    0    0 -0.44985330182E+02  0.17860823900E+02  0.11886899752E+04  0.11963319504E+04  0.12603011347E+03 0.  0.
         25    2    3    3    0    0  0.44985330182E+02 -0.17860823900E+02  0.11181873589E+04  0.11265797637E+04  0.12843794362E+03 0.  0.
          5    1    4    4  502    0 -0.52847521577E+01  0.64974087822E+02  0.81016617732E+03  0.81279818255E+03  0.47000000000E+01 0. -1.
         -5    1    4    4    0  502 -0.39700578024E+02 -0.47113263922E+02  0.37852379788E+03  0.38353376786E+03  0.47000000000E+01 0. -1.
          5    1    5    5  503    0  0.87219367732E+02  0.63007196894E+00  0.84348418396E+03  0.84799485475E+03  0.47000000000E+01 0. -1.
         -5    1    5    5    0  503 -0.42234037550E+02 -0.18490895869E+02  0.27470317495E+03  0.27858490894E+03  0.47000000000E+01 0. -1.
<mgrwt>
<rscale>  0 0.27246247E+03</rscale>
<asrwt>0</asrwt>
<pdfrwt beam="1">  1        2 0.35613709E+00 0.27246247E+03</pdfrwt>
<pdfrwt beam="2">  1       -2 0.12334157E-02 0.27246247E+03</pdfrwt>
<totfact> 0.79383685E+03</totfact>
</mgrwt>
</event>
<event>
 9    1  0.7997082E-001  0.2764894E+03  0.7818608E-02  0.1097622E+00
         -2   -1    0    0    0  501 -0.00000000000E+00  0.00000000000E+00  0.28700059678E+03  0.28700059678E+03  0.00000000000E+00 0.  1.
          2   -1    0    0  501    0  0.00000000000E+00 -0.00000000000E+00 -0.66590785719E+02  0.66590785719E+02  0.00000000000E+00 0.  1.
         35    2    1    2    0    0  0.00000000000E+00 -0.71054273576E-14  0.22040981107E+03  0.35359138250E+03  0.27648938672E+03 0.  0.
         25    2    3    3    0    0  0.19955494960E+02  0.25676784756E+02  0.45218752273E+02  0.13583991319E+03  0.12389603465E+03 0.  0.
         25    2    3    3    0    0 -0.19955494960E+02 -0.25676784756E+02  0.17519105879E+03  0.21775146932E+03  0.12516499612E+03 0.  0.
          5    1    4    4  502    0  0.52907633384E+02 -0.21774351293E+02 -0.69922250201E+01  0.57830106823E+02  0.47000000000E+01 0.  1.
         -5    1    4    4    0  502 -0.32952138424E+02  0.47451136049E+02  0.52210977293E+02  0.78009806364E+02  0.47000000000E+01 0.  1.
          5    1    5    5  503    0  0.31125181858E+02 -0.13733521922E+02 -0.48830750119E+00  0.34346979696E+02  0.47000000000E+01 0.  1.
         -5    1    5    5    0  503 -0.51080676817E+02 -0.11943262833E+02  0.17567936629E+03  0.18340448962E+03  0.47000000000E+01 0.  1.
<mgrwt>
<rscale>  0 0.27648939E+03</rscale>
<asrwt>0</asrwt>
<pdfrwt beam="1">  1        2 0.10244736E-01 0.27648939E+03</pdfrwt>
<pdfrwt beam="2">  1       -2 0.44153937E-01 0.27648939E+03</pdfrwt>
<totfact> 0.30451511E+03</totfact>
</mgrwt>
</event>
<event>
 9    1  0.7997082E-001  0.2744527E+03  0.7818608E-02  0.1098758E+00
         -1   -1    0    0    0  501 -0.00000000000E+00  0.00000000000E+00  0.13165131546E+03  0.13165131546E+03  0.00000000000E+00 0.  1.
          1   -1    0    0  501    0  0.00000000000E+00 -0.00000000000E+00 -0.14303745175E+03  0.14303745175E+03  0.00000000000E+00 0.  1.
         35    2    1    2    0    0  0.00000000000E+00  0.00000000000E+00 -0.11386136297E+02  0.27468876721E+03  0.27445268214E+03 0.  0.
         25    2    3    3    0    0 -0.14012981807E+01 -0.22148423362E+02 -0.51683836087E+02  0.13732514918E+03  0.12527753745E+03 0.  0.
         25    2    3    3    0    0  0.14012981807E+01  0.22148423362E+02  0.40297699790E+02  0.13736361803E+03  0.12943084121E+03 0.  0.
          5    1    4    4  502    0 -0.20960220792E+02  0.39407869115E+02  0.12041744276E+02  0.46469394326E+02  0.47000000000E+01 0.  1.
         -5    1    4    4    0  502  0.19558922612E+02 -0.61556292477E+02 -0.63725580363E+02  0.90855754853E+02  0.47000000000E+01 0.  1.
          5    1    5    5  503    0  0.11676850031E+02  0.60905692643E+02  0.65059537606E+02  0.90003809122E+02  0.47000000000E+01 0. -1.
         -5    1    5    5    0  503 -0.10275551851E+02 -0.38757269280E+02 -0.24761837816E+02  0.47359808910E+02  0.47000000000E+01 0. -1.
<mgrwt>
<rscale>  0 0.27445268E+03</rscale>
<asrwt>0</asrwt>
<pdfrwt beam="1">  1        1 0.22005762E-01 0.27445268E+03</pdfrwt>
<pdfrwt beam="2">  1       -1 0.20254049E-01 0.27445268E+03</pdfrwt>
<totfact> 0.44260817E+03</totfact>
</mgrwt>
</event>
<event>
 9    1  0.7997082E-001  0.2679996E+03  0.7818608E-02  0.1102430E+00
          2   -1    0    0  501    0  0.00000000000E+00  0.00000000000E+00  0.56454259148E+03  0.56454259148E+03  0.00000000000E+00 0.  1.
         -2   -1    0    0    0  501 -0.00000000000E+00 -0.00000000000E+00 -0.31806196588E+02  0.31806196588E+02  0.00000000000E+00 0.  1.
         35    2    1    2    0    0 -0.71054273576E-14  0.00000000000E+00  0.53273639489E+03  0.59634878807E+03  0.26799964662E+03 0.  0.
         25    2    3    3    0    0 -0.18677541445E+02 -0.55559456857E+01  0.36173691429E+03  0.38307071011E+03  0.12453856713E+03 0.  0.
         25    2    3    3    0    0  0.18677541445E+02  0.55559456857E+01  0.17099948061E+03  0.21327807796E+03  0.12596426907E+03 0.  0.
          5    1    4    4  502    0 -0.16572898597E+02 -0.25207946386E+02  0.36146621231E+03  0.36275337927E+03  0.47000000000E+01 0. -1.
         -5    1    4    4    0  502 -0.21046428477E+01  0.19652000700E+02  0.27070197581E+00  0.20317330844E+02  0.47000000000E+01 0. -1.
          5    1    5    5  503    0  0.20370992062E+02 -0.40914929514E+02  0.15831667234E+03  0.16484922661E+03  0.47000000000E+01 0.  1.
         -5    1    5    5    0  503 -0.16934506176E+01  0.46470875200E+02  0.12682808269E+02  0.48428851343E+02  0.47000000000E+01 0.  1.
<mgrwt>
<rscale>  0 0.26799965E+03</rscale>
<asrwt>0</asrwt>
<pdfrwt beam="1">  1        2 0.86852699E-01 0.26799965E+03</pdfrwt>
<pdfrwt beam="2">  1       -2 0.48932614E-02 0.26799965E+03</pdfrwt>
<totfact> 0.10890803E+04</totfact>
</mgrwt>
</event>
<event>
 9    1  0.7997082E-001  0.2755614E+03  0.7818608E-02  0.1098138E+00
          2   -1    0    0  501    0  0.00000000000E+00  0.00000000000E+00  0.38129782606E+04  0.38129782606E+04  0.00000000000E+00 0. -1.
         -2   -1    0    0    0  501 -0.00000000000E+00 -0.00000000000E+00 -0.49786602076E+01  0.49786602076E+01  0.00000000000E+00 0. -1.
         35    2    1    2    0    0  0.00000000000E+00 -0.35527136788E-14  0.38079996004E+04  0.38179569209E+04  0.27556141340E+03 0.  0.
         25    2    3    3    0    0  0.54732803005E+02  0.23881556402E+02  0.17097426964E+04  0.17153397614E+04  0.12491757608E+03 0.  0.
         25    2    3    3    0    0 -0.54732803005E+02 -0.23881556402E+02  0.20982569041E+04  0.21026171595E+04  0.12145318137E+03 0.  0.
          5    1    4    4  502    0  0.50675489260E+02  0.68412123314E+02  0.13676033182E+04  0.13702587894E+04  0.47000000000E+01 0. -1.
         -5    1    4    4    0  502  0.40573137452E+01 -0.44530566912E+02  0.34213937812E+03  0.34508097201E+03  0.47000000000E+01 0. -1.
          5    1    5    5  503    0  0.29097193240E+02 -0.16809958353E+02  0.11839138569E+04  0.11843999882E+04  0.47000000000E+01 0.  1.
         -5    1    5    5    0  503 -0.83829996245E+02 -0.70715980493E+01  0.91434304715E+03  0.91821717128E+03  0.47000000000E+01 0.  1.
<mgrwt>
<rscale>  0 0.27556141E+03</rscale>
<asrwt>0</asrwt>
<pdfrwt beam="1">  1        2 0.58660971E+00 0.27556141E+03</pdfrwt>
<pdfrwt beam="2">  1       -2 0.76595077E-03 0.27556141E+03</pdfrwt>
<totfact> 0.19340380E+03</totfact>
</mgrwt>
</event>
<event>
 9    1  0.7997082E-001  0.2785141E+03  0.7818608E-02  0.1096503E+00
         -2   -1    0    0    0  501 -0.00000000000E+00  0.00000000000E+00  0.26595222144E+02  0.26595222144E+02  0.00000000000E+00 0. -1.
          2   -1    0    0  501    0  0.00000000000E+00 -0.00000000000E+00 -0.72917340479E+03  0.72917340479E+03  0.00000000000E+00 0. -1.
         35    2    1    2    0    0  0.00000000000E+00  0.00000000000E+00 -0.70257818265E+03  0.75576862693E+03  0.27851411944E+03 0.  0.
         25    2    3    3    0    0  0.31757834445E+02  0.17610319085E+02 -0.48584262654E+03  0.50291729043E+03  0.12475600129E+03 0.  0.
         25    2    3    3    0    0 -0.31757834445E+02 -0.17610319085E+02 -0.21673555610E+03  0.25285133651E+03  0.12506323883E+03 0.  0.
          5    1    4    4  502    0  0.57516736455E+02  0.28559840585E+02 -0.12181909692E+03  0.13778904833E+03  0.47000000000E+01 0.  1.
         -5    1    4    4    0  502 -0.25758902011E+02 -0.10949521500E+02 -0.36402352963E+03  0.36512824210E+03  0.47000000000E+01 0.  1.
          5    1    5    5  503    0 -0.51824291852E+02  0.14425444320E+02 -0.20644901953E+03  0.21339432592E+03  0.47000000000E+01 0. -1.
         -5    1    5    5    0  503  0.20066457408E+02 -0.32035763405E+02 -0.10286536574E+02  0.39457010588E+02  0.47000000000E+01 0. -1.
<mgrwt>
<rscale>  0 0.27851412E+03</rscale>
<asrwt>0</asrwt>
<pdfrwt beam="1">  1        2 0.11218053E+00 0.27851412E+03</pdfrwt>
<pdfrwt beam="2">  1       -2 0.40915722E-02 0.27851412E+03</pdfrwt>
<totfact> 0.10558320E+04</totfact>
</mgrwt>
</event>
<event>
 9    1  0.7997082E-001  0.2755607E+03  0.7818608E-02  0.1098139E+00
         -4   -1    0    0    0  501 -0.00000000000E+00  0.00000000000E+00  0.23932620670E+02  0.23932620670E+02  0.00000000000E+00 0.  1.
          4   -1    0    0  501    0  0.00000000000E+00 -0.00000000000E+00 -0.79320267435E+03  0.79320267435E+03  0.00000000000E+00 0.  1.
         35    2    1    2    0    0  0.00000000000E+00 -0.71054273576E-14 -0.76927005368E+03  0.81713529502E+03  0.27556065554E+03 0.  0.
         25    2    3    3    0    0 -0.33310085732E+02  0.34376349722E+02 -0.28497094833E+03  0.31478214318E+03  0.12485215673E+03 0.  0.
         25    2    3    3    0    0  0.33310085732E+02 -0.34376349722E+02 -0.48429910535E+03  0.50235315184E+03  0.12458639771E+03 0.  0.
          5    1    4    4  502    0 -0.19155021130E+01  0.38597021965E+02 -0.27961692631E+03  0.28231385855E+03  0.47000000000E+01 0.  1.
         -5    1    4    4    0  502 -0.31394583619E+02 -0.42206722430E+01 -0.53540220256E+01  0.32468284628E+02  0.47000000000E+01 0.  1.
          5    1    5    5  503    0  0.13753099548E+02  0.46747260511E+01  0.78188995440E+00  0.15287320325E+02  0.47000000000E+01 0.  1.
         -5    1    5    5    0  503  0.19556986185E+02 -0.39051075773E+02 -0.48508099530E+03  0.48706583151E+03  0.47000000000E+01 0.  1.
<mgrwt>
<rscale>  0 0.27556066E+03</rscale>
<asrwt>0</asrwt>
<pdfrwt beam="1">  1        4 0.12203118E+00 0.27556066E+03</pdfrwt>
<pdfrwt beam="2">  1       -4 0.36819418E-02 0.27556066E+03</pdfrwt>
<totfact> 0.38784820E+02</totfact>
</mgrwt>
</event>
<event>
 9    1  0.7997082E-001  0.2745948E+03  0.7818608E-02  0.1098678E+00
          1   -1    0    0  501    0  0.00000000000E+00  0.00000000000E+00  0.36567746548E+03  0.36567746548E+03  0.00000000000E+00 0. -1.
         -1   -1    0    0    0  501 -0.00000000000E+00 -0.00000000000E+00 -0.51549736174E+02  0.51549736174E+02  0.00000000000E+00 0. -1.
         35    2    1    2    0    0  0.00000000000E+00  0.88817841970E-15  0.31412772930E+03  0.41722720165E+03  0.27459480600E+03 0.  0.
         25    2    3    3    0    0  0.30515581285E+02  0.79390726371E+01  0.22483318475E+03  0.25914566058E+03  0.12494912107E+03 0.  0.
         25    2    3    3    0    0 -0.30515581285E+02 -0.79390726371E+01  0.89294544553E+02  0.15808154107E+03  0.12657815122E+03 0.  0.
          5    1    4    4  502    0  0.26113243434E+02 -0.38192866311E+02  0.20197552246E+03  0.20726021854E+03  0.47000000000E+01 0.  1.
         -5    1    4    4    0  502  0.44023378507E+01  0.46131938948E+02  0.22857662296E+02  0.51885442036E+02  0.47000000000E+01 0.  1.
          5    1    5    5  503    0 -0.64495912919E+02 -0.10375830060E+02  0.10217028205E+03  0.12135994878E+03  0.47000000000E+01 0.  1.
         -5    1    5    5    0  503  0.33980331635E+02  0.24367574227E+01 -0.12875737497E+02  0.36721592297E+02  0.47000000000E+01 0.  1.
<mgrwt>
<rscale>  0 0.27459481E+03</rscale>
<asrwt>0</asrwt>
<pdfrwt beam="1">  1        1 0.56258070E-01 0.27459481E+03</pdfrwt>
<pdfrwt beam="2">  1       -1 0.79307289E-02 0.27459481E+03</pdfrwt>
<totfact> 0.58996611E+03</totfact>
</mgrwt>
</event>
<event>
 9    1  0.7997082E-001  0.2776501E+03  0.7818608E-02  0.1096979E+00
          2   -1    0    0  501    0  0.00000000000E+00  0.00000000000E+00  0.12009456769E+03  0.12009456769E+03  0.00000000000E+00 0. -1.
         -2   -1    0    0    0  501 -0.00000000000E+00 -0.00000000000E+00 -0.16047686149E+03  0.16047686149E+03  0.00000000000E+00 0. -1.
         35    2    1    2    0    0  0.14210854715E-13 -0.35527136788E-14 -0.40382293806E+02  0.28057142918E+03  0.27765013455E+03 0.  0.
         25    2    3    3    0    0 -0.55775438905E+02 -0.12708360896E+02 -0.11343729003E+02  0.13944971398E+03  0.12666941430E+03 0.  0.
         25    2    3    3    0    0  0.55775438905E+02  0.12708360896E+02 -0.29038564803E+02  0.14112171520E+03  0.12569685053E+03 0.  0.
          5    1    4    4  502    0  0.20536240508E+02 -0.28956049903E+02  0.33753402995E+02  0.49209472807E+02  0.47000000000E+01 0.  1.
         -5    1    4    4    0  502 -0.76311679413E+02  0.16247689007E+02 -0.45097131998E+02  0.90240241175E+02  0.47000000000E+01 0.  1.
          5    1    5    5  503    0  0.44132450551E+02  0.48847380217E+02  0.28610224494E+02  0.71933126523E+02  0.47000000000E+01 0.  1.
         -5    1    5    5    0  503  0.11642988354E+02 -0.36139019321E+02 -0.57648789297E+02  0.69188588674E+02  0.47000000000E+01 0.  1.
<mgrwt>
<rscale>  0 0.27765013E+03</rscale>
<asrwt>0</asrwt>
<pdfrwt beam="1">  1        2 0.18476087E-01 0.27765013E+03</pdfrwt>
<pdfrwt beam="2">  1       -2 0.24688748E-01 0.27765013E+03</pdfrwt>
<totfact> 0.44008371E+03</totfact>
</mgrwt>
</event>
<event>
 9    1  0.7997082E-001  0.2731481E+03  0.7818608E-02  0.1099491E+00
          2   -1    0    0  501    0  0.00000000000E+00  0.00000000000E+00  0.11299732971E+03  0.11299732971E+03  0.00000000000E+00 0. -1.
         -2   -1    0    0    0  501 -0.00000000000E+00 -0.00000000000E+00 -0.16506996554E+03  0.16506996554E+03  0.00000000000E+00 0. -1.
         35    2    1    2    0    0  0.71054273576E-14 -0.71054273576E-14 -0.52072635835E+02  0.27806729525E+03  0.27314805744E+03 0.  0.
         25    2    3    3    0    0  0.36142626945E+02 -0.34251440475E+02 -0.61197146903E+01  0.13562242484E+03  0.12600214504E+03 0.  0.
         25    2    3    3    0    0 -0.36142626945E+02  0.34251440475E+02 -0.45952921144E+02  0.14244487041E+03  0.12529732434E+03 0.  0.
          5    1    4    4  502    0  0.59045597693E+02  0.79425014769E+01  0.37527560971E+02  0.70568220674E+02  0.47000000000E+01 0.  1.
         -5    1    4    4    0  502 -0.22902970748E+02 -0.42193941952E+02 -0.43647275662E+02  0.65054204163E+02  0.47000000000E+01 0.  1.
          5    1    5    5  503    0  0.12676658323E+02 -0.17896121452E+02 -0.64671560836E+02  0.68450490212E+02  0.47000000000E+01 0.  1.
         -5    1    5    5    0  503 -0.48819285268E+02  0.52147561927E+02  0.18718639692E+02  0.73994380198E+02  0.47000000000E+01 0.  1.
<mgrwt>
<rscale>  0 0.27314806E+03</rscale>
<asrwt>0</asrwt>
<pdfrwt beam="1">  1        2 0.17384205E-01 0.27314806E+03</pdfrwt>
<pdfrwt beam="2">  1       -2 0.25395379E-01 0.27314806E+03</pdfrwt>
<totfact> 0.44913107E+03</totfact>
</mgrwt>
</event>
<event>
 9    1  0.7997082E-001  0.2965575E+03  0.7818608E-02  0.1086974E+00
          2   -1    0    0  501    0  0.00000000000E+00  0.00000000000E+00  0.13434941497E+04  0.13434941497E+04  0.00000000000E+00 0.  1.
         -2   -1    0    0    0  501 -0.00000000000E+00 -0.00000000000E+00 -0.16365232914E+02  0.16365232914E+02  0.00000000000E+00 0.  1.
         35    2    1    2    0    0  0.00000000000E+00  0.35527136788E-14  0.13271289168E+04  0.13598593826E+04  0.29655754705E+03 0.  0.
         25    2    3    3    0    0  0.26988262467E+01 -0.17722261720E+02  0.10383280227E+04  0.10452782490E+04  0.11899652408E+03 0.  0.
         25    2    3    3    0    0 -0.26988262467E+01  0.17722261720E+02  0.28880089402E+03  0.31458113361E+03  0.12342597383E+03 0.  0.
          5    1    4    4  502    0  0.26887089121E+02  0.39239309660E+01  0.56179648804E+02  0.62582391576E+02  0.47000000000E+01 0. -1.
         -5    1    4    4    0  502 -0.24188262874E+02 -0.21646192686E+02  0.98214837394E+03  0.98269585740E+03  0.47000000000E+01 0. -1.
          5    1    5    5  503    0 -0.44786538493E+02 -0.82574484167E+01  0.39776136719E+02  0.60648582315E+02  0.47000000000E+01 0.  1.
         -5    1    5    5    0  503  0.42087712247E+02  0.25979710136E+02  0.24902475730E+03  0.25393255130E+03  0.47000000000E+01 0.  1.
<mgrwt>
<rscale>  0 0.29655755E+03</rscale>
<asrwt>0</asrwt>
<pdfrwt beam="1">  1        2 0.20669132E+00 0.29655755E+03</pdfrwt>
<pdfrwt beam="2">  1       -2 0.25177292E-02 0.29655755E+03</pdfrwt>
<totfact> 0.91407345E+03</totfact>
</mgrwt>
</event>
<event>
 9    1  0.7997082E-001  0.2789134E+03  0.7818608E-02  0.1096284E+00
          2   -1    0    0  501    0  0.00000000000E+00  0.00000000000E+00  0.15428358266E+03  0.15428358266E+03  0.00000000000E+00 0. -1.
         -2   -1    0    0    0  501 -0.00000000000E+00 -0.00000000000E+00 -0.12605468829E+03  0.12605468829E+03  0.00000000000E+00 0. -1.
         35    2    1    2    0    0 -0.71054273576E-14  0.00000000000E+00  0.28228894370E+02  0.28033827096E+03  0.27891338384E+03 0.  0.
         25    2    3    3    0    0 -0.49450640654E+02  0.24316996809E+02  0.42147521173E+02  0.14278765317E+03  0.12480071379E+03 0.  0.
         25    2    3    3    0    0  0.49450640654E+02 -0.24316996809E+02 -0.13918626803E+02  0.13755061779E+03  0.12525878048E+03 0.  0.
          5    1    4    4  502    0 -0.23505112701E+01  0.66128491907E+02 -0.92236058476E+00  0.66343372647E+02  0.47000000000E+01 0. -1.
         -5    1    4    4    0  502 -0.47100129384E+02 -0.41811495099E+02  0.43069881757E+02  0.76444280525E+02  0.47000000000E+01 0. -1.
          5    1    5    5  503    0 -0.34432600850E+02 -0.23912059309E+02 -0.30318799771E+02  0.51949111650E+02  0.47000000000E+01 0. -1.
         -5    1    5    5    0  503  0.83883241503E+02 -0.40493749962E+00  0.16400172968E+02  0.85601506137E+02  0.47000000000E+01 0. -1.
<mgrwt>
<rscale>  0 0.27891338E+03</rscale>
<asrwt>0</asrwt>
<pdfrwt beam="1">  1        2 0.23735936E-01 0.27891338E+03</pdfrwt>
<pdfrwt beam="2">  1       -2 0.19393029E-01 0.27891338E+03</pdfrwt>
<totfact> 0.50261245E+03</totfact>
</mgrwt>
</event>
<event>
 9    1  0.7997082E-001  0.2742947E+03  0.7818608E-02  0.1098846E+00
          1   -1    0    0  501    0  0.00000000000E+00  0.00000000000E+00  0.69725907276E+02  0.69725907276E+02  0.00000000000E+00 0.  1.
         -1   -1    0    0    0  501 -0.00000000000E+00 -0.00000000000E+00 -0.26976201212E+03  0.26976201212E+03  0.00000000000E+00 0.  1.
         35    2    1    2    0    0  0.21316282073E-13  0.35527136788E-14 -0.20003610484E+03  0.33948791940E+03  0.27429473961E+03 0.  0.
         25    2    3    3    0    0 -0.55506797271E+02  0.23831494444E+01 -0.11709066181E+03  0.17959017404E+03  0.12432105044E+03 0.  0.
         25    2    3    3    0    0  0.55506797271E+02 -0.23831494444E+01 -0.82945443031E+02  0.15989774536E+03  0.12490259607E+03 0.  0.
          5    1    4    4  502    0 -0.32397885496E+02 -0.57848453334E+02 -0.83434169213E+02  0.10667435085E+03  0.47000000000E+01 0. -1.
         -5    1    4    4    0  502 -0.23108911775E+02  0.60231602779E+02 -0.33656492600E+02  0.72915823186E+02  0.47000000000E+01 0. -1.
          5    1    5    5  503    0 -0.20518228942E+02 -0.25758229159E+02 -0.72207139905E+02  0.79501227296E+02  0.47000000000E+01 0.  1.
         -5    1    5    5    0  503  0.76025026213E+02  0.23375079715E+02 -0.10738303126E+02  0.80396518061E+02  0.47000000000E+01 0.  1.
<mgrwt>
<rscale>  0 0.27429474E+03</rscale>
<asrwt>0</asrwt>
<pdfrwt beam="1">  1        1 0.10727063E-01 0.27429474E+03</pdfrwt>
<pdfrwt beam="2">  1       -1 0.41501848E-01 0.27429474E+03</pdfrwt>
<totfact> 0.33563818E+03</totfact>
</mgrwt>
</event>
<event>
 9    1  0.7997082E-001  0.2766293E+03  0.7818608E-02  0.1097544E+00
          2   -1    0    0  501    0  0.00000000000E+00  0.00000000000E+00  0.11511706556E+04  0.11511706556E+04  0.00000000000E+00 0.  1.
         -2   -1    0    0    0  501 -0.00000000000E+00 -0.00000000000E+00 -0.16618686389E+02  0.16618686389E+02  0.00000000000E+00 0.  1.
         35    2    1    2    0    0  0.00000000000E+00 -0.71054273576E-14  0.11345519692E+04  0.11677893420E+04  0.27662931230E+03 0.  0.
         25    2    3    3    0    0 -0.50883305418E+02  0.31627523675E+02  0.57060068281E+03  0.58693626614E+03  0.12377249394E+03 0.  0.
         25    2    3    3    0    0  0.50883305418E+02 -0.31627523675E+02  0.56395128642E+03  0.58085307588E+03  0.12553816661E+03 0.  0.
          5    1    4    4  502    0 -0.86086908477E+02  0.35592564820E+01  0.28519617588E+03  0.29796404624E+03  0.47000000000E+01 0. -1.
         -5    1    4    4    0  502  0.35203603058E+02  0.28068267193E+02  0.28540450694E+03  0.28897221990E+03  0.47000000000E+01 0. -1.
          5    1    5    5  503    0 -0.10864228498E+02  0.41306676426E+02  0.15377139994E+03  0.15966216339E+03  0.47000000000E+01 0.  1.
         -5    1    5    5    0  503  0.61747533916E+02 -0.72934200101E+02  0.41017988648E+03  0.42119091249E+03  0.47000000000E+01 0.  1.
<mgrwt>
<rscale>  0 0.27662931E+03</rscale>
<asrwt>0</asrwt>
<pdfrwt beam="1">  1        2 0.17710311E+00 0.27662931E+03</pdfrwt>
<pdfrwt beam="2">  1       -2 0.25567219E-02 0.27662931E+03</pdfrwt>
<totfact> 0.11444031E+04</totfact>
</mgrwt>
</event>
<event>
 9    1  0.7997082E-001  0.2737725E+03  0.7818608E-02  0.1099140E+00
          2   -1    0    0  501    0  0.00000000000E+00  0.00000000000E+00  0.42143006551E+03  0.42143006551E+03  0.00000000000E+00 0. -1.
         -2   -1    0    0    0  501 -0.00000000000E+00 -0.00000000000E+00 -0.44462530805E+02  0.44462530805E+02  0.00000000000E+00 0. -1.
         35    2    1    2    0    0  0.35527136788E-14  0.00000000000E+00  0.37696753471E+03  0.46589259632E+03  0.27377251337E+03 0.  0.
         25    2    3    3    0    0 -0.13304411892E+02 -0.17782348291E+02  0.26594534260E+03  0.29410260405E+03  0.12359691409E+03 0.  0.
         25    2    3    3    0    0  0.13304411892E+02  0.17782348291E+02  0.11102219211E+03  0.17178999227E+03  0.12920005811E+03 0.  0.
          5    1    4    4  502    0 -0.41611549023E+02 -0.59446617345E+02  0.12857010216E+03  0.14770843746E+03  0.47000000000E+01 0. -1.
         -5    1    4    4    0  502  0.28307137131E+02  0.41664269053E+02  0.13737524044E+03  0.14639416660E+03  0.47000000000E+01 0. -1.
          5    1    5    5  503    0  0.41507061952E+01 -0.54431524199E+02  0.28885388965E+02  0.61939283853E+02  0.47000000000E+01 0.  1.
         -5    1    5    5    0  503  0.91537056970E+01  0.72213872490E+02  0.82136803144E+02  0.10985070841E+03  0.47000000000E+01 0.  1.
<mgrwt>
<rscale>  0 0.27377251E+03</rscale>
<asrwt>0</asrwt>
<pdfrwt beam="1">  1        2 0.64835392E-01 0.27377251E+03</pdfrwt>
<pdfrwt beam="2">  1       -2 0.68403896E-02 0.27377251E+03</pdfrwt>
<totfact> 0.90425056E+03</totfact>
</mgrwt>
</event>
<event>
 9    1  0.7997082E-001  0.2752016E+03  0.7818608E-02  0.1098339E+00
         -2   -1    0    0    0  501 -0.00000000000E+00  0.00000000000E+00  0.16940309885E+02  0.16940309885E+02  0.00000000000E+00 0. -1.
          2   -1    0    0  501    0  0.00000000000E+00 -0.00000000000E+00 -0.11176881341E+04  0.11176881341E+04  0.00000000000E+00 0. -1.
         35    2    1    2    0    0 -0.71054273576E-14  0.14210854715E-13 -0.11007478242E+04  0.11346284440E+04  0.27520162315E+03 0.  0.
         25    2    3    3    0    0  0.23092509976E+02 -0.43990612601E+02 -0.68034720717E+03  0.69361000471E+03  0.12551525133E+03 0.  0.
         25    2    3    3    0    0 -0.23092509976E+02  0.43990612601E+02 -0.42040061704E+03  0.44101843927E+03  0.12366142064E+03 0.  0.
          5    1    4    4  502    0 -0.39657760255E+02 -0.48159149439E+02 -0.21208563491E+03  0.22112089037E+03  0.47000000000E+01 0.  1.
         -5    1    4    4    0  502  0.62750270231E+02  0.41685368384E+01 -0.46826157226E+03  0.47248911434E+03  0.47000000000E+01 0.  1.
          5    1    5    5  503    0 -0.53053382446E+02 -0.22996982250E+02 -0.15094513650E+03  0.16170976104E+03  0.47000000000E+01 0.  1.
         -5    1    5    5    0  503  0.29960872470E+02  0.66987594850E+02 -0.26945548054E+03  0.27930867823E+03  0.47000000000E+01 0.  1.
<mgrwt>
<rscale>  0 0.27520162E+03</rscale>
<asrwt>0</asrwt>
<pdfrwt beam="1">  1        2 0.17195201E+00 0.27520162E+03</pdfrwt>
<pdfrwt beam="2">  1       -2 0.26062016E-02 0.27520162E+03</pdfrwt>
<totfact> 0.11630865E+04</totfact>
</mgrwt>
</event>
<event>
 9    1  0.7997082E-001  0.2759499E+03  0.7818608E-02  0.1097922E+00
         -3   -1    0    0    0  501 -0.00000000000E+00  0.00000000000E+00  0.17219059482E+03  0.17219059482E+03  0.00000000000E+00 0.  1.
          3   -1    0    0  501    0  0.00000000000E+00 -0.00000000000E+00 -0.11055820200E+03  0.11055820200E+03  0.00000000000E+00 0.  1.
         35    2    1    2    0    0  0.00000000000E+00 -0.17763568394E-14  0.61632392824E+02  0.28274879682E+03  0.27594986910E+03 0.  0.
         25    2    3    3    0    0  0.44233730977E+02  0.11911294957E+02  0.15393054101E+01  0.13340173712E+03  0.12528029415E+03 0.  0.
         25    2    3    3    0    0 -0.44233730977E+02 -0.11911294957E+02  0.60093087414E+02  0.14934705970E+03  0.12882105100E+03 0.  0.
          5    1    4    4  502    0 -0.45175064264E+01  0.57291586989E+02  0.24700875763E+02  0.62729236147E+02  0.47000000000E+01 0.  1.
         -5    1    4    4    0  502  0.48751237403E+02 -0.45380292032E+02 -0.23161570353E+02  0.70672500978E+02  0.47000000000E+01 0.  1.
          5    1    5    5  503    0 -0.86594937623E+02 -0.19532702781E+02  0.21760670787E+02  0.91519541590E+02  0.47000000000E+01 0.  1.
         -5    1    5    5    0  503  0.42361206646E+02  0.76214078241E+01  0.38332416627E+02  0.57827518105E+02  0.47000000000E+01 0.  1.
<mgrwt>
<rscale>  0 0.27594987E+03</rscale>
<asrwt>0</asrwt>
<pdfrwt beam="1">  1        3 0.17008954E-01 0.27594987E+03</pdfrwt>
<pdfrwt beam="2">  1       -3 0.26490861E-01 0.27594987E+03</pdfrwt>
<totfact> 0.10261765E+03</totfact>
</mgrwt>
</event>
<event>
 9    1  0.7997082E-001  0.2715285E+03  0.7818608E-02  0.1100408E+00
         -1   -1    0    0    0  501 -0.00000000000E+00  0.00000000000E+00  0.24789841216E+03  0.24789841216E+03  0.00000000000E+00 0. -1.
          1   -1    0    0  501    0  0.00000000000E+00 -0.00000000000E+00 -0.74352787625E+02  0.74352787625E+02  0.00000000000E+00 0. -1.
         35    2    1    2    0    0  0.71054273576E-14  0.00000000000E+00  0.17354562453E+03  0.32225119978E+03  0.27152854724E+03 0.  0.
         25    2    3    3    0    0  0.36360154443E+02  0.15889855350E+02  0.46664854226E+02  0.13943065509E+03  0.12525474292E+03 0.  0.
         25    2    3    3    0    0 -0.36360154443E+02 -0.15889855350E+02  0.12688077031E+03  0.18282054469E+03  0.12549929623E+03 0.  0.
          5    1    4    4  502    0  0.57585030637E+02  0.58017093020E+02  0.17360485136E+02  0.83698836790E+02  0.47000000000E+01 0.  1.
         -5    1    4    4    0  502 -0.21224876194E+02 -0.42127237670E+02  0.29304369090E+02  0.55731818299E+02  0.47000000000E+01 0.  1.
          5    1    5    5  503    0 -0.37903685782E+02  0.50342747459E+02  0.45983124271E+02  0.78151259333E+02  0.47000000000E+01 0.  1.
         -5    1    5    5    0  503  0.15435313394E+01 -0.66232602809E+02  0.80897646037E+02  0.10466928536E+03  0.47000000000E+01 0.  1.
<mgrwt>
<rscale>  0 0.27152855E+03</rscale>
<asrwt>0</asrwt>
<pdfrwt beam="1">  1        1 0.11438891E-01 0.27152855E+03</pdfrwt>
<pdfrwt beam="2">  1       -1 0.38138217E-01 0.27152855E+03</pdfrwt>
<totfact> 0.35773394E+03</totfact>
</mgrwt>
</event>
<event>
 9    1  0.7997082E-001  0.2712879E+03  0.7818608E-02  0.1100545E+00
         -2   -1    0    0    0  501 -0.00000000000E+00  0.00000000000E+00  0.59363206436E+02  0.59363206436E+02  0.00000000000E+00 0. -1.
          2   -1    0    0  501    0  0.00000000000E+00 -0.00000000000E+00 -0.30994418377E+03  0.30994418377E+03  0.00000000000E+00 0. -1.
         35    2    1    2    0    0  0.00000000000E+00 -0.71054273576E-14 -0.25058097734E+03  0.36930739021E+03  0.27128789553E+03 0.  0.
         25    2    3    3    0    0 -0.41095363998E+02 -0.43538024267E+01 -0.16985857311E+03  0.21525485699E+03  0.12559830437E+03 0.  0.
         25    2    3    3    0    0  0.41095363998E+02  0.43538024267E+01 -0.80722404228E+02  0.15405253322E+03  0.12453229264E+03 0.  0.
          5    1    4    4  502    0 -0.55890420828E+02 -0.42721338781E+02 -0.15668954410E+03  0.17182128843E+03  0.47000000000E+01 0. -1.
         -5    1    4    4    0  502  0.14795056830E+02  0.38367536355E+02 -0.13169029010E+02  0.43433568557E+02  0.47000000000E+01 0. -1.
          5    1    5    5  503    0  0.16054849219E+00 -0.53523818824E+02 -0.11680233564E+02  0.54984932604E+02  0.47000000000E+01 0. -1.
         -5    1    5    5    0  503  0.40934815506E+02  0.57877621251E+02 -0.69042170664E+02  0.99067600618E+02  0.47000000000E+01 0. -1.
<mgrwt>
<rscale>  0 0.27128790E+03</rscale>
<asrwt>0</asrwt>
<pdfrwt beam="1">  1        2 0.47683720E-01 0.27128790E+03</pdfrwt>
<pdfrwt beam="2">  1       -2 0.91328011E-02 0.27128790E+03</pdfrwt>
<totfact> 0.80257440E+03</totfact>
</mgrwt>
</event>
<event>
 9    1  0.7997082E-001  0.2675220E+03  0.7818608E-02  0.1102706E+00
         -1   -1    0    0    0  501 -0.00000000000E+00  0.00000000000E+00  0.47434949989E+03  0.47434949989E+03  0.00000000000E+00 0.  1.
          1   -1    0    0  501    0  0.00000000000E+00 -0.00000000000E+00 -0.37719032000E+02  0.37719032000E+02  0.00000000000E+00 0.  1.
         35    2    1    2    0    0  0.00000000000E+00 -0.35527136788E-14  0.43663046789E+03  0.51206853189E+03  0.26752199136E+03 0.  0.
         25    2    3    3    0    0  0.37552375097E+02  0.17581489324E+02  0.26345082357E+03  0.29457789461E+03  0.12510199803E+03 0.  0.
         25    2    3    3    0    0 -0.37552375097E+02 -0.17581489324E+02  0.17317964432E+03  0.21749063728E+03  0.12486672277E+03 0.  0.
          5    1    4    4  502    0  0.35625573672E+02  0.17714756682E+02  0.27711676440E+03  0.27999783073E+03  0.47000000000E+01 0. -1.
         -5    1    4    4    0  502  0.19268014258E+01 -0.13326735753E+00 -0.13665940830E+02  0.14580063879E+02  0.47000000000E+01 0. -1.
          5    1    5    5  503    0 -0.36526330791E+02 -0.59609303598E+02  0.46904520613E+02  0.84318242216E+02  0.47000000000E+01 0. -1.
         -5    1    5    5    0  503 -0.10260443066E+01  0.42027814274E+02  0.12627512371E+03  0.13317239507E+03  0.47000000000E+01 0. -1.
<mgrwt>
<rscale>  0 0.26752199E+03</rscale>
<asrwt>0</asrwt>
<pdfrwt beam="1">  1        1 0.58029283E-02 0.26752199E+03</pdfrwt>
<pdfrwt beam="2">  1       -1 0.72976842E-01 0.26752199E+03</pdfrwt>
<totfact> 0.26583767E+03</totfact>
</mgrwt>
</event>
<event>
 9    1  0.7997082E-001  0.2748413E+03  0.7818608E-02  0.1098540E+00
          2   -1    0    0  501    0  0.00000000000E+00  0.00000000000E+00  0.18018544933E+03  0.18018544933E+03  0.00000000000E+00 0.  1.
         -2   -1    0    0    0  501 -0.00000000000E+00 -0.00000000000E+00 -0.10480557829E+03  0.10480557829E+03  0.00000000000E+00 0.  1.
         35    2    1    2    0    0 -0.71054273576E-14  0.35527136788E-14  0.75379871043E+02  0.28499102762E+03  0.27484133762E+03 0.  0.
         25    2    3    3    0    0  0.27743517617E+02 -0.17147449790E+02 -0.10124737140E+02  0.12957724768E+03  0.12499605998E+03 0.  0.
         25    2    3    3    0    0 -0.27743517617E+02  0.17147449790E+02  0.85504608183E+02  0.15541377994E+03  0.12561316479E+03 0.  0.
          5    1    4    4  502    0 -0.43492198046E+02  0.79791121585E+01 -0.27017696393E+02  0.52031561960E+02  0.47000000000E+01 0.  1.
         -5    1    4    4    0  502  0.71235715662E+02 -0.25126561949E+02  0.16892959253E+02  0.77545685719E+02  0.47000000000E+01 0.  1.
          5    1    5    5  503    0 -0.49260912212E+02  0.61591865031E+02  0.62482698298E+02  0.10072920578E+03  0.47000000000E+01 0. -1.
         -5    1    5    5    0  503  0.21517394595E+02 -0.44444415241E+02  0.23021909886E+02  0.54684574160E+02  0.47000000000E+01 0. -1.
<mgrwt>
<rscale>  0 0.27484134E+03</rscale>
<asrwt>0</asrwt>
<pdfrwt beam="1">  1        2 0.27720838E-01 0.27484134E+03</pdfrwt>
<pdfrwt beam="2">  1       -2 0.16123935E-01 0.27484134E+03</pdfrwt>
<totfact> 0.57662453E+03</totfact>
</mgrwt>
</event>
<event>
 9    1  0.7997082E-001  0.2698259E+03  0.7818608E-02  0.1101379E+00
          2   -1    0    0  501    0  0.00000000000E+00  0.00000000000E+00  0.17337921707E+04  0.17337921707E+04  0.00000000000E+00 0.  1.
         -2   -1    0    0    0  501 -0.00000000000E+00 -0.00000000000E+00 -0.10498091684E+02  0.10498091684E+02  0.00000000000E+00 0.  1.
         35    2    1    2    0    0 -0.71054273576E-14  0.14210854715E-13  0.17232940791E+04  0.17442902624E+04  0.26982593774E+03 0.  0.
         25    2    3    3    0    0  0.19229763650E+01 -0.48166749811E+02  0.89949930859E+03  0.90940292422E+03  0.12486368087E+03 0.  0.
         25    2    3    3    0    0 -0.19229763650E+01  0.48166749811E+02  0.82379477047E+03  0.83488733821E+03  0.12678844592E+03 0.  0.
          5    1    4    4  502    0 -0.43975814163E+02 -0.55920891809E+02  0.73287630435E+03  0.73633605497E+03  0.47000000000E+01 0. -1.
         -5    1    4    4    0  502  0.45898790528E+02  0.77541419978E+01  0.16662300424E+03  0.17306686925E+03  0.47000000000E+01 0. -1.
          5    1    5    5  503    0  0.29571937393E+02  0.41538691229E+02  0.12162647478E+03  0.13196610063E+03  0.47000000000E+01 0.  1.
         -5    1    5    5    0  503 -0.31494913758E+02  0.66280585819E+01  0.70216829569E+03  0.70292123757E+03  0.47000000000E+01 0.  1.
<mgrwt>
<rscale>  0 0.26982594E+03</rscale>
<asrwt>0</asrwt>
<pdfrwt beam="1">  1        2 0.26673703E+00 0.26982594E+03</pdfrwt>
<pdfrwt beam="2">  1       -2 0.16150924E-02 0.26982594E+03</pdfrwt>
<totfact> 0.10850880E+04</totfact>
</mgrwt>
</event>
<event>
 9    1  0.7997082E-001  0.2805284E+03  0.7818608E-02  0.1095401E+00
         -2   -1    0    0    0  501 -0.00000000000E+00  0.00000000000E+00  0.29653395976E+02  0.29653395976E+02  0.00000000000E+00 0.  1.
          2   -1    0    0  501    0  0.00000000000E+00 -0.00000000000E+00 -0.66346708552E+03  0.66346708552E+03  0.00000000000E+00 0.  1.
         35    2    1    2    0    0  0.00000000000E+00 -0.35527136788E-14 -0.63381368955E+03  0.69312048150E+03  0.28052844565E+03 0.  0.
         25    2    3    3    0    0 -0.80717704577E+01  0.15034668765E+02 -0.15945119859E+03  0.20218401907E+03  0.12313609582E+03 0.  0.
         25    2    3    3    0    0  0.80717704577E+01 -0.15034668765E+02 -0.47436249096E+03  0.49093646242E+03  0.12533013431E+03 0.  0.
          5    1    4    4  502    0 -0.60891160816E+02  0.12574815389E+02 -0.12265113523E+03  0.13759088059E+03  0.47000000000E+01 0. -1.
         -5    1    4    4    0  502  0.52819390359E+02  0.24598533754E+01 -0.36800063360E+02  0.64593138488E+02  0.47000000000E+01 0. -1.
          5    1    5    5  503    0  0.58977060518E+02 -0.34379051456E+02 -0.20611047248E+03  0.21717235025E+03  0.47000000000E+01 0.  1.
         -5    1    5    5    0  503 -0.50905290061E+02  0.19344382691E+02 -0.26825201848E+03  0.27376411218E+03  0.47000000000E+01 0.  1.
<mgrwt>
<rscale>  0 0.28052845E+03</rscale>
<asrwt>0</asrwt>
<pdfrwt beam="1">  1        2 0.10207185E+00 0.28052845E+03</pdfrwt>
<pdfrwt beam="2">  1       -2 0.45620613E-02 0.28052845E+03</pdfrwt>
<totfact> 0.10047049E+04</totfact>
</mgrwt>
</event>
<event>
 9    1  0.7997082E-001  0.2721360E+03  0.7818608E-02  0.1100063E+00
          1   -1    0    0  501    0  0.00000000000E+00  0.00000000000E+00  0.14433670531E+02  0.14433670531E+02  0.00000000000E+00 0.  1.
         -1   -1    0    0    0  501 -0.00000000000E+00 -0.00000000000E+00 -0.12827297650E+04  0.12827297650E+04  0.00000000000E+00 0.  1.
         35    2    1    2    0    0  0.35527136788E-14  0.00000000000E+00 -0.12682960945E+04  0.12971634356E+04  0.27213598666E+03 0.  0.
         25    2    3    3    0    0 -0.10844294309E+02  0.28610400965E+02 -0.45990038953E+03  0.47853727173E+03  0.12866001084E+03 0.  0.
         25    2    3    3    0    0  0.10844294309E+02 -0.28610400965E+02 -0.80839570498E+03  0.81862616384E+03  0.12533565542E+03 0.  0.
          5    1    4    4  502    0 -0.28280400716E+02 -0.14898491373E+02 -0.24375724175E+02  0.40472361420E+02  0.47000000000E+01 0.  1.
         -5    1    4    4    0  502  0.17436106407E+02  0.43508892338E+02 -0.43552466535E+03  0.43806491031E+03  0.47000000000E+01 0.  1.
          5    1    5    5  503    0  0.32081054660E+02  0.37295700517E+02 -0.50408428743E+03  0.50650095970E+03  0.47000000000E+01 0. -1.
         -5    1    5    5    0  503 -0.21236760351E+02 -0.65906101483E+02 -0.30431141756E+03  0.31212520414E+03  0.47000000000E+01 0. -1.
<mgrwt>
<rscale>  0 0.27213599E+03</rscale>
<asrwt>0</asrwt>
<pdfrwt beam="1">  1        1 0.22205638E-02 0.27213599E+03</pdfrwt>
<pdfrwt beam="2">  1       -1 0.19734312E+00 0.27213599E+03</pdfrwt>
<totfact> 0.90720621E+02</totfact>
</mgrwt>
</event>
<event>
 9    1  0.7997082E-001  0.2711718E+03  0.7818608E-02  0.1100611E+00
         -2   -1    0    0    0  501 -0.00000000000E+00  0.00000000000E+00  0.96112352374E+03  0.96112352374E+03  0.00000000000E+00 0. -1.
          2   -1    0    0  501    0  0.00000000000E+00 -0.00000000000E+00 -0.19127126081E+02  0.19127126081E+02  0.00000000000E+00 0. -1.
         35    2    1    2    0    0 -0.71054273576E-14 -0.88817841970E-15  0.94199639766E+03  0.98025064982E+03  0.27117175973E+03 0.  0.
         25    2    3    3    0    0  0.52992549881E+02 -0.56577826096E+01  0.47789611097E+03  0.49665223554E+03  0.12425187864E+03 0.  0.
         25    2    3    3    0    0 -0.52992549881E+02  0.56577826096E+01  0.46410028669E+03  0.48359841428E+03  0.12505250633E+03 0.  0.
          5    1    4    4  502    0  0.26826289557E+02 -0.65407724576E+01  0.46710978339E+03  0.46794879127E+03  0.47000000000E+01 0.  1.
         -5    1    4    4    0  502  0.26166260323E+02  0.88298984804E+00  0.10786327579E+02  0.28703444271E+02  0.47000000000E+01 0.  1.
          5    1    5    5  503    0 -0.38472503603E+02 -0.58170462594E+02  0.25802123261E+03  0.26732187102E+03  0.47000000000E+01 0. -1.
         -5    1    5    5    0  503 -0.14520046278E+02  0.63828245204E+02  0.20607905409E+03  0.21627654326E+03  0.47000000000E+01 0. -1.
<mgrwt>
<rscale>  0 0.27117176E+03</rscale>
<asrwt>0</asrwt>
<pdfrwt beam="1">  1        2 0.29426355E-02 0.27117176E+03</pdfrwt>
<pdfrwt beam="2">  1       -2 0.14786512E+00 0.27117176E+03</pdfrwt>
<totfact> 0.10582505E+03</totfact>
</mgrwt>
</event>
<event>
 9    1  0.7997082E-001  0.2740987E+03  0.7818608E-02  0.1098956E+00
         -1   -1    0    0    0  501 -0.00000000000E+00  0.00000000000E+00  0.10800663269E+02  0.10800663269E+02  0.00000000000E+00 0.  1.
          1   -1    0    0  501    0  0.00000000000E+00 -0.00000000000E+00 -0.17390162116E+04  0.17390162116E+04  0.00000000000E+00 0.  1.
         35    2    1    2    0    0 -0.35527136788E-14 -0.71054273576E-14 -0.17282155483E+04  0.17498168749E+04  0.27409873054E+03 0.  0.
         25    2    3    3    0    0  0.16408649121E+02  0.46928378193E+02 -0.70984429224E+03  0.72261349074E+03  0.12577687119E+03 0.  0.
         25    2    3    3    0    0 -0.16408649121E+02 -0.46928378193E+02 -0.10183712561E+04  0.10272033841E+04  0.12488098609E+03 0.  0.
          5    1    4    4  502    0  0.60066839990E+02  0.49465811433E+02 -0.58657344778E+03  0.59173084372E+03  0.47000000000E+01 0. -1.
         -5    1    4    4    0  502 -0.43658190869E+02 -0.25374332399E+01 -0.12327084446E+03  0.13088264702E+03  0.47000000000E+01 0. -1.
          5    1    5    5  503    0  0.23135497166E+02  0.27625037813E+02 -0.55486418995E+03  0.55605283313E+03  0.47000000000E+01 0. -1.
         -5    1    5    5    0  503 -0.39544146287E+02 -0.74553416006E+02 -0.46350706616E+03  0.47115055102E+03  0.47000000000E+01 0. -1.
<mgrwt>
<rscale>  0 0.27409873E+03</rscale>
<asrwt>0</asrwt>
<pdfrwt beam="1">  1        1 0.26754086E+00 0.27409873E+03</pdfrwt>
<pdfrwt beam="2">  1       -1 0.16616411E-02 0.27409873E+03</pdfrwt>
<totfact> 0.44824330E+03</totfact>
</mgrwt>
</event>
<event>
 9    1  0.7997082E-001  0.2803694E+03  0.7818608E-02  0.1095487E+00
         -1   -1    0    0    0  501 -0.00000000000E+00  0.00000000000E+00  0.31433515147E+03  0.31433515147E+03  0.00000000000E+00 0.  1.
          1   -1    0    0  501    0  0.00000000000E+00 -0.00000000000E+00 -0.62518459660E+02  0.62518459660E+02  0.00000000000E+00 0.  1.
         35    2    1    2    0    0  0.00000000000E+00  0.00000000000E+00  0.25181669181E+03  0.37685361113E+03  0.28036939552E+03 0.  0.
         25    2    3    3    0    0  0.45784393941E+02  0.23025178556E+02  0.79651281621E+02  0.15807519187E+03  0.12655856369E+03 0.  0.
         25    2    3    3    0    0 -0.45784393941E+02 -0.23025178556E+02  0.17216541019E+03  0.21877841926E+03  0.12488674346E+03 0.  0.
          5    1    4    4  502    0 -0.40847871844E+01 -0.36783641424E+02 -0.10596162597E+02  0.38782604664E+02  0.47000000000E+01 0.  1.
         -5    1    4    4    0  502  0.49869181126E+02  0.59808819980E+02  0.90247444218E+02  0.11929258720E+03  0.47000000000E+01 0.  1.
          5    1    5    5  503    0 -0.20340995832E+02 -0.47519595215E+02  0.10143444254E+02  0.52885229528E+02  0.47000000000E+01 0. -1.
         -5    1    5    5    0  503 -0.25443398109E+02  0.24494416659E+02  0.16202196593E+03  0.16589318973E+03  0.47000000000E+01 0. -1.
<mgrwt>
<rscale>  0 0.28036940E+03</rscale>
<asrwt>0</asrwt>
<pdfrwt beam="1">  1        1 0.96182247E-02 0.28036940E+03</pdfrwt>
<pdfrwt beam="2">  1       -1 0.48359254E-01 0.28036940E+03</pdfrwt>
<totfact> 0.29475610E+03</totfact>
</mgrwt>
</event>
<event>
 9    1  0.7997082E-001  0.2733812E+03  0.7818608E-02  0.1099360E+00
          1   -1    0    0  501    0  0.00000000000E+00  0.00000000000E+00  0.36207115070E+02  0.36207115070E+02  0.00000000000E+00 0. -1.
         -1   -1    0    0    0  501 -0.00000000000E+00 -0.00000000000E+00 -0.51604007667E+03  0.51604007667E+03  0.00000000000E+00 0. -1.
         35    2    1    2    0    0  0.00000000000E+00  0.14210854715E-13 -0.47983296160E+03  0.55224719174E+03  0.27338121689E+03 0.  0.
         25    2    3    3    0    0  0.32916356225E+02  0.52983080865E+02 -0.24563563796E+03  0.27932779666E+03  0.11745832446E+03 0.  0.
         25    2    3    3    0    0 -0.32916356225E+02 -0.52983080865E+02 -0.23419732364E+03  0.27291939508E+03  0.12548273366E+03 0.  0.
          5    1    4    4  502    0  0.27466371618E+02  0.83821276288E+02 -0.22450803285E+03  0.24125993190E+03  0.47000000000E+01 0.  1.
         -5    1    4    4    0  502  0.54499846065E+01 -0.30838195423E+02 -0.21127605112E+02  0.38067864754E+02  0.47000000000E+01 0.  1.
          5    1    5    5  503    0 -0.48965265789E+02 -0.74174677169E+02 -0.91335323335E+02  0.12752925655E+03  0.47000000000E+01 0. -1.
         -5    1    5    5    0  503  0.16048909564E+02  0.21191596304E+02 -0.14286200030E+03  0.14539013853E+03  0.47000000000E+01 0. -1.
<mgrwt>
<rscale>  0 0.27338122E+03</rscale>
<asrwt>0</asrwt>
<pdfrwt beam="1">  1        1 0.55703255E-02 0.27338122E+03</pdfrwt>
<pdfrwt beam="2">  1       -1 0.79390779E-01 0.27338122E+03</pdfrwt>
<totfact> 0.23690725E+03</totfact>
</mgrwt>
</event>
<event>
 9    1  0.7997082E-001  0.2739050E+03  0.7818608E-02  0.1099065E+00
         -1   -1    0    0    0  501 -0.00000000000E+00  0.00000000000E+00  0.47083189712E+02  0.47083189712E+02  0.00000000000E+00 0.  1.
          1   -1    0    0  501    0  0.00000000000E+00 -0.00000000000E+00 -0.39835860135E+03  0.39835860135E+03  0.00000000000E+00 0.  1.
         35    2    1    2    0    0  0.00000000000E+00  0.17763568394E-14 -0.35127541164E+03  0.44544179106E+03  0.27390504633E+03 0.  0.
         25    2    3    3    0    0  0.25580494477E+02  0.84271021595E+00 -0.25678983190E+03  0.28676647492E+03  0.12505567367E+03 0.  0.
         25    2    3    3    0    0 -0.25580494477E+02 -0.84271021595E+00 -0.94485579740E+02  0.15867531614E+03  0.12488098060E+03 0.  0.
          5    1    4    4  502    0 -0.32516784843E+02  0.43970253602E+02 -0.10180499597E+03  0.11565929146E+03  0.47000000000E+01 0.  1.
         -5    1    4    4    0  502  0.58097279320E+02 -0.43127543386E+02 -0.15498483593E+03  0.17110718346E+03  0.47000000000E+01 0.  1.
          5    1    5    5  503    0  0.38292544023E+02  0.13960966218E+02 -0.82104856166E+02  0.91785210745E+02  0.47000000000E+01 0.  1.
         -5    1    5    5    0  503 -0.63873038500E+02 -0.14803676434E+02 -0.12380723574E+02  0.66890105393E+02  0.47000000000E+01 0.  1.
<mgrwt>
<rscale>  0 0.27390505E+03</rscale>
<asrwt>0</asrwt>
<pdfrwt beam="1">  1        1 0.61285938E-01 0.27390505E+03</pdfrwt>
<pdfrwt beam="2">  1       -1 0.72435677E-02 0.27390505E+03</pdfrwt>
<totfact> 0.60714980E+03</totfact>
</mgrwt>
</event>
<event>
 9    1  0.7997082E-001  0.2693526E+03  0.7818608E-02  0.1101651E+00
          3   -1    0    0  501    0  0.00000000000E+00  0.00000000000E+00  0.32800451038E+03  0.32800451038E+03  0.00000000000E+00 0. -1.
         -3   -1    0    0    0  501 -0.00000000000E+00 -0.00000000000E+00 -0.55297127325E+02  0.55297127325E+02  0.00000000000E+00 0. -1.
         35    2    1    2    0    0  0.00000000000E+00  0.00000000000E+00  0.27270738305E+03  0.38330163770E+03  0.26935261034E+03 0.  0.
         25    2    3    3    0    0 -0.19516341212E+01 -0.40796511354E+02  0.18060933324E+03  0.22316916770E+03  0.12456557287E+03 0.  0.
         25    2    3    3    0    0  0.19516341212E+01  0.40796511354E+02  0.92098049812E+02  0.16013247000E+03  0.12446763819E+03 0.  0.
          5    1    4    4  502    0  0.55920991602E+02  0.40653349091E+01  0.62238269346E+02  0.83900991775E+02  0.47000000000E+01 0. -1.
         -5    1    4    4    0  502 -0.57872625723E+02 -0.44861846263E+02  0.11837106389E+03  0.13926817593E+03  0.47000000000E+01 0. -1.
          5    1    5    5  503    0 -0.34687037805E+02  0.66417297900E+02  0.24542454703E+02  0.78986518690E+02  0.47000000000E+01 0.  1.
         -5    1    5    5    0  503  0.36638671926E+02 -0.25620786546E+02  0.67555595110E+02  0.81145951312E+02  0.47000000000E+01 0.  1.
<mgrwt>
<rscale>  0 0.26935261E+03</rscale>
<asrwt>0</asrwt>
<pdfrwt beam="1">  1        3 0.50462231E-01 0.26935261E+03</pdfrwt>
<pdfrwt beam="2">  1       -3 0.85072505E-02 0.26935261E+03</pdfrwt>
<totfact> 0.95990300E+02</totfact>
</mgrwt>
</event>
<event>
 9    1  0.7997082E-001  0.2768004E+03  0.7818608E-02  0.1097449E+00
         -2   -1    0    0    0  501 -0.00000000000E+00  0.00000000000E+00  0.52482922832E+02  0.52482922832E+02  0.00000000000E+00 0. -1.
          2   -1    0    0  501    0  0.00000000000E+00 -0.00000000000E+00 -0.36496842163E+03  0.36496842163E+03  0.00000000000E+00 0. -1.
         35    2    1    2    0    0  0.00000000000E+00  0.00000000000E+00 -0.31248549880E+03  0.41745134447E+03  0.27680035772E+03 0.  0.
         25    2    3    3    0    0 -0.33506851068E+02 -0.15776550412E+02 -0.22663416338E+03  0.26128460129E+03  0.12463944099E+03 0.  0.
         25    2    3    3    0    0  0.33506851068E+02  0.15776550412E+02 -0.85851335426E+02  0.15616674318E+03  0.12508393689E+03 0.  0.
          5    1    4    4  502    0 -0.22110558029E+02  0.78530926397E+01  0.79312063724E+01  0.25209955869E+02  0.47000000000E+01 0. -1.
         -5    1    4    4    0  502 -0.11396293039E+02 -0.23629643052E+02 -0.23456536975E+03  0.23607464542E+03  0.47000000000E+01 0. -1.
          5    1    5    5  503    0  0.21036512886E+02 -0.27000201975E+02  0.20910663556E+02  0.40384299318E+02  0.47000000000E+01 0.  1.
         -5    1    5    5    0  503  0.12470338182E+02  0.42776752387E+02 -0.10676199898E+03  0.11578244386E+03  0.47000000000E+01 0.  1.
<mgrwt>
<rscale>  0 0.27680036E+03</rscale>
<asrwt>0</asrwt>
<pdfrwt beam="1">  1        2 0.56148989E-01 0.27680036E+03</pdfrwt>
<pdfrwt beam="2">  1       -2 0.80742957E-02 0.27680036E+03</pdfrwt>
<totfact> 0.81720199E+03</totfact>
</mgrwt>
</event>
<event>
 9    1  0.7997082E-001  0.2673928E+03  0.7818608E-02  0.1102781E+00
          2   -1    0    0  501    0  0.00000000000E+00  0.00000000000E+00  0.28594611606E+03  0.28594611606E+03  0.00000000000E+00 0.  1.
         -2   -1    0    0    0  501 -0.00000000000E+00 -0.00000000000E+00 -0.62510817200E+02  0.62510817200E+02  0.00000000000E+00 0.  1.
         35    2    1    2    0    0  0.00000000000E+00  0.00000000000E+00  0.22343529886E+03  0.34845693326E+03  0.26739278517E+03 0.  0.
         25    2    3    3    0    0  0.42893368105E+02 -0.67644211584E+01  0.12604351611E+03  0.18284257808E+03  0.12513529472E+03 0.  0.
         25    2    3    3    0    0 -0.42893368105E+02  0.67644211584E+01  0.97391782756E+02  0.16561435519E+03  0.12671762653E+03 0.  0.
          5    1    4    4  502    0 -0.34468693566E+02 -0.27632140609E+02  0.76659181436E+02  0.88602179032E+02  0.47000000000E+01 0. -1.
         -5    1    4    4    0  502  0.77362061671E+02  0.20867719450E+02  0.49384334671E+02  0.94240399044E+02  0.47000000000E+01 0. -1.
          5    1    5    5  503    0 -0.11836983573E+02  0.46192792755E+02 -0.81940959185E+01  0.48611948022E+02  0.47000000000E+01 0. -1.
         -5    1    5    5    0  503 -0.31056384533E+02 -0.39428371596E+02  0.10558587867E+03  0.11700240717E+03  0.47000000000E+01 0. -1.
<mgrwt>
<rscale>  0 0.26739279E+03</rscale>
<asrwt>0</asrwt>
<pdfrwt beam="1">  1        2 0.43991709E-01 0.26739279E+03</pdfrwt>
<pdfrwt beam="2">  1       -2 0.96170490E-02 0.26739279E+03</pdfrwt>
<totfact> 0.80610003E+03</totfact>
</mgrwt>
</event>
<event>
 9    1  0.7997082E-001  0.2826187E+03  0.7818608E-02  0.1094267E+00
         -2   -1    0    0    0  501 -0.00000000000E+00  0.00000000000E+00  0.17204463804E+02  0.17204463804E+02  0.00000000000E+00 0.  1.
          2   -1    0    0  501    0  0.00000000000E+00 -0.00000000000E+00 -0.11606482888E+04  0.11606482888E+04  0.00000000000E+00 0.  1.
         35    2    1    2    0    0  0.14210854715E-13  0.71054273576E-14 -0.11434438250E+04  0.11778527527E+04  0.28261869347E+03 0.  0.
         25    2    3    3    0    0  0.47013656743E+02  0.72402024469E+01 -0.76641474413E+03  0.77781008507E+03  0.12383159517E+03 0.  0.
         25    2    3    3    0    0 -0.47013656743E+02 -0.72402024469E+01 -0.37702908092E+03  0.40004266758E+03  0.12498201303E+03 0.  0.
          5    1    4    4  502    0  0.98642444929E+01  0.62532286797E+02 -0.44739682537E+03  0.45187785912E+03  0.47000000000E+01 0.  1.
         -5    1    4    4    0  502  0.37149412250E+02 -0.55292084350E+02 -0.31901791875E+03  0.32593222594E+03  0.47000000000E+01 0.  1.
          5    1    5    5  503    0 -0.51510450160E+02 -0.40101490276E+02 -0.91182576934E+02  0.11223995872E+03  0.47000000000E+01 0. -1.
         -5    1    5    5    0  503  0.44967934166E+01  0.32861287829E+02 -0.28584650398E+03  0.28780270886E+03  0.47000000000E+01 0. -1.
<mgrwt>
<rscale>  0 0.28261869E+03</rscale>
<asrwt>0</asrwt>
<pdfrwt beam="1">  1        2 0.17856132E+00 0.28261869E+03</pdfrwt>
<pdfrwt beam="2">  1       -2 0.26468400E-02 0.28261869E+03</pdfrwt>
<totfact> 0.10741568E+04</totfact>
</mgrwt>
</event>
<event>
 9    1  0.7997082E-001  0.2755699E+03  0.7818608E-02  0.1098133E+00
         -1   -1    0    0    0  501 -0.00000000000E+00  0.00000000000E+00  0.11410779661E+02  0.11410779661E+02  0.00000000000E+00 0.  1.
          1   -1    0    0  501    0  0.00000000000E+00 -0.00000000000E+00 -0.16637505882E+04  0.16637505882E+04  0.00000000000E+00 0.  1.
         35    2    1    2    0    0  0.00000000000E+00  0.35527136788E-14 -0.16523398085E+04  0.16751613678E+04  0.27556989220E+03 0.  0.
         25    2    3    3    0    0 -0.50170486814E+02  0.88263607109E+01 -0.88358086925E+03  0.89391375584E+03  0.12558530165E+03 0.  0.
         25    2    3    3    0    0  0.50170486814E+02 -0.88263607109E+01 -0.76875893924E+03  0.78124761197E+03  0.12947023656E+03 0.  0.
          5    1    4    4  502    0 -0.16778272319E+02 -0.46694880833E+02 -0.16398037367E+03  0.17138720858E+03  0.47000000000E+01 0. -1.
         -5    1    4    4    0  502 -0.33392214495E+02  0.55521241544E+02 -0.71960049559E+03  0.72252654726E+03  0.47000000000E+01 0. -1.
          5    1    5    5  503    0  0.48201563817E+02 -0.10612260829E+02 -0.77287154498E+03  0.77446015125E+03  0.47000000000E+01 0.  1.
         -5    1    5    5    0  503  0.19689229978E+01  0.17859001186E+01  0.41126057415E+01  0.67874607174E+01  0.47000000000E+01 0.  1.
<mgrwt>
<rscale>  0 0.27556989E+03</rscale>
<asrwt>0</asrwt>
<pdfrwt beam="1">  1        1 0.25596172E+00 0.27556989E+03</pdfrwt>
<pdfrwt beam="2">  1       -1 0.17555040E-02 0.27556989E+03</pdfrwt>
<totfact> 0.46326701E+03</totfact>
</mgrwt>
</event>
<event>
 9    1  0.7997082E-001  0.2716617E+03  0.7818608E-02  0.1100332E+00
         -1   -1    0    0    0  501 -0.00000000000E+00  0.00000000000E+00  0.41802147482E+02  0.41802147482E+02  0.00000000000E+00 0. -1.
          1   -1    0    0  501    0  0.00000000000E+00 -0.00000000000E+00 -0.44136525372E+03  0.44136525372E+03  0.00000000000E+00 0. -1.
         35    2    1    2    0    0  0.00000000000E+00 -0.35527136788E-14 -0.39956310624E+03  0.48316740120E+03  0.27166166774E+03 0.  0.
         25    2    3    3    0    0  0.49356728828E+02 -0.13206185154E+02 -0.22677832142E+03  0.26413827571E+03  0.12541982147E+03 0.  0.
         25    2    3    3    0    0 -0.49356728828E+02  0.13206185154E+02 -0.17278478482E+03  0.21902912550E+03  0.12453387469E+03 0.  0.
          5    1    4    4  502    0  0.83544361438E+02 -0.20552455263E+02 -0.97430809936E+02  0.13006504707E+03  0.47000000000E+01 0. -1.
         -5    1    4    4    0  502 -0.34187632610E+02  0.73462701084E+01 -0.12934751149E+03  0.13407322863E+03  0.47000000000E+01 0. -1.
          5    1    5    5  503    0 -0.81927212648E+02 -0.22037585377E+02 -0.12498910837E+03  0.15113600018E+03  0.47000000000E+01 0. -1.
         -5    1    5    5    0  503  0.32570483820E+02  0.35243770531E+02 -0.47795676450E+02  0.67893125313E+02  0.47000000000E+01 0. -1.
<mgrwt>
<rscale>  0 0.27166167E+03</rscale>
<asrwt>0</asrwt>
<pdfrwt beam="1">  1        1 0.67902349E-01 0.27166167E+03</pdfrwt>
<pdfrwt beam="2">  1       -1 0.64310994E-02 0.27166167E+03</pdfrwt>
<totfact> 0.63690626E+03</totfact>
</mgrwt>
</event>
<event>
 9    1  0.7997082E-001  0.2732693E+03  0.7818608E-02  0.1099423E+00
          2   -1    0    0  501    0  0.00000000000E+00  0.00000000000E+00  0.26997510491E+04  0.26997510491E+04  0.00000000000E+00 0. -1.
         -2   -1    0    0    0  501 -0.00000000000E+00 -0.00000000000E+00 -0.69150897323E+01  0.69150897323E+01  0.00000000000E+00 0. -1.
         35    2    1    2    0    0  0.00000000000E+00  0.00000000000E+00  0.26928359594E+04  0.27066661389E+04  0.27326925008E+03 0.  0.
         25    2    3    3    0    0  0.46051670717E+02 -0.22722753472E+02  0.11261518553E+04  0.11342334787E+04  0.12502201023E+03 0.  0.
         25    2    3    3    0    0 -0.46051670717E+02  0.22722753472E+02  0.15666841041E+04  0.15724326602E+04  0.12413020946E+03 0.  0.
          5    1    4    4  502    0  0.45464678045E+02 -0.17320074419E+02  0.14426608366E+03  0.15232141944E+03  0.47000000000E+01 0. -1.
         -5    1    4    4    0  502  0.58699267134E+00 -0.54026790530E+01  0.98188577165E+03  0.98191205923E+03  0.47000000000E+01 0. -1.
          5    1    5    5  503    0  0.38553726939E+02 -0.39232600701E+01  0.28309924702E+03  0.28577798287E+03  0.47000000000E+01 0.  1.
         -5    1    5    5    0  503 -0.84605397656E+02  0.26646013543E+02  0.12835848571E+04  0.12866546773E+04  0.47000000000E+01 0.  1.
<mgrwt>
<rscale>  0 0.27326925E+03</rscale>
<asrwt>0</asrwt>
<pdfrwt beam="1">  1        2 0.41534547E+00 0.27326925E+03</pdfrwt>
<pdfrwt beam="2">  1       -2 0.10638621E-02 0.27326925E+03</pdfrwt>
<totfact> 0.60526190E+03</totfact>
</mgrwt>
</event>
<event>
 9    1  0.7997082E-001  0.2791724E+03  0.7818608E-02  0.1096142E+00
         -2   -1    0    0    0  501 -0.00000000000E+00  0.00000000000E+00  0.14551358925E+04  0.14551358925E+04  0.00000000000E+00 0. -1.
          2   -1    0    0  501    0  0.00000000000E+00 -0.00000000000E+00 -0.13390028178E+02  0.13390028178E+02  0.00000000000E+00 0. -1.
         35    2    1    2    0    0  0.00000000000E+00  0.00000000000E+00  0.14417458644E+04  0.14685259207E+04  0.27917242417E+03 0.  0.
         25    2    3    3    0    0 -0.21762064865E+02 -0.84570255182E+01  0.40800312199E+03  0.42718693123E+03  0.12440666347E+03 0.  0.
         25    2    3    3    0    0  0.21762064865E+02  0.84570255182E+01  0.10337427424E+04  0.10413389895E+04  0.12336014294E+03 0.  0.
          5    1    4    4  502    0 -0.61303782594E+02  0.32423587341E+02  0.22457782263E+03  0.23508877301E+03  0.47000000000E+01 0.  1.
         -5    1    4    4    0  502  0.39541717728E+02 -0.40880612860E+02  0.18342529936E+03  0.19209815822E+03  0.47000000000E+01 0.  1.
          5    1    5    5  503    0  0.23916983164E+02  0.61245962670E+02  0.40149945210E+03  0.40687466137E+03  0.47000000000E+01 0.  1.
         -5    1    5    5    0  503 -0.21549182983E+01 -0.52788937152E+02  0.63224329028E+03  0.63446432812E+03  0.47000000000E+01 0.  1.
<mgrwt>
<rscale>  0 0.27917242E+03</rscale>
<asrwt>0</asrwt>
<pdfrwt beam="1">  1        2 0.20600055E-02 0.27917242E+03</pdfrwt>
<pdfrwt beam="2">  1       -2 0.22386694E+00 0.27917242E+03</pdfrwt>
<totfact> 0.53981607E+02</totfact>
</mgrwt>
</event>
<event>
 9    1  0.7997082E-001  0.2750004E+03  0.7818608E-02  0.1098451E+00
          2   -1    0    0  501    0  0.00000000000E+00  0.00000000000E+00  0.17579910721E+04  0.17579910721E+04  0.00000000000E+00 0.  1.
         -2   -1    0    0    0  501 -0.00000000000E+00 -0.00000000000E+00 -0.10754497739E+02  0.10754497739E+02  0.00000000000E+00 0.  1.
         35    2    1    2    0    0  0.71054273576E-14  0.35527136788E-14  0.17472365744E+04  0.17687455699E+04  0.27500044371E+03 0.  0.
         25    2    3    3    0    0 -0.60814230975E+02 -0.26358516889E+01  0.94015878417E+03  0.95005574799E+03  0.12248292299E+03 0.  0.
         25    2    3    3    0    0  0.60814230975E+02  0.26358516889E+01  0.80707779022E+03  0.81868982188E+03  0.12317932694E+03 0.  0.
          5    1    4    4  502    0 -0.35346292299E+02  0.12666842739E+02  0.89497441175E+03  0.89577402115E+03  0.47000000000E+01 0. -1.
         -5    1    4    4    0  502 -0.25467938676E+02 -0.15302694428E+02  0.45184372428E+02  0.54281726841E+02  0.47000000000E+01 0. -1.
          5    1    5    5  503    0  0.58609258657E+02 -0.35830827668E+02  0.72081846336E+03  0.72409960678E+03  0.47000000000E+01 0. -1.
         -5    1    5    5    0  503  0.22049723175E+01  0.38466679357E+02  0.86259326856E+02  0.94590215104E+02  0.47000000000E+01 0. -1.
<mgrwt>
<rscale>  0 0.27500044E+03</rscale>
<asrwt>0</asrwt>
<pdfrwt beam="1">  1        2 0.27045994E+00 0.27500044E+03</pdfrwt>
<pdfrwt beam="2">  1       -2 0.16545395E-02 0.27500044E+03</pdfrwt>
<totfact> 0.10174962E+04</totfact>
</mgrwt>
</event>
<event>
 9    1  0.7997082E-001  0.2754060E+03  0.7818608E-02  0.1098225E+00
         -2   -1    0    0    0  501 -0.00000000000E+00  0.00000000000E+00  0.89942672346E+02  0.89942672346E+02  0.00000000000E+00 0. -1.
          2   -1    0    0  501    0  0.00000000000E+00 -0.00000000000E+00 -0.21082445434E+03  0.21082445434E+03  0.00000000000E+00 0. -1.
         35    2    1    2    0    0  0.00000000000E+00  0.00000000000E+00 -0.12088178199E+03  0.30076712668E+03  0.27540598991E+03 0.  0.
         25    2    3    3    0    0  0.24466925852E+02  0.49152262029E+02 -0.48680033908E+02  0.14506600742E+03  0.12513922441E+03 0.  0.
         25    2    3    3    0    0 -0.24466925852E+02 -0.49152262029E+02 -0.72201748084E+02  0.15570111926E+03  0.12655106001E+03 0.  0.
          5    1    4    4  502    0 -0.35872737548E+02 -0.19611993200E+02  0.37163360511E+00  0.41154728623E+02  0.47000000000E+01 0.  1.
         -5    1    4    4    0  502  0.60339663401E+02  0.68764255228E+02 -0.49051667513E+02  0.10391127880E+03  0.47000000000E+01 0.  1.
          5    1    5    5  503    0 -0.74850617108E+02 -0.27394734032E+02 -0.26496863639E+02  0.84126453133E+02  0.47000000000E+01 0.  1.
         -5    1    5    5    0  503  0.50383691255E+02 -0.21757527997E+02 -0.45704884445E+02  0.71574666126E+02  0.47000000000E+01 0.  1.
<mgrwt>
<rscale>  0 0.27540599E+03</rscale>
<asrwt>0</asrwt>
<pdfrwt beam="1">  1        2 0.32434531E-01 0.27540599E+03</pdfrwt>
<pdfrwt beam="2">  1       -2 0.13837334E-01 0.27540599E+03</pdfrwt>
<totfact> 0.62481047E+03</totfact>
</mgrwt>
</event>
<event>
 9    1  0.7997082E-001  0.2775541E+03  0.7818608E-02  0.1097032E+00
          1   -1    0    0  501    0  0.00000000000E+00  0.00000000000E+00  0.32463891790E+03  0.32463891790E+03  0.00000000000E+00 0. -1.
         -1   -1    0    0    0  501 -0.00000000000E+00 -0.00000000000E+00 -0.59324590113E+02  0.59324590113E+02  0.00000000000E+00 0. -1.
         35    2    1    2    0    0  0.14210854715E-13  0.35527136788E-14  0.26531432779E+03  0.38396350801E+03  0.27755410816E+03 0.  0.
         25    2    3    3    0    0 -0.59542138952E+02  0.18261899670E+02  0.14200827620E+03  0.19886305147E+03  0.12450461614E+03 0.  0.
         25    2    3    3    0    0  0.59542138952E+02 -0.18261899670E+02  0.12330605158E+03  0.18510045654E+03  0.12320321978E+03 0.  0.
          5    1    4    4  502    0  0.74051051971E+01  0.37915498102E+02 -0.17947609727E+01  0.38958076778E+02  0.47000000000E+01 0.  1.
         -5    1    4    4    0  502 -0.66947244149E+02 -0.19653598432E+02  0.14380303717E+03  0.15990497469E+03  0.47000000000E+01 0.  1.
          5    1    5    5  503    0  0.36512066512E+02  0.87755295655E+01 -0.16127510984E+02  0.41137908682E+02  0.47000000000E+01 0.  1.
         -5    1    5    5    0  503  0.23030072440E+02 -0.27037429236E+02  0.13943356257E+03  0.14396254786E+03  0.47000000000E+01 0.  1.
<mgrwt>
<rscale>  0 0.27755411E+03</rscale>
<asrwt>0</asrwt>
<pdfrwt beam="1">  1        1 0.49944448E-01 0.27755411E+03</pdfrwt>
<pdfrwt beam="2">  1       -1 0.91268602E-02 0.27755411E+03</pdfrwt>
<totfact> 0.55335159E+03</totfact>
</mgrwt>
</event>
<event>
 9    1  0.7997082E-001  0.2741568E+03  0.7818608E-02  0.1098924E+00
         -2   -1    0    0    0  501 -0.00000000000E+00  0.00000000000E+00  0.11510400622E+04  0.11510400622E+04  0.00000000000E+00 0.  1.
          2   -1    0    0  501    0  0.00000000000E+00 -0.00000000000E+00 -0.16324792476E+02  0.16324792476E+02  0.00000000000E+00 0.  1.
         35    2    1    2    0    0  0.14210854715E-13 -0.35527136788E-14  0.11347152697E+04  0.11673648547E+04  0.27415681751E+03 0.  0.
         25    2    3    3    0    0 -0.50395458748E+02 -0.11497477659E+02  0.63355837278E+03  0.64829902861E+03  0.12737160012E+03 0.  0.
         25    2    3    3    0    0  0.50395458748E+02  0.11497477659E+02  0.50115689693E+03  0.51906582606E+03  0.12489676610E+03 0.  0.
          5    1    4    4  502    0 -0.12950248540E+02 -0.35874283279E+02  0.50234981136E+02  0.63248055051E+02  0.47000000000E+01 0. -1.
         -5    1    4    4    0  502 -0.37445210208E+02  0.24376805620E+02  0.58332339165E+03  0.58505097356E+03  0.47000000000E+01 0. -1.
          5    1    5    5  503    0  0.83453551469E+02  0.24635976838E+02  0.23756398615E+03  0.25304182288E+03  0.47000000000E+01 0. -1.
         -5    1    5    5    0  503 -0.33058092721E+02 -0.13138499179E+02  0.26359291078E+03  0.26602400318E+03  0.47000000000E+01 0. -1.
<mgrwt>
<rscale>  0 0.27415682E+03</rscale>
<asrwt>0</asrwt>
<pdfrwt beam="1">  1        2 0.25115074E-02 0.27415682E+03</pdfrwt>
<pdfrwt beam="2">  1       -2 0.17708302E+00 0.27415682E+03</pdfrwt>
<totfact> 0.81405552E+02</totfact>
</mgrwt>
</event>
<event>
 9    1  0.7997082E-001  0.2750912E+03  0.7818608E-02  0.1098401E+00
         -2   -1    0    0    0  501 -0.00000000000E+00  0.00000000000E+00  0.12128431185E+04  0.12128431185E+04  0.00000000000E+00 0. -1.
          2   -1    0    0  501    0  0.00000000000E+00 -0.00000000000E+00 -0.15598708315E+02  0.15598708315E+02  0.00000000000E+00 0. -1.
         35    2    1    2    0    0  0.00000000000E+00  0.00000000000E+00  0.11972444102E+04  0.12284418268E+04  0.27509115607E+03 0.  0.
         25    2    3    3    0    0  0.50566855810E+02 -0.22000541139E+02  0.69387219652E+03  0.70720901601E+03  0.12507972059E+03 0.  0.
         25    2    3    3    0    0 -0.50566855810E+02  0.22000541139E+02  0.50337221365E+03  0.52123281080E+03  0.12352743360E+03 0.  0.
          5    1    4    4  502    0  0.27380317952E+02 -0.68248022565E+01  0.25729570262E+02  0.38475453511E+02  0.47000000000E+01 0. -1.
         -5    1    4    4    0  502  0.23186537858E+02 -0.15175738882E+02  0.66814262626E+03  0.66873356250E+03  0.47000000000E+01 0. -1.
          5    1    5    5  503    0  0.27809671851E+02  0.11289742297E+02  0.32040474915E+03  0.32184177697E+03  0.47000000000E+01 0. -1.
         -5    1    5    5    0  503 -0.78376527661E+02  0.10710798842E+02  0.18296746451E+03  0.19939103382E+03  0.47000000000E+01 0. -1.
<mgrwt>
<rscale>  0 0.27509116E+03</rscale>
<asrwt>0</asrwt>
<pdfrwt beam="1">  1        2 0.23998022E-02 0.27509116E+03</pdfrwt>
<pdfrwt beam="2">  1       -2 0.18659117E+00 0.27509116E+03</pdfrwt>
<totfact> 0.74915463E+02</totfact>
</mgrwt>
</event>
<event>
 9    1  0.7997082E-001  0.2749311E+03  0.7818608E-02  0.1098490E+00
         -4   -1    0    0    0  501 -0.00000000000E+00  0.00000000000E+00  0.20586238204E+03  0.20586238204E+03  0.00000000000E+00 0. -1.
          4   -1    0    0  501    0  0.00000000000E+00 -0.00000000000E+00 -0.91793255008E+02  0.91793255008E+02  0.00000000000E+00 0. -1.
         35    2    1    2    0    0  0.35527136788E-14 -0.71054273576E-14  0.11406912703E+03  0.29765563704E+03  0.27493110505E+03 0.  0.
         25    2    3    3    0    0  0.19469659311E+02 -0.44890138580E+02  0.24670938240E+02  0.13638167053E+03  0.12488840094E+03 0.  0.
         25    2    3    3    0    0 -0.19469659311E+02  0.44890138580E+02  0.89398188789E+02  0.16127396651E+03  0.12499225552E+03 0.  0.
          5    1    4    4  502    0  0.34300415911E+02 -0.74569422719E+02 -0.15924472797E+02  0.83742439481E+02  0.47000000000E+01 0. -1.
         -5    1    4    4    0  502 -0.14830756600E+02  0.29679284140E+02  0.40595411037E+02  0.52639231051E+02  0.47000000000E+01 0. -1.
          5    1    5    5  503    0  0.37483947578E+02  0.62780479720E+02  0.38982628858E+02  0.82995001733E+02  0.47000000000E+01 0. -1.
         -5    1    5    5    0  503 -0.56953606889E+02 -0.17890341140E+02  0.50415559930E+02  0.78278964779E+02  0.47000000000E+01 0. -1.
<mgrwt>
<rscale>  0 0.27493111E+03</rscale>
<asrwt>0</asrwt>
<pdfrwt beam="1">  1        4 0.14122039E-01 0.27493111E+03</pdfrwt>
<pdfrwt beam="2">  1       -4 0.31671135E-01 0.27493111E+03</pdfrwt>
<totfact> 0.75314629E+02</totfact>
</mgrwt>
</event>
<event>
 9    1  0.7997082E-001  0.2759859E+03  0.7818608E-02  0.1097902E+00
         -2   -1    0    0    0  501 -0.00000000000E+00  0.00000000000E+00  0.14806920338E+02  0.14806920338E+02  0.00000000000E+00 0. -1.
          2   -1    0    0  501    0  0.00000000000E+00 -0.00000000000E+00 -0.12860239039E+04  0.12860239039E+04  0.00000000000E+00 0. -1.
         35    2    1    2    0    0  0.00000000000E+00  0.00000000000E+00 -0.12712169836E+04  0.13008308242E+04  0.27598589455E+03 0.  0.
         25    2    3    3    0    0 -0.48387223372E+02 -0.23997868277E+02 -0.53795979321E+03  0.55498936132E+03  0.12528060903E+03 0.  0.
         25    2    3    3    0    0  0.48387223372E+02  0.23997868277E+02 -0.73325719034E+03  0.74584146291E+03  0.12528431481E+03 0.  0.
          5    1    4    4  502    0 -0.31268197787E+02 -0.75551801830E+02 -0.32402484227E+03  0.33421544452E+03  0.47000000000E+01 0. -1.
         -5    1    4    4    0  502 -0.17119025585E+02  0.51553933553E+02 -0.21393495095E+03  0.22077391680E+03  0.47000000000E+01 0. -1.
          5    1    5    5  503    0  0.27324379486E+02  0.10347833910E+02 -0.71200373217E+03  0.71261848419E+03  0.47000000000E+01 0.  1.
         -5    1    5    5    0  503  0.21062843886E+02  0.13650034367E+02 -0.21253458168E+02  0.33222978718E+02  0.47000000000E+01 0.  1.
<mgrwt>
<rscale>  0 0.27598589E+03</rscale>
<asrwt>0</asrwt>
<pdfrwt beam="1">  1        2 0.19784987E+00 0.27598589E+03</pdfrwt>
<pdfrwt beam="2">  1       -2 0.22779873E-02 0.27598589E+03</pdfrwt>
<totfact> 0.11386566E+04</totfact>
</mgrwt>
</event>
<event>
 9    1  0.7997082E-001  0.2682082E+03  0.7818608E-02  0.1102309E+00
          1   -1    0    0  501    0  0.00000000000E+00  0.00000000000E+00  0.34416116881E+04  0.34416116881E+04  0.00000000000E+00 0.  1.
         -1   -1    0    0    0  501 -0.00000000000E+00 -0.00000000000E+00 -0.52254337130E+01  0.52254337130E+01  0.00000000000E+00 0.  1.
         35    2    1    2    0    0 -0.14210854715E-13 -0.17763568394E-14  0.34363862544E+04  0.34468371218E+04  0.26820823061E+03 0.  0.
         25    2    3    3    0    0  0.41530343524E+02 -0.64063303365E+01  0.19919549273E+04  0.19963663043E+04  0.12581008680E+03 0.  0.
         25    2    3    3    0    0 -0.41530343524E+02  0.64063303365E+01  0.14444313271E+04  0.14504708176E+04  0.12537114247E+03 0.  0.
          5    1    4    4  502    0  0.70689745831E+02  0.14739196912E+02  0.17683603047E+04  0.17698402587E+04  0.47000000000E+01 0.  1.
         -5    1    4    4    0  502 -0.29159402307E+02 -0.21145527249E+02  0.22359462263E+03  0.22652604560E+03  0.47000000000E+01 0.  1.
          5    1    5    5  503    0  0.14411777104E+02  0.55366294706E+02  0.68010393022E+03  0.68252221342E+03  0.47000000000E+01 0.  1.
         -5    1    5    5    0  503 -0.55942120628E+02 -0.48959964369E+02  0.76432739689E+03  0.76794860415E+03  0.47000000000E+01 0.  1.
<mgrwt>
<rscale>  0 0.26820823E+03</rscale>
<asrwt>0</asrwt>
<pdfrwt beam="1">  1        1 0.52947691E+00 0.26820823E+03</pdfrwt>
<pdfrwt beam="2">  1       -1 0.80391563E-03 0.26820823E+03</pdfrwt>
<totfact> 0.89611884E+02</totfact>
</mgrwt>
</event>
<event>
 9    1  0.7997082E-001  0.2812196E+03  0.7818608E-02  0.1095025E+00
          2   -1    0    0  501    0  0.00000000000E+00  0.00000000000E+00  0.10689528157E+04  0.10689528157E+04  0.00000000000E+00 0.  1.
         -2   -1    0    0    0  501 -0.00000000000E+00 -0.00000000000E+00 -0.18495776537E+02  0.18495776537E+02  0.00000000000E+00 0.  1.
         35    2    1    2    0    0  0.14210854715E-13  0.00000000000E+00  0.10504570391E+04  0.10874485922E+04  0.28121957547E+03 0.  0.
         25    2    3    3    0    0  0.56385692101E+02 -0.40496774591E+02  0.56754417109E+03  0.58452409887E+03  0.12141952477E+03 0.  0.
         25    2    3    3    0    0 -0.56385692101E+02  0.40496774591E+02  0.48291286804E+03  0.50292449333E+03  0.12210189536E+03 0.  0.
          5    1    4    4  502    0  0.40418790692E+01  0.90560794189E+01 -0.13548872681E+01  0.11057806309E+02  0.47000000000E+01 0. -1.
         -5    1    4    4    0  502  0.52343813031E+02 -0.49552854010E+02  0.56889905836E+03  0.57346629256E+03  0.47000000000E+01 0. -1.
          5    1    5    5  503    0 -0.74898118656E+02 -0.18932800766E+02  0.24329554054E+03  0.25530959475E+03  0.47000000000E+01 0. -1.
         -5    1    5    5    0  503  0.18512426555E+02  0.59429575358E+02  0.23961732750E+03  0.24761489858E+03  0.47000000000E+01 0. -1.
<mgrwt>
<rscale>  0 0.28121958E+03</rscale>
<asrwt>0</asrwt>
<pdfrwt beam="1">  1        2 0.16445423E+00 0.28121958E+03</pdfrwt>
<pdfrwt beam="2">  1       -2 0.28455049E-02 0.28121958E+03</pdfrwt>
<totfact> 0.10913910E+04</totfact>
</mgrwt>
</event>
<event>
 9    1  0.7997082E-001  0.2742728E+03  0.7818608E-02  0.1098859E+00
          2   -1    0    0  501    0  0.00000000000E+00  0.00000000000E+00  0.59226829843E+03  0.59226829843E+03  0.00000000000E+00 0. -1.
         -2   -1    0    0    0  501 -0.00000000000E+00 -0.00000000000E+00 -0.31753174696E+02  0.31753174696E+02  0.00000000000E+00 0. -1.
         35    2    1    2    0    0  0.00000000000E+00  0.35527136788E-14  0.56051512373E+03  0.62402147313E+03  0.27427284770E+03 0.  0.
         25    2    3    3    0    0  0.21614544528E+02  0.27769875088E+02  0.38470293363E+03  0.40564062661E+03  0.12373203430E+03 0.  0.
         25    2    3    3    0    0 -0.21614544528E+02 -0.27769875088E+02  0.17581219010E+03  0.21838084652E+03  0.12466721077E+03 0.  0.
          5    1    4    4  502    0  0.44018941414E+01  0.44856208942E+01 -0.83705597820E+01  0.11474046274E+02  0.47000000000E+01 0. -1.
         -5    1    4    4    0  502  0.17212650387E+02  0.23284254194E+02  0.39307349341E+03  0.39416658033E+03  0.47000000000E+01 0. -1.
          5    1    5    5  503    0  0.15007776297E+02 -0.69031230698E+02  0.73539956074E+02  0.10208212038E+03  0.47000000000E+01 0.  1.
         -5    1    5    5    0  503 -0.36622320824E+02  0.41261355610E+02  0.10227223403E+03  0.11629872614E+03  0.47000000000E+01 0.  1.
<mgrwt>
<rscale>  0 0.27427285E+03</rscale>
<asrwt>0</asrwt>
<pdfrwt beam="1">  1        2 0.91118192E-01 0.27427285E+03</pdfrwt>
<pdfrwt beam="2">  1       -2 0.48851042E-02 0.27427285E+03</pdfrwt>
<totfact> 0.10341696E+04</totfact>
</mgrwt>
</event>
<event>
 9    1  0.7997082E-001  0.2894381E+03  0.7818608E-02  0.1090643E+00
         -2   -1    0    0    0  501 -0.00000000000E+00  0.00000000000E+00  0.91766096889E+01  0.91766096889E+01  0.00000000000E+00 0. -1.
          2   -1    0    0  501    0  0.00000000000E+00 -0.00000000000E+00 -0.22822809492E+04  0.22822809492E+04  0.00000000000E+00 0. -1.
         35    2    1    2    0    0  0.00000000000E+00  0.14210854715E-13 -0.22731043396E+04  0.22914575589E+04  0.28943808645E+03 0.  0.
         25    2    3    3    0    0  0.20294936529E+02  0.69558142633E+02 -0.11354244654E+04  0.11446183029E+04  0.12534800772E+03 0.  0.
         25    2    3    3    0    0 -0.20294936529E+02 -0.69558142633E+02 -0.11376798742E+04  0.11468392561E+04  0.12519809693E+03 0.  0.
          5    1    4    4  502    0  0.85884476170E+01 -0.34398661282E+02 -0.42709180772E+03  0.42858666749E+03  0.47000000000E+01 0.  1.
         -5    1    4    4    0  502  0.11706488912E+02  0.10395680392E+03 -0.70833265764E+03  0.71603163536E+03  0.47000000000E+01 0.  1.
          5    1    5    5  503    0 -0.15679564115E+02  0.21822317297E+02 -0.68362639228E+02  0.73604366074E+02  0.47000000000E+01 0.  1.
         -5    1    5    5    0  503 -0.46153724147E+01 -0.91380459930E+02 -0.10693172350E+04  0.10732348900E+04  0.47000000000E+01 0.  1.
<mgrwt>
<rscale>  0 0.28943809E+03</rscale>
<asrwt>0</asrwt>
<pdfrwt beam="1">  1        2 0.35112030E+00 0.28943809E+03</pdfrwt>
<pdfrwt beam="2">  1       -2 0.14117855E-02 0.28943809E+03</pdfrwt>
<totfact> 0.67854850E+03</totfact>
</mgrwt>
</event>
<event>
 9    1  0.7997082E-001  0.2748517E+03  0.7818608E-02  0.1098535E+00
          2   -1    0    0  501    0  0.00000000000E+00  0.00000000000E+00  0.44361246837E+03  0.44361246837E+03  0.00000000000E+00 0. -1.
         -2   -1    0    0    0  501 -0.00000000000E+00 -0.00000000000E+00 -0.42572880549E+02  0.42572880549E+02  0.00000000000E+00 0. -1.
         35    2    1    2    0    0  0.00000000000E+00 -0.35527136788E-14  0.40103958782E+03  0.48618534892E+03  0.27485167364E+03 0.  0.
         25    2    3    3    0    0 -0.10490492784E+01  0.29968847571E+02  0.28491506401E+03  0.31337100974E+03  0.12698647060E+03 0.  0.
         25    2    3    3    0    0  0.10490492784E+01 -0.29968847571E+02  0.11612452381E+03  0.17281433918E+03  0.12442129426E+03 0.  0.
          5    1    4    4  502    0  0.46594680405E+02  0.44166441836E+02  0.81177906615E+02  0.10360348136E+03  0.47000000000E+01 0. -1.
         -5    1    4    4    0  502 -0.47643729683E+02 -0.14197594265E+02  0.20373715740E+03  0.20976752839E+03  0.47000000000E+01 0. -1.
          5    1    5    5  503    0 -0.37875859051E+02  0.35192724044E+02  0.45584629864E+02  0.69088038070E+02  0.47000000000E+01 0. -1.
         -5    1    5    5    0  503  0.38924908329E+02 -0.65161571615E+02  0.70539893945E+02  0.10372630111E+03  0.47000000000E+01 0. -1.
<mgrwt>
<rscale>  0 0.27485167E+03</rscale>
<asrwt>0</asrwt>
<pdfrwt beam="1">  1        2 0.68248069E-01 0.27485167E+03</pdfrwt>
<pdfrwt beam="2">  1       -2 0.65496742E-02 0.27485167E+03</pdfrwt>
<totfact> 0.91426547E+03</totfact>
</mgrwt>
</event>
<event>
 9    1  0.7997082E-001  0.2737157E+03  0.7818608E-02  0.1099172E+00
         -1   -1    0    0    0  501 -0.00000000000E+00  0.00000000000E+00  0.12961077491E+02  0.12961077491E+02  0.00000000000E+00 0.  1.
          1   -1    0    0  501    0  0.00000000000E+00 -0.00000000000E+00 -0.14451010862E+04  0.14451010862E+04  0.00000000000E+00 0.  1.
         35    2    1    2    0    0 -0.35527136788E-14 -0.71054273576E-14 -0.14321400087E+04  0.14580621637E+04  0.27371567117E+03 0.  0.
         25    2    3    3    0    0 -0.76278110965E+01 -0.35081508154E+02 -0.98443472633E+03  0.99300462072E+03  0.12513013492E+03 0.  0.
         25    2    3    3    0    0  0.76278110965E+01  0.35081508154E+02 -0.44770528242E+03  0.46505754300E+03  0.12062173387E+03 0.  0.
          5    1    4    4  502    0  0.34346166382E+02  0.31688775999E+02 -0.25367674620E+03  0.25798802149E+03  0.47000000000E+01 0.  1.
         -5    1    4    4    0  502 -0.41973977478E+02 -0.66770284153E+02 -0.73075798013E+03  0.73501659923E+03  0.47000000000E+01 0.  1.
          5    1    5    5  503    0 -0.16454530282E+02 -0.34191157636E+02 -0.27093601597E+03  0.27362054305E+03  0.47000000000E+01 0. -1.
         -5    1    5    5    0  503  0.24082341378E+02  0.69272665789E+02 -0.17676926644E+03  0.19143699995E+03  0.47000000000E+01 0. -1.
<mgrwt>
<rscale>  0 0.27371567E+03</rscale>
<asrwt>0</asrwt>
<pdfrwt beam="1">  1        1 0.22232319E+00 0.27371567E+03</pdfrwt>
<pdfrwt beam="2">  1       -1 0.19940124E-02 0.27371567E+03</pdfrwt>
<totfact> 0.53610726E+03</totfact>
</mgrwt>
</event>
<event>
 9    1  0.7997082E-001  0.2744372E+03  0.7818608E-02  0.1098767E+00
          2   -1    0    0  501    0  0.00000000000E+00  0.00000000000E+00  0.39997581081E+03  0.39997581081E+03  0.00000000000E+00 0.  1.
         -2   -1    0    0    0  501 -0.00000000000E+00 -0.00000000000E+00 -0.47075207261E+02  0.47075207261E+02  0.00000000000E+00 0.  1.
         35    2    1    2    0    0  0.00000000000E+00  0.13322676296E-14  0.35290060355E+03  0.44705101808E+03  0.27443720006E+03 0.  0.
         25    2    3    3    0    0 -0.50253034348E+02 -0.38453099868E+01  0.21462089108E+03  0.25391667525E+03  0.12598173365E+03 0.  0.
         25    2    3    3    0    0  0.50253034348E+02  0.38453099868E+01  0.13827971248E+03  0.19313434283E+03  0.12505775316E+03 0.  0.
          5    1    4    4  502    0 -0.25909707282E+02  0.17927359032E+01 -0.97298062188E+01  0.28129805590E+02  0.47000000000E+01 0.  1.
         -5    1    4    4    0  502 -0.24343327066E+02 -0.56380458900E+01  0.22435069730E+03  0.22578686966E+03  0.47000000000E+01 0.  1.
          5    1    5    5  503    0 -0.22172509797E+02  0.14194407424E+02 -0.93280661751E+01  0.28323209765E+02  0.47000000000E+01 0.  1.
         -5    1    5    5    0  503  0.72425544145E+02 -0.10349097437E+02  0.14760777865E+03  0.16481113306E+03  0.47000000000E+01 0.  1.
<mgrwt>
<rscale>  0 0.27443720E+03</rscale>
<asrwt>0</asrwt>
<pdfrwt beam="1">  1        2 0.61534738E-01 0.27443720E+03</pdfrwt>
<pdfrwt beam="2">  1       -2 0.72423399E-02 0.27443720E+03</pdfrwt>
<totfact> 0.87627603E+03</totfact>
</mgrwt>
</event>
<event>
 8    1  0.7997082E-001  0.5650794E+03  0.7818608E-02  0.9980627E-01
          1   -1    0    0  501    0  0.00000000000E+00  0.00000000000E+00  0.69553324890E+02  0.69553324890E+02  0.00000000000E+00 0. -1.
         -1   -1    0    0    0  501 -0.00000000000E+00 -0.00000000000E+00 -0.11477334205E+04  0.11477334205E+04  0.00000000000E+00 0. -1.
         25    2    1    2    0    0 -0.19767684102E+03 -0.11533284215E+03 -0.30241998639E+03  0.39910635546E+03  0.12429898168E+03 0.  0.
         25    2    1    2    0    0  0.19767684102E+03  0.11533284215E+03 -0.77576010923E+03  0.81818038994E+03  0.12344069613E+03 0.  0.
          5    1    3    3  502    0 -0.18910664600E+03 -0.80695816730E+02 -0.18614865802E+03  0.27739241388E+03  0.47000000000E+01 0.  1.
         -5    1    3    3    0  502 -0.85701950204E+01 -0.34637025418E+02 -0.11627132837E+03  0.12171394158E+03  0.47000000000E+01 0.  1.
          5    1    4    4  503    0  0.14760575291E+03  0.80403877127E+02 -0.70420958132E+03  0.72400653738E+03  0.47000000000E+01 0.  1.
         -5    1    4    4    0  503  0.50071088107E+02  0.34928965020E+02 -0.71550527908E+02  0.94173852558E+02  0.47000000000E+01 0.  1.
<mgrwt>
<rscale>  0 0.56507938E+03</rscale>
<asrwt>0</asrwt>
<pdfrwt beam="1">  1        1 0.10700512E-01 0.56507938E+03</pdfrwt>
<pdfrwt beam="2">  1       -1 0.17657437E+00 0.56507938E+03</pdfrwt>
<totfact> 0.13861576E+02</totfact>
</mgrwt>
</event>
<event>
 9    1  0.7997082E-001  0.2739504E+03  0.7818608E-02  0.1099040E+00
          2   -1    0    0  501    0  0.00000000000E+00  0.00000000000E+00  0.70869375326E+03  0.70869375326E+03  0.00000000000E+00 0.  1.
         -2   -1    0    0    0  501 -0.00000000000E+00 -0.00000000000E+00 -0.26474354858E+02  0.26474354858E+02  0.00000000000E+00 0.  1.
         35    2    1    2    0    0  0.00000000000E+00  0.00000000000E+00  0.68221939840E+03  0.73516810811E+03  0.27395043281E+03 0.  0.
         25    2    3    3    0    0 -0.43323404316E+02  0.34090860666E+02  0.32708374508E+03  0.35474891094E+03  0.12579312135E+03 0.  0.
         25    2    3    3    0    0  0.43323404316E+02 -0.34090860666E+02  0.35513565332E+03  0.38041919717E+03  0.12473303161E+03 0.  0.
          5    1    4    4  502    0  0.31267884648E+02  0.15418488204E+02  0.22022318188E+03  0.22301513452E+03  0.47000000000E+01 0.  1.
         -5    1    4    4    0  502 -0.74591288964E+02  0.18672372462E+02  0.10686056320E+03  0.13173377642E+03  0.47000000000E+01 0.  1.
          5    1    5    5  503    0  0.34536021535E+02 -0.76003992039E+02  0.29379086123E+03  0.30545785918E+03  0.47000000000E+01 0. -1.
         -5    1    5    5    0  503  0.87873827817E+01  0.41913131373E+02  0.61344792086E+02  0.74961337993E+02  0.47000000000E+01 0. -1.
<mgrwt>
<rscale>  0 0.27395043E+03</rscale>
<asrwt>0</asrwt>
<pdfrwt beam="1">  1        2 0.10902979E+00 0.27395043E+03</pdfrwt>
<pdfrwt beam="2">  1       -2 0.40729782E-02 0.27395043E+03</pdfrwt>
<totfact> 0.11001786E+04</totfact>
</mgrwt>
</event>
<event>
 9    1  0.7997082E-001  0.2841143E+03  0.7818608E-02  0.1093463E+00
         -1   -1    0    0    0  501 -0.00000000000E+00  0.00000000000E+00  0.75577778039E+02  0.75577778039E+02  0.00000000000E+00 0. -1.
          1   -1    0    0  501    0  0.00000000000E+00 -0.00000000000E+00 -0.26701275500E+03  0.26701275500E+03  0.00000000000E+00 0. -1.
         35    2    1    2    0    0 -0.71054273576E-14  0.00000000000E+00 -0.19143497696E+03  0.34259053304E+03  0.28411427793E+03 0.  0.
         25    2    3    3    0    0  0.59063934543E+02  0.21346891936E+02 -0.12654516909E+03  0.18823727279E+03  0.12439997141E+03 0.  0.
         25    2    3    3    0    0 -0.59063934543E+02 -0.21346891936E+02 -0.64889807874E+02  0.15435326025E+03  0.12517988507E+03 0.  0.
          5    1    4    4  502    0  0.71871210945E+02 -0.30995886846E+02 -0.45070219437E+02  0.90441310496E+02  0.47000000000E+01 0.  1.
         -5    1    4    4    0  502 -0.12807276403E+02  0.52342778783E+02 -0.81474949651E+02  0.97795962290E+02  0.47000000000E+01 0.  1.
          5    1    5    5  503    0 -0.92975342527E+02 -0.39438809360E+02 -0.42955030152E+02  0.10985016439E+03  0.47000000000E+01 0.  1.
         -5    1    5    5    0  503  0.33911407984E+02  0.18091917424E+02 -0.21934777723E+02  0.44503095862E+02  0.47000000000E+01 0.  1.
<mgrwt>
<rscale>  0 0.28411428E+03</rscale>
<asrwt>0</asrwt>
<pdfrwt beam="1">  1        1 0.41078886E-01 0.28411428E+03</pdfrwt>
<pdfrwt beam="2">  1       -1 0.11627350E-01 0.28411428E+03</pdfrwt>
<totfact> 0.48662559E+03</totfact>
</mgrwt>
</event>
<event>
 9    1  0.7997082E-001  0.2727600E+03  0.7818608E-02  0.1099710E+00
         -2   -1    0    0    0  501 -0.00000000000E+00  0.00000000000E+00  0.11917777469E+02  0.11917777469E+02  0.00000000000E+00 0. -1.
          2   -1    0    0  501    0  0.00000000000E+00 -0.00000000000E+00 -0.15606523163E+04  0.15606523163E+04  0.00000000000E+00 0. -1.
         35    2    1    2    0    0 -0.35527136788E-14  0.35527136788E-14 -0.15487345388E+04  0.15725700937E+04  0.27276001916E+03 0.  0.
         25    2    3    3    0    0 -0.11673107107E+02  0.20119896922E+02 -0.10531449358E+04  0.10607688831E+04  0.12480102549E+03 0.  0.
         25    2    3    3    0    0  0.11673107107E+02 -0.20119896922E+02 -0.49558960301E+03  0.51180121061E+03  0.12565967087E+03 0.  0.
          5    1    4    4  502    0  0.48959172968E+02  0.12454222023E+02 -0.73651742057E+03  0.73826289970E+03  0.47000000000E+01 0. -1.
         -5    1    4    4    0  502 -0.60632280075E+02  0.76656748985E+01 -0.31662751521E+03  0.32250598343E+03  0.47000000000E+01 0. -1.
          5    1    5    5  503    0 -0.27809253712E+02 -0.11886075020E+02 -0.25153296985E+02  0.39615801401E+02  0.47000000000E+01 0.  1.
         -5    1    5    5    0  503  0.39482360819E+02 -0.82338219012E+01 -0.47043630603E+03  0.47218540921E+03  0.47000000000E+01 0.  1.
<mgrwt>
<rscale>  0 0.27276002E+03</rscale>
<asrwt>0</asrwt>
<pdfrwt beam="1">  1        2 0.24010039E+00 0.27276002E+03</pdfrwt>
<pdfrwt beam="2">  1       -2 0.18335040E-02 0.27276002E+03</pdfrwt>
<totfact> 0.11123410E+04</totfact>
</mgrwt>
</event>
<event>
 9    1  0.7997082E-001  0.2757098E+03  0.7818608E-02  0.1098055E+00
          2   -1    0    0  501    0  0.00000000000E+00  0.00000000000E+00  0.44185234707E+02  0.44185234707E+02  0.00000000000E+00 0.  1.
         -2   -1    0    0    0  501 -0.00000000000E+00 -0.00000000000E+00 -0.43009789435E+03  0.43009789435E+03  0.00000000000E+00 0.  1.
         35    2    1    2    0    0  0.00000000000E+00  0.53290705182E-14 -0.38591265965E+03  0.47428312906E+03  0.27570982144E+03 0.  0.
         25    2    3    3    0    0  0.51420186125E+02  0.14793152034E+02 -0.18010434465E+03  0.22434286566E+03  0.12259393754E+03 0.  0.
         25    2    3    3    0    0 -0.51420186125E+02 -0.14793152034E+02 -0.20580831500E+03  0.24994026340E+03  0.13134001622E+03 0.  0.
          5    1    4    4  502    0 -0.11005688152E+02  0.30835407602E+01 -0.15562065087E+03  0.15611057098E+03  0.47000000000E+01 0. -1.
         -5    1    4    4    0  502  0.62425874276E+02  0.11709611274E+02 -0.24483693777E+02  0.68232294673E+02  0.47000000000E+01 0. -1.
          5    1    5    5  503    0 -0.50183959748E+02 -0.47129669506E+02 -0.20598915329E+03  0.21724009031E+03  0.47000000000E+01 0.  1.
         -5    1    5    5    0  503 -0.12362263770E+01  0.32336517472E+02  0.18083829490E+00  0.32700173094E+02  0.47000000000E+01 0.  1.
<mgrwt>
<rscale>  0 0.27570982E+03</rscale>
<asrwt>0</asrwt>
<pdfrwt beam="1">  1        2 0.67977283E-02 0.27570982E+03</pdfrwt>
<pdfrwt beam="2">  1       -2 0.66168908E-01 0.27570982E+03</pdfrwt>
<totfact> 0.22526727E+03</totfact>
</mgrwt>
</event>
<event>
 9    1  0.7997082E-001  0.2730978E+03  0.7818608E-02  0.1099520E+00
         -1   -1    0    0    0  501 -0.00000000000E+00  0.00000000000E+00  0.58914418108E+03  0.58914418108E+03  0.00000000000E+00 0.  1.
          1   -1    0    0  501    0  0.00000000000E+00 -0.00000000000E+00 -0.31648616940E+02  0.31648616940E+02  0.00000000000E+00 0.  1.
         35    2    1    2    0    0  0.17763568394E-14  0.00000000000E+00  0.55749556414E+03  0.62079279802E+03  0.27309777377E+03 0.  0.
         25    2    3    3    0    0 -0.82331823491E+01  0.19260722991E+02  0.39240999572E+03  0.41262488113E+03  0.12583690651E+03 0.  0.
         25    2    3    3    0    0  0.82331823491E+01 -0.19260722991E+02  0.16508556841E+03  0.20816791689E+03  0.12506748571E+03 0.  0.
          5    1    4    4  502    0 -0.59911863533E+01 -0.47436589794E+02  0.25857543382E+03  0.26300089228E+03  0.47000000000E+01 0.  1.
         -5    1    4    4    0  502 -0.22419959958E+01  0.66697312785E+02  0.13383456191E+03  0.14962398885E+03  0.47000000000E+01 0.  1.
          5    1    5    5  503    0  0.33946699886E+02 -0.15261787316E+02  0.17570964466E+03  0.17966989122E+03  0.47000000000E+01 0. -1.
         -5    1    5    5    0  503 -0.25713517537E+02 -0.39989356758E+01 -0.10624076248E+02  0.28498025665E+02  0.47000000000E+01 0. -1.
<mgrwt>
<rscale>  0 0.27309777E+03</rscale>
<asrwt>0</asrwt>
<pdfrwt beam="1">  1        1 0.48690184E-02 0.27309777E+03</pdfrwt>
<pdfrwt beam="2">  1       -1 0.90637558E-01 0.27309777E+03</pdfrwt>
<totfact> 0.21578156E+03</totfact>
</mgrwt>
</event>
<event>
 9    1  0.7997082E-001  0.2746113E+03  0.7818608E-02  0.1098669E+00
          1   -1    0    0  501    0  0.00000000000E+00  0.00000000000E+00  0.48991020668E+02  0.48991020668E+02  0.00000000000E+00 0. -1.
         -1   -1    0    0    0  501 -0.00000000000E+00 -0.00000000000E+00 -0.38482237944E+03  0.38482237944E+03  0.00000000000E+00 0. -1.
         35    2    1    2    0    0 -0.88817841970E-15 -0.71054273576E-14 -0.33583135877E+03  0.43381340011E+03  0.27461129725E+03 0.  0.
         25    2    3    3    0    0  0.12761232474E+01  0.40517195558E+02 -0.23088465559E+03  0.26566517445E+03  0.12500795616E+03 0.  0.
         25    2    3    3    0    0 -0.12761232474E+01 -0.40517195558E+02 -0.10494670319E+03  0.16814822566E+03  0.12496697026E+03 0.  0.
          5    1    4    4  502    0 -0.13879031509E+02  0.83424883579E+02 -0.13404984614E+03  0.15856793486E+03  0.47000000000E+01 0. -1.
         -5    1    4    4    0  502  0.15155154756E+02 -0.42907688020E+02 -0.96834809452E+02  0.10709723959E+03  0.47000000000E+01 0. -1.
          5    1    5    5  503    0 -0.51032890478E+01 -0.85006766967E+02 -0.79191141047E+02  0.11638522591E+03  0.47000000000E+01 0.  1.
         -5    1    5    5    0  503  0.38271658004E+01  0.44489571409E+02 -0.25755562139E+02  0.51762999751E+02  0.47000000000E+01 0.  1.
<mgrwt>
<rscale>  0 0.27461130E+03</rscale>
<asrwt>0</asrwt>
<pdfrwt beam="1">  1        1 0.75370799E-02 0.27461130E+03</pdfrwt>
<pdfrwt beam="2">  1       -1 0.59203445E-01 0.27461130E+03</pdfrwt>
<totfact> 0.28050921E+03</totfact>
</mgrwt>
</event>
<event>
 9    1  0.7997082E-001  0.2730610E+03  0.7818608E-02  0.1099540E+00
          2   -1    0    0  501    0  0.00000000000E+00  0.00000000000E+00  0.79741858413E+03  0.79741858413E+03  0.00000000000E+00 0.  1.
         -2   -1    0    0    0  501 -0.00000000000E+00 -0.00000000000E+00 -0.23376152369E+02  0.23376152369E+02  0.00000000000E+00 0.  1.
         35    2    1    2    0    0  0.35527136788E-14  0.00000000000E+00  0.77404243176E+03  0.82079473650E+03  0.27306100655E+03 0.  0.
         25    2    3    3    0    0 -0.26913681661E+02 -0.26376539162E+01  0.56057284442E+03  0.57507575624E+03  0.12545480473E+03 0.  0.
         25    2    3    3    0    0  0.26913681661E+02  0.26376539162E+01  0.21346958734E+03  0.24571898026E+03  0.11864758347E+03 0.  0.
          5    1    4    4  502    0  0.63370223262E+01 -0.57464219848E+02  0.18013014233E+03  0.18923861284E+03  0.47000000000E+01 0.  1.
         -5    1    4    4    0  502 -0.33250703987E+02  0.54826565932E+02  0.38044270209E+03  0.38583714339E+03  0.47000000000E+01 0.  1.
          5    1    5    5  503    0 -0.15710374325E+02 -0.50566836388E+02  0.86521406626E+02  0.10154735156E+03  0.47000000000E+01 0. -1.
         -5    1    5    5    0  503  0.42624055986E+02  0.53204490304E+02  0.12694818071E+03  0.14417162871E+03  0.47000000000E+01 0. -1.
<mgrwt>
<rscale>  0 0.27306101E+03</rscale>
<asrwt>0</asrwt>
<pdfrwt beam="1">  1        2 0.12267976E+00 0.27306101E+03</pdfrwt>
<pdfrwt beam="2">  1       -2 0.35963317E-02 0.27306101E+03</pdfrwt>
<totfact> 0.11451394E+04</totfact>
</mgrwt>
</event>
<event>
 9    1  0.7997082E-001  0.2738527E+03  0.7818608E-02  0.1099095E+00
         -1   -1    0    0    0  501 -0.00000000000E+00  0.00000000000E+00  0.66866512193E+02  0.66866512193E+02  0.00000000000E+00 0.  1.
          1   -1    0    0  501    0  0.00000000000E+00 -0.00000000000E+00 -0.28039190124E+03  0.28039190124E+03  0.00000000000E+00 0.  1.
         35    2    1    2    0    0 -0.71054273576E-14  0.00000000000E+00 -0.21352538905E+03  0.34725841343E+03  0.27385272307E+03 0.  0.
         25    2    3    3    0    0 -0.28399669589E+02 -0.32242456286E+02 -0.58465299853E+02  0.14481977668E+03  0.12533339224E+03 0.  0.
         25    2    3    3    0    0  0.28399669589E+02  0.32242456286E+02 -0.15506008919E+03  0.20243863675E+03  0.12284808980E+03 0.  0.
          5    1    4    4  502    0 -0.65698331917E+02  0.18523500971E+02 -0.21954067006E+02  0.71857233199E+02  0.47000000000E+01 0. -1.
         -5    1    4    4    0  502  0.37298662327E+02 -0.50765957257E+02 -0.36511232847E+02  0.72962543484E+02  0.47000000000E+01 0. -1.
          5    1    5    5  503    0 -0.38384110451E+02  0.13319843819E+02 -0.10836638488E+02  0.42311711242E+02  0.47000000000E+01 0.  1.
         -5    1    5    5    0  503  0.66783780040E+02  0.18922612467E+02 -0.14422345071E+03  0.16012692551E+03  0.47000000000E+01 0.  1.
<mgrwt>
<rscale>  0 0.27385272E+03</rscale>
<asrwt>0</asrwt>
<pdfrwt beam="1">  1        1 0.43137215E-01 0.27385272E+03</pdfrwt>
<pdfrwt beam="2">  1       -1 0.10287156E-01 0.27385272E+03</pdfrwt>
<totfact> 0.55295823E+03</totfact>
</mgrwt>
</event>
<event>
 9    1  0.7997082E-001  0.2754236E+03  0.7818608E-02  0.1098215E+00
         -2   -1    0    0    0  501 -0.00000000000E+00  0.00000000000E+00  0.32069876775E+03  0.32069876775E+03  0.00000000000E+00 0.  1.
          2   -1    0    0  501    0  0.00000000000E+00 -0.00000000000E+00 -0.59135055682E+02  0.59135055682E+02  0.00000000000E+00 0.  1.
         35    2    1    2    0    0  0.14210854715E-13  0.00000000000E+00  0.26156371206E+03  0.37983382343E+03  0.27542359730E+03 0.  0.
         25    2    3    3    0    0  0.37860000868E+02 -0.33292737789E+02  0.17714770539E+03  0.22107691083E+03  0.12227798216E+03 0.  0.
         25    2    3    3    0    0 -0.37860000868E+02  0.33292737789E+02  0.84416006674E+02  0.15875691260E+03  0.12464312681E+03 0.  0.
          5    1    4    4  502    0 -0.26516056606E+02  0.22932670215E+02  0.99148104975E+02  0.10526844419E+03  0.47000000000E+01 0.  1.
         -5    1    4    4    0  502  0.64376057474E+02 -0.56225408004E+02  0.77999600414E+02  0.11580846664E+03  0.47000000000E+01 0.  1.
          5    1    5    5  503    0  0.16850462320E+02  0.30656204988E+02 -0.20133355022E+02  0.40634750757E+02  0.47000000000E+01 0.  1.
         -5    1    5    5    0  503 -0.54710463188E+02  0.26365328018E+01  0.10454936170E+03  0.11812216184E+03  0.47000000000E+01 0.  1.
<mgrwt>
<rscale>  0 0.27542360E+03</rscale>
<asrwt>0</asrwt>
<pdfrwt beam="1">  1        2 0.90977011E-02 0.27542360E+03</pdfrwt>
<pdfrwt beam="2">  1       -2 0.49338271E-01 0.27542360E+03</pdfrwt>
<totfact> 0.28378492E+03</totfact>
</mgrwt>
</event>
<event>
 9    1  0.7997082E-001  0.2685013E+03  0.7818608E-02  0.1102140E+00
         -2   -1    0    0    0  501 -0.00000000000E+00  0.00000000000E+00  0.37890379863E+03  0.37890379863E+03  0.00000000000E+00 0. -1.
          2   -1    0    0  501    0  0.00000000000E+00 -0.00000000000E+00 -0.47566788594E+02  0.47566788594E+02  0.00000000000E+00 0. -1.
         35    2    1    2    0    0  0.71054273576E-14  0.00000000000E+00  0.33133701004E+03  0.42647058723E+03  0.26850129897E+03 0.  0.
         25    2    3    3    0    0  0.16888504343E+02  0.22348408441E+01  0.14057345761E+03  0.19773433541E+03  0.13801360195E+03 0.  0.
         25    2    3    3    0    0 -0.16888504343E+02 -0.22348408441E+01  0.19076355243E+03  0.22873625182E+03  0.12505728235E+03 0.  0.
          5    1    4    4  502    0  0.30646620944E+02 -0.63734002115E+02  0.81383668920E+02  0.10791955322E+03  0.47000000000E+01 0.  1.
         -5    1    4    4    0  502 -0.13758116601E+02  0.65968842959E+02  0.59189788694E+02  0.89814782188E+02  0.47000000000E+01 0.  1.
          5    1    5    5  503    0 -0.27316361275E+02  0.44528257323E+02  0.16701174600E+03  0.17505417046E+03  0.47000000000E+01 0. -1.
         -5    1    5    5    0  503  0.10427856932E+02 -0.46763098167E+02  0.23751806427E+02  0.53682081358E+02  0.47000000000E+01 0. -1.
<mgrwt>
<rscale>  0 0.26850130E+03</rscale>
<asrwt>0</asrwt>
<pdfrwt beam="1">  1        2 0.73179677E-02 0.26850130E+03</pdfrwt>
<pdfrwt beam="2">  1       -2 0.58292890E-01 0.26850130E+03</pdfrwt>
<totfact> 0.26667911E+03</totfact>
</mgrwt>
</event>
<event>
 9    1  0.7997082E-001  0.2686671E+03  0.7818608E-02  0.1102045E+00
         -2   -1    0    0    0  501 -0.00000000000E+00  0.00000000000E+00  0.33609288588E+02  0.33609288588E+02  0.00000000000E+00 0. -1.
          2   -1    0    0  501    0  0.00000000000E+00 -0.00000000000E+00 -0.53692026549E+03  0.53692026549E+03  0.00000000000E+00 0. -1.
         35    2    1    2    0    0  0.71054273576E-14 -0.71054273576E-14 -0.50331097691E+03  0.57052955408E+03  0.26866714091E+03 0.  0.
         25    2    3    3    0    0 -0.38736939484E+02 -0.25266756126E+02 -0.28703698340E+03  0.31650368920E+03  0.12508155735E+03 0.  0.
         25    2    3    3    0    0  0.38736939484E+02  0.25266756126E+02 -0.21627399350E+03  0.25402586488E+03  0.12496295579E+03 0.  0.
          5    1    4    4  502    0 -0.47095719515E+02 -0.71658939071E+02 -0.19098332489E+03  0.20940327297E+03  0.47000000000E+01 0.  1.
         -5    1    4    4    0  502  0.83587800309E+01  0.46392182945E+02 -0.96053658513E+02  0.10710041623E+03  0.47000000000E+01 0.  1.
          5    1    5    5  503    0  0.77956915463E+02 -0.11837476332E+02 -0.13205740568E+03  0.15387870194E+03  0.47000000000E+01 0. -1.
         -5    1    5    5    0  503 -0.39219975979E+02  0.37104232458E+02 -0.84216587819E+02  0.10014716294E+03  0.47000000000E+01 0. -1.
<mgrwt>
<rscale>  0 0.26866714E+03</rscale>
<asrwt>0</asrwt>
<pdfrwt beam="1">  1        2 0.82603121E-01 0.26866714E+03</pdfrwt>
<pdfrwt beam="2">  1       -2 0.51706595E-02 0.26866714E+03</pdfrwt>
<totfact> 0.10605066E+04</totfact>
</mgrwt>
</event>
<event>
 9    1  0.7997082E-001  0.2641849E+03  0.7818608E-02  0.1104655E+00
          2   -1    0    0  501    0  0.00000000000E+00  0.00000000000E+00  0.84457702761E+03  0.84457702761E+03  0.00000000000E+00 0. -1.
         -2   -1    0    0    0  501 -0.00000000000E+00 -0.00000000000E+00 -0.20659345836E+02  0.20659345836E+02  0.00000000000E+00 0. -1.
         35    2    1    2    0    0  0.00000000000E+00  0.00000000000E+00  0.82391768177E+03  0.86523637344E+03  0.26418485118E+03 0.  0.
         25    2    3    3    0    0 -0.24920288206E+02 -0.27040892887E+02  0.47491492671E+03  0.49285455356E+03  0.12652743853E+03 0.  0.
         25    2    3    3    0    0  0.24920288206E+02  0.27040892887E+02  0.34900275507E+03  0.37238181989E+03  0.12455145959E+03 0.  0.
          5    1    4    4  502    0  0.24363804313E+02 -0.51930522062E+02  0.11393708372E+03  0.12764843567E+03  0.47000000000E+01 0. -1.
         -5    1    4    4    0  502 -0.49284092519E+02  0.24889629175E+02  0.36097784299E+03  0.36520611789E+03  0.47000000000E+01 0. -1.
          5    1    5    5  503    0  0.41359131259E+02  0.58761266243E+02  0.31397814394E+03  0.32213014299E+03  0.47000000000E+01 0. -1.
         -5    1    5    5    0  503 -0.16438843052E+02 -0.31720373355E+02  0.35024611125E+02  0.50251676899E+02  0.47000000000E+01 0. -1.
<mgrwt>
<rscale>  0 0.26418485E+03</rscale>
<asrwt>0</asrwt>
<pdfrwt beam="1">  1        2 0.12993490E+00 0.26418485E+03</pdfrwt>
<pdfrwt beam="2">  1       -2 0.31783615E-02 0.26418485E+03</pdfrwt>
<totfact> 0.12776579E+04</totfact>
</mgrwt>
</event>
<event>
 9    1  0.7997082E-001  0.2738921E+03  0.7818608E-02  0.1099073E+00
          1   -1    0    0  501    0  0.00000000000E+00  0.00000000000E+00  0.67696041149E+03  0.67696041149E+03  0.00000000000E+00 0.  1.
         -1   -1    0    0    0  501 -0.00000000000E+00 -0.00000000000E+00 -0.27703562752E+02  0.27703562752E+02  0.00000000000E+00 0.  1.
         35    2    1    2    0    0  0.00000000000E+00  0.00000000000E+00  0.64925684874E+03  0.70466397424E+03  0.27389206078E+03 0.  0.
         25    2    3    3    0    0  0.10396441324E+02 -0.51509472651E+02  0.37245156515E+03  0.39638011401E+03  0.12504285119E+03 0.  0.
         25    2    3    3    0    0 -0.10396441324E+02  0.51509472651E+02  0.27680528359E+03  0.30828386024E+03  0.12512578348E+03 0.  0.
          5    1    4    4  502    0  0.21070284190E+02 -0.71453102190E+02  0.11012415218E+03  0.13303729395E+03  0.47000000000E+01 0.  1.
         -5    1    4    4    0  502 -0.10673842867E+02  0.19943629539E+02  0.26232741297E+03  0.26334282006E+03  0.47000000000E+01 0.  1.
          5    1    5    5  503    0  0.41635460424E+02  0.60326065946E+02  0.21322813416E+03  0.22552399649E+03  0.47000000000E+01 0.  1.
         -5    1    5    5    0  503 -0.52031901747E+02 -0.88165932948E+01  0.63577149435E+02  0.82759863744E+02  0.47000000000E+01 0.  1.
<mgrwt>
<rscale>  0 0.27389206E+03</rscale>
<asrwt>0</asrwt>
<pdfrwt beam="1">  1        1 0.10414774E+00 0.27389206E+03</pdfrwt>
<pdfrwt beam="2">  1       -1 0.42620871E-02 0.27389206E+03</pdfrwt>
<totfact> 0.66009986E+03</totfact>
</mgrwt>
</event>
<event>
 9    1  0.7997082E-001  0.2746106E+03  0.7818608E-02  0.1098669E+00
         -1   -1    0    0    0  501 -0.00000000000E+00  0.00000000000E+00  0.98811450413E+01  0.98811450413E+01  0.00000000000E+00 0. -1.
          1   -1    0    0  501    0  0.00000000000E+00 -0.00000000000E+00 -0.19079517225E+04  0.19079517225E+04  0.00000000000E+00 0. -1.
         35    2    1    2    0    0 -0.17763568394E-14 -0.35527136788E-14 -0.18980705775E+04  0.19178328676E+04  0.27461061671E+03 0.  0.
         25    2    3    3    0    0  0.68419839809E+01 -0.11037108998E+02 -0.56522013751E+03  0.57908750798E+03  0.12529927184E+03 0.  0.
         25    2    3    3    0    0 -0.68419839809E+01  0.11037108998E+02 -0.13328504400E+04  0.13387453596E+04  0.12482071933E+03 0.  0.
          5    1    4    4  502    0  0.59813683164E+02 -0.23335414597E+02 -0.39831584305E+03  0.40348459586E+03  0.47000000000E+01 0. -1.
         -5    1    4    4    0  502 -0.52971699184E+02  0.12298305599E+02 -0.16690429446E+03  0.17560291212E+03  0.47000000000E+01 0. -1.
          5    1    5    5  503    0 -0.14029908405E+01 -0.52361318446E+02 -0.36195461783E+03  0.36575526164E+03  0.47000000000E+01 0.  1.
         -5    1    5    5    0  503 -0.54389931405E+01  0.63398427444E+02 -0.97089582215E+03  0.97299009796E+03  0.47000000000E+01 0.  1.
<mgrwt>
<rscale>  0 0.27461062E+03</rscale>
<asrwt>0</asrwt>
<pdfrwt beam="1">  1        1 0.29353105E+00 0.27461062E+03</pdfrwt>
<pdfrwt beam="2">  1       -1 0.15201761E-02 0.27461062E+03</pdfrwt>
<totfact> 0.39629969E+03</totfact>
</mgrwt>
</event>
<event>
 9    1  0.7997082E-001  0.2744756E+03  0.7818608E-02  0.1098745E+00
         -1   -1    0    0    0  501 -0.00000000000E+00  0.00000000000E+00  0.80112101179E+01  0.80112101179E+01  0.00000000000E+00 0. -1.
          1   -1    0    0  501    0  0.00000000000E+00 -0.00000000000E+00 -0.23509826955E+04  0.23509826955E+04  0.00000000000E+00 0. -1.
         35    2    1    2    0    0 -0.14210854715E-13  0.00000000000E+00 -0.23429714854E+04  0.23589939056E+04  0.27447561901E+03 0.  0.
         25    2    3    3    0    0  0.46253102136E+02 -0.25673630098E+02 -0.13050604155E+04  0.13121266832E+04  0.12528072483E+03 0.  0.
         25    2    3    3    0    0 -0.46253102136E+02  0.25673630098E+02 -0.10379110699E+04  0.10468672224E+04  0.12598852160E+03 0.  0.
          5    1    4    4  502    0 -0.34419860124E+01 -0.11912507973E+02 -0.11167083064E+04  0.11167870374E+04  0.47000000000E+01 0.  1.
         -5    1    4    4    0  502  0.49695088149E+02 -0.13761122125E+02 -0.18835210902E+03  0.19533964585E+03  0.47000000000E+01 0.  1.
          5    1    5    5  503    0 -0.41619064721E+02  0.75234383872E+02 -0.61077700940E+03  0.61681683203E+03  0.47000000000E+01 0. -1.
         -5    1    5    5    0  503 -0.46340374153E+01 -0.49560753775E+02 -0.42713406052E+03  0.43005039039E+03  0.47000000000E+01 0. -1.
<mgrwt>
<rscale>  0 0.27447562E+03</rscale>
<asrwt>0</asrwt>
<pdfrwt beam="1">  1        1 0.36168975E+00 0.27447562E+03</pdfrwt>
<pdfrwt beam="2">  1       -1 0.12324935E-02 0.27447562E+03</pdfrwt>
<totfact> 0.27641858E+03</totfact>
</mgrwt>
</event>
<event>
 9    1  0.7997082E-001  0.2748639E+03  0.7818608E-02  0.1098528E+00
          2   -1    0    0  501    0  0.00000000000E+00  0.00000000000E+00  0.34011060225E+03  0.34011060225E+03  0.00000000000E+00 0.  1.
         -2   -1    0    0    0  501 -0.00000000000E+00 -0.00000000000E+00 -0.55533521739E+02  0.55533521739E+02  0.00000000000E+00 0.  1.
         35    2    1    2    0    0  0.00000000000E+00 -0.14210854715E-13  0.28457708051E+03  0.39564412399E+03  0.27486389013E+03 0.  0.
         25    2    3    3    0    0 -0.33777863974E+02  0.37462290223E+02  0.90333464087E+02  0.15920929700E+03  0.12100867007E+03 0.  0.
         25    2    3    3    0    0  0.33777863974E+02 -0.37462290223E+02  0.19424361643E+03  0.23643482699E+03  0.12500591030E+03 0.  0.
          5    1    4    4  502    0 -0.15868617413E+02  0.42360234199E+01 -0.29166707389E+02  0.33801534476E+02  0.47000000000E+01 0.  1.
         -5    1    4    4    0  502 -0.17909246561E+02  0.33226266804E+02  0.11950017148E+03  0.12540776252E+03  0.47000000000E+01 0.  1.
          5    1    5    5  503    0  0.38549056995E+02  0.11218538963E+02  0.47818685820E+01  0.40704320149E+02  0.47000000000E+01 0. -1.
         -5    1    5    5    0  503 -0.47711930204E+01 -0.48680829187E+02  0.18946174785E+03  0.19573050685E+03  0.47000000000E+01 0. -1.
<mgrwt>
<rscale>  0 0.27486389E+03</rscale>
<asrwt>0</asrwt>
<pdfrwt beam="1">  1        2 0.52324707E-01 0.27486389E+03</pdfrwt>
<pdfrwt beam="2">  1       -2 0.85436189E-02 0.27486389E+03</pdfrwt>
<totfact> 0.80696989E+03</totfact>
</mgrwt>
</event>
<event>
 9    1  0.7997082E-001  0.2734815E+03  0.7818608E-02  0.1099303E+00
          2   -1    0    0  501    0  0.00000000000E+00  0.00000000000E+00  0.29687481338E+03  0.29687481338E+03  0.00000000000E+00 0.  1.
         -2   -1    0    0    0  501 -0.00000000000E+00 -0.00000000000E+00 -0.62982877832E+02  0.62982877832E+02  0.00000000000E+00 0.  1.
         35    2    1    2    0    0 -0.71054273576E-14 -0.71054273576E-14  0.23389193555E+03  0.35985769121E+03  0.27348148093E+03 0.  0.
         25    2    3    3    0    0 -0.78466958495E+01 -0.45961372931E+02  0.88152250246E+02  0.16068575287E+03  0.12599632342E+03 0.  0.
         25    2    3    3    0    0  0.78466958495E+01  0.45961372931E+02  0.14573968530E+03  0.19917193834E+03  0.12749661452E+03 0.  0.
          5    1    4    4  502    0 -0.41235493687E+02 -0.13311579332E+02 -0.16013927335E+02  0.46433823368E+02  0.47000000000E+01 0. -1.
         -5    1    4    4    0  502  0.33388797838E+02 -0.32649793599E+02  0.10416617758E+03  0.11425192950E+03  0.47000000000E+01 0. -1.
          5    1    5    5  503    0  0.57738680216E+02  0.50074610716E+02  0.12085223675E+03  0.14306842754E+03  0.47000000000E+01 0. -1.
         -5    1    5    5    0  503 -0.49891984366E+02 -0.41132377846E+01  0.24887448557E+02  0.56103510806E+02  0.47000000000E+01 0. -1.
<mgrwt>
<rscale>  0 0.27348148E+03</rscale>
<asrwt>0</asrwt>
<pdfrwt beam="1">  1        2 0.45673047E-01 0.27348148E+03</pdfrwt>
<pdfrwt beam="2">  1       -2 0.96896737E-02 0.27348148E+03</pdfrwt>
<totfact> 0.76575437E+03</totfact>
</mgrwt>
</event>
<event>
 9    1  0.7997082E-001  0.2751810E+03  0.7818608E-02  0.1098350E+00
         -2   -1    0    0    0  501 -0.00000000000E+00  0.00000000000E+00  0.22264733440E+02  0.22264733440E+02  0.00000000000E+00 0. -1.
          2   -1    0    0  501    0  0.00000000000E+00 -0.00000000000E+00 -0.85027527891E+03  0.85027527891E+03  0.00000000000E+00 0. -1.
         35    2    1    2    0    0 -0.71054273576E-14  0.00000000000E+00 -0.82801054548E+03  0.87254001235E+03  0.27518104902E+03 0.  0.
         25    2    3    3    0    0  0.27984227639E+02  0.38640955093E+02 -0.54065129045E+03  0.55695592378E+03  0.12497936938E+03 0.  0.
         25    2    3    3    0    0 -0.27984227639E+02 -0.38640955093E+02 -0.28735925503E+03  0.31558408857E+03  0.12141554720E+03 0.  0.
          5    1    4    4  502    0 -0.41522741649E+02  0.43482680263E+02 -0.18728439236E+03  0.19675470815E+03  0.47000000000E+01 0. -1.
         -5    1    4    4    0  502  0.69506969288E+02 -0.48417251700E+01 -0.35336689809E+03  0.36020121564E+03  0.47000000000E+01 0. -1.
          5    1    5    5  503    0 -0.36101302713E+02  0.26564062235E+02 -0.42242878007E+02  0.61769767704E+02  0.47000000000E+01 0. -1.
         -5    1    5    5    0  503  0.81170750732E+01 -0.65205017328E+02 -0.24511637702E+03  0.25381432087E+03  0.47000000000E+01 0. -1.
<mgrwt>
<rscale>  0 0.27518105E+03</rscale>
<asrwt>0</asrwt>
<pdfrwt beam="1">  1        2 0.13081157E+00 0.27518105E+03</pdfrwt>
<pdfrwt beam="2">  1       -2 0.34253438E-02 0.27518105E+03</pdfrwt>
<totfact> 0.11343262E+04</totfact>
</mgrwt>
</event>
<event>
 9    1  0.7997082E-001  0.2729968E+03  0.7818608E-02  0.1099577E+00
          2   -1    0    0  501    0  0.00000000000E+00  0.00000000000E+00  0.91839990456E+03  0.91839990456E+03  0.00000000000E+00 0. -1.
         -2   -1    0    0    0  501 -0.00000000000E+00 -0.00000000000E+00 -0.20287256329E+02  0.20287256329E+02  0.00000000000E+00 0. -1.
         35    2    1    2    0    0 -0.71054273576E-14  0.00000000000E+00  0.89811264823E+03  0.93868716089E+03  0.27299680787E+03 0.  0.
         25    2    3    3    0    0 -0.29309054609E+01 -0.53739827014E+02  0.47776669687E+03  0.49684194057E+03  0.12527704519E+03 0.  0.
         25    2    3    3    0    0  0.29309054609E+01  0.53739827014E+02  0.42034595136E+03  0.44184522032E+03  0.12505966849E+03 0.  0.
          5    1    4    4  502    0  0.54691230742E+02 -0.50719547056E+02  0.21041090516E+03  0.22329004049E+03  0.47000000000E+01 0. -1.
         -5    1    4    4    0  502 -0.57622136203E+02 -0.30202799575E+01  0.26735579172E+03  0.27355190008E+03  0.47000000000E+01 0. -1.
          5    1    5    5  503    0  0.34733870829E+02  0.79248988431E+02  0.20400394005E+03  0.22164508004E+03  0.47000000000E+01 0. -1.
         -5    1    5    5    0  503 -0.31802965368E+02 -0.25509161417E+02  0.21634201131E+03  0.22020014028E+03  0.47000000000E+01 0. -1.
<mgrwt>
<rscale>  0 0.27299681E+03</rscale>
<asrwt>0</asrwt>
<pdfrwt beam="1">  1        2 0.14129226E+00 0.27299681E+03</pdfrwt>
<pdfrwt beam="2">  1       -2 0.31211171E-02 0.27299681E+03</pdfrwt>
<totfact> 0.11761783E+04</totfact>
</mgrwt>
</event>
<event>
 9    1  0.7997082E-001  0.2737049E+03  0.7818608E-02  0.1099178E+00
         -2   -1    0    0    0  501 -0.00000000000E+00  0.00000000000E+00  0.34297312842E+02  0.34297312842E+02  0.00000000000E+00 0.  1.
          2   -1    0    0  501    0  0.00000000000E+00 -0.00000000000E+00 -0.54606570621E+03  0.54606570621E+03  0.00000000000E+00 0.  1.
         35    2    1    2    0    0  0.17763568394E-14  0.00000000000E+00 -0.51176839337E+03  0.58036301905E+03  0.27370485095E+03 0.  0.
         25    2    3    3    0    0  0.11019771196E+02 -0.48164045903E+02 -0.18204952460E+03  0.22432008212E+03  0.12139299469E+03 0.  0.
         25    2    3    3    0    0 -0.11019771196E+02  0.48164045903E+02 -0.32971886877E+03  0.35604293693E+03  0.12494330652E+03 0.  0.
          5    1    4    4  502    0 -0.16149579131E+02  0.18789022286E+02 -0.13642555693E+03  0.13873665286E+03  0.47000000000E+01 0.  1.
         -5    1    4    4    0  502  0.27169350327E+02 -0.66953068189E+02 -0.45623967671E+02  0.85583429256E+02  0.47000000000E+01 0.  1.
          5    1    5    5  503    0 -0.25467207039E+02  0.87849784164E+02 -0.21435646475E+03  0.23310286826E+03  0.47000000000E+01 0.  1.
         -5    1    5    5    0  503  0.14447435843E+02 -0.39685738261E+02 -0.11536240402E+03  0.12294006868E+03  0.47000000000E+01 0.  1.
<mgrwt>
<rscale>  0 0.27370485E+03</rscale>
<asrwt>0</asrwt>
<pdfrwt beam="1">  1        2 0.84010108E-01 0.27370485E+03</pdfrwt>
<pdfrwt beam="2">  1       -2 0.52765097E-02 0.27370485E+03</pdfrwt>
<totfact> 0.10095100E+04</totfact>
</mgrwt>
</event>
<event>
 9    1  0.7997082E-001  0.2871718E+03  0.7818608E-02  0.1091835E+00
         -1   -1    0    0    0  501 -0.00000000000E+00  0.00000000000E+00  0.45650276169E+02  0.45650276169E+02  0.00000000000E+00 0. -1.
          1   -1    0    0  501    0  0.00000000000E+00 -0.00000000000E+00 -0.45162718661E+03  0.45162718661E+03  0.00000000000E+00 0. -1.
         35    2    1    2    0    0  0.71054273576E-14  0.17763568394E-14 -0.40597691044E+03  0.49727746278E+03  0.28717176598E+03 0.  0.
         25    2    3    3    0    0 -0.57908740900E+02 -0.74889101005E+01 -0.27134104562E+03  0.30421634067E+03  0.12454763283E+03 0.  0.
         25    2    3    3    0    0  0.57908740900E+02  0.74889101005E+01 -0.13463586482E+03  0.19306112211E+03  0.12544430927E+03 0.  0.
          5    1    4    4  502    0 -0.16841055124E+02 -0.15056489413E+02 -0.25954597899E+03  0.26056961492E+03  0.47000000000E+01 0.  1.
         -5    1    4    4    0  502 -0.41067685776E+02  0.75675793124E+01 -0.11795066635E+02  0.43646725749E+02  0.47000000000E+01 0.  1.
          5    1    5    5  503    0  0.16014483032E+02  0.18571835851E+02  0.20256194486E+02  0.32152451986E+02  0.47000000000E+01 0.  1.
         -5    1    5    5    0  503  0.41894257868E+02 -0.11082925751E+02 -0.15489205931E+03  0.16090867013E+03  0.47000000000E+01 0.  1.
<mgrwt>
<rscale>  0 0.28717177E+03</rscale>
<asrwt>0</asrwt>
<pdfrwt beam="1">  1        1 0.69481102E-01 0.28717177E+03</pdfrwt>
<pdfrwt beam="2">  1       -1 0.70231198E-02 0.28717177E+03</pdfrwt>
<totfact> 0.54174560E+03</totfact>
</mgrwt>
</event>
<event>
 9    1  0.7997082E-001  0.2730698E+03  0.7818608E-02  0.1099535E+00
         -2   -1    0    0    0  501 -0.00000000000E+00  0.00000000000E+00  0.36772532280E+02  0.36772532280E+02  0.00000000000E+00 0.  1.
          2   -1    0    0  501    0  0.00000000000E+00 -0.00000000000E+00 -0.50694860095E+03  0.50694860095E+03  0.00000000000E+00 0.  1.
         35    2    1    2    0    0  0.71054273576E-14  0.00000000000E+00 -0.47017606867E+03  0.54372113323E+03  0.27306983570E+03 0.  0.
         25    2    3    3    0    0  0.37598011103E+02  0.41411111375E+02 -0.24906015377E+03  0.28384340130E+03  0.12412745740E+03 0.  0.
         25    2    3    3    0    0 -0.37598011103E+02 -0.41411111375E+02 -0.22111591489E+03  0.25987773192E+03  0.12456202128E+03 0.  0.
          5    1    4    4  502    0  0.56085227224E+02 -0.24288366562E+02 -0.16139079748E+03  0.17263996343E+03  0.47000000000E+01 0.  1.
         -5    1    4    4    0  502 -0.18487216121E+02  0.65699477937E+02 -0.87669356295E+02  0.11120343787E+03  0.47000000000E+01 0.  1.
          5    1    5    5  503    0 -0.15747954920E+02  0.44670888414E+02 -0.78555865365E+02  0.91850968090E+02  0.47000000000E+01 0.  1.
         -5    1    5    5    0  503 -0.21850056184E+02 -0.86081999789E+02 -0.14256004953E+03  0.16802676384E+03  0.47000000000E+01 0.  1.
<mgrwt>
<rscale>  0 0.27306984E+03</rscale>
<asrwt>0</asrwt>
<pdfrwt beam="1">  1        2 0.77992089E-01 0.27306984E+03</pdfrwt>
<pdfrwt beam="2">  1       -2 0.56573129E-02 0.27306984E+03</pdfrwt>
<totfact> 0.98701885E+03</totfact>
</mgrwt>
</event>
<event>
 9    1  0.7997082E-001  0.2796284E+03  0.7818608E-02  0.1095892E+00
         -2   -1    0    0    0  501 -0.00000000000E+00  0.00000000000E+00  0.23516732872E+02  0.23516732872E+02  0.00000000000E+00 0. -1.
          2   -1    0    0  501    0  0.00000000000E+00 -0.00000000000E+00 -0.83123845208E+03  0.83123845208E+03  0.00000000000E+00 0. -1.
         35    2    1    2    0    0 -0.35527136788E-14  0.35527136788E-14 -0.80772171921E+03  0.85475518495E+03  0.27962841508E+03 0.  0.
         25    2    3    3    0    0 -0.28322720462E+01 -0.27674687775E+02 -0.57324059490E+03  0.58739138978E+03  0.12509978030E+03 0.  0.
         25    2    3    3    0    0  0.28322720462E+01  0.27674687775E+02 -0.23448112431E+03  0.26736379518E+03  0.12541168688E+03 0.  0.
          5    1    4    4  502    0  0.28406572918E+02 -0.13266144617E+02 -0.32022063218E+02  0.45060254223E+02  0.47000000000E+01 0.  1.
         -5    1    4    4    0  502 -0.31238844965E+02 -0.14408543159E+02 -0.54121853169E+03  0.54233113555E+03  0.47000000000E+01 0.  1.
          5    1    5    5  503    0 -0.41613332446E+02  0.48921399851E+02 -0.67873636726E+02  0.93562243256E+02  0.47000000000E+01 0. -1.
         -5    1    5    5    0  503  0.44445604492E+02 -0.21246712075E+02 -0.16660748758E+03  0.17380155192E+03  0.47000000000E+01 0. -1.
<mgrwt>
<rscale>  0 0.27962842E+03</rscale>
<asrwt>0</asrwt>
<pdfrwt beam="1">  1        2 0.12788282E+00 0.27962842E+03</pdfrwt>
<pdfrwt beam="2">  1       -2 0.36179595E-02 0.27962842E+03</pdfrwt>
<totfact> 0.10769189E+04</totfact>
</mgrwt>
</event>
<event>
 9    1  0.7997082E-001  0.2743979E+03  0.7818608E-02  0.1098789E+00
          2   -1    0    0  501    0  0.00000000000E+00  0.00000000000E+00  0.34614179481E+03  0.34614179481E+03  0.00000000000E+00 0.  1.
         -2   -1    0    0    0  501 -0.00000000000E+00 -0.00000000000E+00 -0.54381037217E+02  0.54381037217E+02  0.00000000000E+00 0.  1.
         35    2    1    2    0    0  0.00000000000E+00  0.00000000000E+00  0.29176075759E+03  0.40052283202E+03  0.27439788502E+03 0.  0.
         25    2    3    3    0    0 -0.25377140704E+01  0.23330408603E+02  0.20970881373E+03  0.25046723695E+03  0.13492702573E+03 0.  0.
         25    2    3    3    0    0  0.25377140704E+01 -0.23330408603E+02  0.82051943863E+02  0.15005559507E+03  0.12342370989E+03 0.  0.
          5    1    4    4  502    0 -0.48424769327E+02  0.10805302602E+02  0.19377894560E+03  0.20008518837E+03  0.47000000000E+01 0. -1.
         -5    1    4    4    0  502  0.45887055256E+02  0.12525106001E+02  0.15929868127E+02  0.50382048578E+02  0.47000000000E+01 0. -1.
          5    1    5    5  503    0 -0.21389147008E+02  0.14568294567E+02  0.98600007824E+02  0.10204794147E+03  0.47000000000E+01 0.  1.
         -5    1    5    5    0  503  0.23926861078E+02 -0.37898703170E+02 -0.16548063961E+02  0.48007653597E+02  0.47000000000E+01 0.  1.
<mgrwt>
<rscale>  0 0.27439789E+03</rscale>
<asrwt>0</asrwt>
<pdfrwt beam="1">  1        2 0.53252583E-01 0.27439789E+03</pdfrwt>
<pdfrwt beam="2">  1       -2 0.83663136E-02 0.27439789E+03</pdfrwt>
<totfact> 0.81823912E+03</totfact>
</mgrwt>
</event>
<event>
 9    1  0.7997082E-001  0.2748871E+03  0.7818608E-02  0.1098515E+00
         -2   -1    0    0    0  501 -0.00000000000E+00  0.00000000000E+00  0.87096047866E+01  0.87096047866E+01  0.00000000000E+00 0.  1.
          2   -1    0    0  501    0  0.00000000000E+00 -0.00000000000E+00 -0.21689529720E+04  0.21689529720E+04  0.00000000000E+00 0.  1.
         35    2    1    2    0    0 -0.71054273576E-14  0.00000000000E+00 -0.21602433672E+04  0.21776625768E+04  0.27488705453E+03 0.  0.
         25    2    3    3    0    0 -0.30648642972E+02 -0.38559786486E+01 -0.69296318388E+03  0.70480187743E+03  0.12487395378E+03 0.  0.
         25    2    3    3    0    0  0.30648642972E+02  0.38559786486E+01 -0.14672801833E+04  0.14728606994E+04  0.12431128432E+03 0.  0.
          5    1    4    4  502    0 -0.53153932018E+02  0.26189022901E+02 -0.61781457736E+03  0.62066750149E+03  0.47000000000E+01 0. -1.
         -5    1    4    4    0  502  0.22505289046E+02 -0.30045001550E+02 -0.75148606518E+02  0.84134375940E+02  0.47000000000E+01 0. -1.
          5    1    5    5  503    0 -0.17353745844E+02 -0.36032081963E+02 -0.19880131217E+03  0.20283864313E+03  0.47000000000E+01 0.  1.
         -5    1    5    5    0  503  0.48002388817E+02  0.39888060611E+02 -0.12684788712E+04  0.12700220562E+04  0.47000000000E+01 0.  1.
<mgrwt>
<rscale>  0 0.27488705E+03</rscale>
<asrwt>0</asrwt>
<pdfrwt beam="1">  1        2 0.33368468E+00 0.27488705E+03</pdfrwt>
<pdfrwt beam="2">  1       -2 0.13399408E-02 0.27488705E+03</pdfrwt>
<totfact> 0.84170287E+03</totfact>
</mgrwt>
</event>
<event>
 9    1  0.7997082E-001  0.2692708E+03  0.7818608E-02  0.1101698E+00
          2   -1    0    0  501    0  0.00000000000E+00  0.00000000000E+00  0.61363527762E+03  0.61363527762E+03  0.00000000000E+00 0. -1.
         -2   -1    0    0    0  501 -0.00000000000E+00 -0.00000000000E+00 -0.29539842856E+02  0.29539842856E+02  0.00000000000E+00 0. -1.
         35    2    1    2    0    0 -0.71054273576E-14  0.00000000000E+00  0.58409543476E+03  0.64317512047E+03  0.26927079063E+03 0.  0.
         25    2    3    3    0    0  0.35065647261E+02  0.35974270887E+02  0.31112238073E+03  0.33884072035E+03  0.12446746640E+03 0.  0.
         25    2    3    3    0    0 -0.35065647261E+02 -0.35974270887E+02  0.27297305403E+03  0.30433440013E+03  0.12482544247E+03 0.  0.
          5    1    4    4  502    0  0.11137564356E+02 -0.46210126066E+02  0.12875780414E+03  0.13733201818E+03  0.47000000000E+01 0.  1.
         -5    1    4    4    0  502  0.23928082905E+02  0.82184396954E+02  0.18236457658E+03  0.20150870216E+03  0.47000000000E+01 0.  1.
          5    1    5    5  503    0 -0.54689028491E+02  0.84115654070E+01  0.45781843074E+02  0.71970212068E+02  0.47000000000E+01 0. -1.
         -5    1    5    5    0  503  0.19623381229E+02 -0.44385836294E+02  0.22719121096E+03  0.23236418806E+03  0.47000000000E+01 0. -1.
<mgrwt>
<rscale>  0 0.26927079E+03</rscale>
<asrwt>0</asrwt>
<pdfrwt beam="1">  1        2 0.94405418E-01 0.26927079E+03</pdfrwt>
<pdfrwt beam="2">  1       -2 0.45445917E-02 0.26927079E+03</pdfrwt>
<totfact> 0.11064411E+04</totfact>
</mgrwt>
</event>
<event>
 9    1  0.7997082E-001  0.2795101E+03  0.7818608E-02  0.1095957E+00
         -2   -1    0    0    0  501 -0.00000000000E+00  0.00000000000E+00  0.49001302715E+03  0.49001302715E+03  0.00000000000E+00 0.  1.
          2   -1    0    0  501    0  0.00000000000E+00 -0.00000000000E+00 -0.39859101017E+02  0.39859101017E+02  0.00000000000E+00 0.  1.
         35    2    1    2    0    0  0.14210854715E-13  0.00000000000E+00  0.45015392614E+03  0.52987212817E+03  0.27951013398E+03 0.  0.
         25    2    3    3    0    0  0.66390081594E+02  0.15316969608E+02  0.25121095642E+03  0.28568694416E+03  0.11776176351E+03 0.  0.
         25    2    3    3    0    0 -0.66390081594E+02 -0.15316969608E+02  0.19894296972E+03  0.24418518402E+03  0.12412029004E+03 0.  0.
          5    1    4    4  502    0  0.10033327750E+03  0.15329270293E+02  0.18133844141E+03  0.20786407442E+03  0.47000000000E+01 0. -1.
         -5    1    4    4    0  502 -0.33943195911E+02 -0.12300684518E-01  0.69872515010E+02  0.77822869735E+02  0.47000000000E+01 0. -1.
          5    1    5    5  503    0 -0.56092114086E+02  0.46414557841E+02  0.14104735214E+03  0.15879887276E+03  0.47000000000E+01 0.  1.
         -5    1    5    5    0  503 -0.10297967508E+02 -0.61731527449E+02  0.57895617576E+02  0.85386311260E+02  0.47000000000E+01 0.  1.
<mgrwt>
<rscale>  0 0.27951013E+03</rscale>
<asrwt>0</asrwt>
<pdfrwt beam="1">  1        2 0.61321697E-02 0.27951013E+03</pdfrwt>
<pdfrwt beam="2">  1       -2 0.75386615E-01 0.27951013E+03</pdfrwt>
<totfact> 0.19467822E+03</totfact>
</mgrwt>
</event>
<event>
 9    1  0.7997082E-001  0.2783677E+03  0.7818608E-02  0.1096584E+00
          2   -1    0    0  501    0  0.00000000000E+00  0.00000000000E+00  0.24897294013E+04  0.24897294013E+04  0.00000000000E+00 0.  1.
         -2   -1    0    0    0  501 -0.00000000000E+00 -0.00000000000E+00 -0.77808213573E+01  0.77808213573E+01  0.00000000000E+00 0.  1.
         35    2    1    2    0    0  0.00000000000E+00 -0.35527136788E-14  0.24819485800E+04  0.24975102227E+04  0.27836766838E+03 0.  0.
         25    2    3    3    0    0  0.10350681304E+02 -0.26218872293E+02  0.74067901122E+03  0.75156384691E+03  0.12429099906E+03 0.  0.
         25    2    3    3    0    0 -0.10350681304E+02  0.26218872293E+02  0.17412695687E+04  0.17459463758E+04  0.12455709602E+03 0.  0.
          5    1    4    4  502    0  0.47251830321E+02  0.19084963157E+02  0.16122858662E+03  0.16915589978E+03  0.47000000000E+01 0.  1.
         -5    1    4    4    0  502 -0.36901149017E+02 -0.45303835451E+02  0.57945042460E+03  0.58240794713E+03  0.47000000000E+01 0.  1.
          5    1    5    5  503    0 -0.31505795535E+02 -0.29607539591E+02  0.12884943893E+04  0.12892281035E+04  0.47000000000E+01 0.  1.
         -5    1    5    5    0  503  0.21155114231E+02  0.55826411884E+02  0.45277517944E+03  0.45671827228E+03  0.47000000000E+01 0.  1.
<mgrwt>
<rscale>  0 0.27836767E+03</rscale>
<asrwt>0</asrwt>
<pdfrwt beam="1">  1        2 0.38303466E+00 0.27836767E+03</pdfrwt>
<pdfrwt beam="2">  1       -2 0.11970514E-02 0.27836767E+03</pdfrwt>
<totfact> 0.66662394E+03</totfact>
</mgrwt>
</event>
<event>
 9    1  0.7997082E-001  0.2792163E+03  0.7818608E-02  0.1096118E+00
          2   -1    0    0  501    0  0.00000000000E+00  0.00000000000E+00  0.19829354566E+04  0.19829354566E+04  0.00000000000E+00 0.  1.
         -2   -1    0    0    0  501 -0.00000000000E+00 -0.00000000000E+00 -0.98290810118E+01  0.98290810118E+01  0.00000000000E+00 0.  1.
         35    2    1    2    0    0  0.00000000000E+00 -0.14210854715E-13  0.19731063756E+04  0.19927645376E+04  0.27921628351E+03 0.  0.
         25    2    3    3    0    0  0.81582352797E+01  0.42368845570E+02  0.13057755704E+04  0.13125233754E+04  0.12572229310E+03 0.  0.
         25    2    3    3    0    0 -0.81582352797E+01 -0.42368845570E+02  0.66733080523E+03  0.68024116220E+03  0.12464332820E+03 0.  0.
          5    1    4    4  502    0  0.46869373345E+02  0.31282554442E+02  0.11552790948E+04  0.11566620999E+04  0.47000000000E+01 0. -1.
         -5    1    4    4    0  502 -0.38711138066E+02  0.11086291129E+02  0.15049647555E+03  0.15586127554E+03  0.47000000000E+01 0. -1.
          5    1    5    5  503    0  0.94377823283E+01  0.36990315634E+02  0.10080001938E+03  0.10788924456E+03  0.47000000000E+01 0. -1.
         -5    1    5    5    0  503 -0.17596017608E+02 -0.79359161205E+02  0.56653078585E+03  0.57235191764E+03  0.47000000000E+01 0. -1.
<mgrwt>
<rscale>  0 0.27921628E+03</rscale>
<asrwt>0</asrwt>
<pdfrwt beam="1">  1        2 0.30506667E+00 0.27921628E+03</pdfrwt>
<pdfrwt beam="2">  1       -2 0.15121679E-02 0.27921628E+03</pdfrwt>
<totfact> 0.88447291E+03</totfact>
</mgrwt>
</event>
<event>
 9    1  0.7997082E-001  0.2736795E+03  0.7818608E-02  0.1099192E+00
          2   -1    0    0  501    0  0.00000000000E+00  0.00000000000E+00  0.36879186126E+03  0.36879186126E+03  0.00000000000E+00 0. -1.
         -2   -1    0    0    0  501 -0.00000000000E+00 -0.00000000000E+00 -0.50774199880E+02  0.50774199880E+02  0.00000000000E+00 0. -1.
         35    2    1    2    0    0  0.71054273576E-14  0.71054273576E-14  0.31801766138E+03  0.41956606114E+03  0.27367945979E+03 0.  0.
         25    2    3    3    0    0 -0.62660974023E+01  0.36075544574E+02  0.21751282361E+03  0.25356275795E+03  0.12506612208E+03 0.  0.
         25    2    3    3    0    0  0.62660974023E+01 -0.36075544574E+02  0.10050483777E+03  0.16600330319E+03  0.12694552123E+03 0.  0.
          5    1    4    4  502    0 -0.17886605149E+02 -0.95663384884E+01 -0.86157444327E+01  0.22533675420E+02  0.47000000000E+01 0. -1.
         -5    1    4    4    0  502  0.11620507746E+02  0.45641883062E+02  0.22612856804E+03  0.23102908253E+03  0.47000000000E+01 0. -1.
          5    1    5    5  503    0 -0.58650564809E+02 -0.29285165870E+02  0.40386618808E+02  0.77140642150E+02  0.47000000000E+01 0.  1.
         -5    1    5    5    0  503  0.64916662212E+02 -0.67903787037E+01  0.60118218958E+02  0.88862661036E+02  0.47000000000E+01 0.  1.
<mgrwt>
<rscale>  0 0.27367946E+03</rscale>
<asrwt>0</asrwt>
<pdfrwt beam="1">  1        2 0.56737208E-01 0.27367946E+03</pdfrwt>
<pdfrwt beam="2">  1       -2 0.78114156E-02 0.27367946E+03</pdfrwt>
<totfact> 0.85052801E+03</totfact>
</mgrwt>
</event>
<event>
 9    1  0.7997082E-001  0.2753458E+03  0.7818608E-02  0.1098258E+00
          2   -1    0    0  501    0  0.00000000000E+00  0.00000000000E+00  0.91902733820E+03  0.91902733820E+03  0.00000000000E+00 0. -1.
         -2   -1    0    0    0  501 -0.00000000000E+00 -0.00000000000E+00 -0.20623784744E+02  0.20623784744E+02  0.00000000000E+00 0. -1.
         35    2    1    2    0    0  0.00000000000E+00 -0.35527136788E-14  0.89840355346E+03  0.93965112295E+03  0.27534576080E+03 0.  0.
         25    2    3    3    0    0 -0.26585202481E+02 -0.25654024725E+02  0.29589657135E+03  0.32317335697E+03  0.12458465292E+03 0.  0.
         25    2    3    3    0    0  0.26585202481E+02  0.25654024725E+02  0.60250698211E+03  0.61647776598E+03  0.12516097827E+03 0.  0.
          5    1    4    4  502    0  0.30232370426E+02  0.27547019801E+02  0.47671285980E+02  0.62987903827E+02  0.47000000000E+01 0.  1.
         -5    1    4    4    0  502 -0.56817572908E+02 -0.53201044526E+02  0.24822528537E+03  0.26018545314E+03  0.47000000000E+01 0.  1.
          5    1    5    5  503    0  0.38860156772E+02 -0.44312008893E+02  0.25711222313E+03  0.26382276475E+03  0.47000000000E+01 0.  1.
         -5    1    5    5    0  503 -0.12274954290E+02  0.69966033618E+02  0.34539475897E+03  0.35265500122E+03  0.47000000000E+01 0.  1.
<mgrwt>
<rscale>  0 0.27534576E+03</rscale>
<asrwt>0</asrwt>
<pdfrwt beam="1">  1        2 0.14138879E+00 0.27534576E+03</pdfrwt>
<pdfrwt beam="2">  1       -2 0.31728907E-02 0.27534576E+03</pdfrwt>
<totfact> 0.11469524E+04</totfact>
</mgrwt>
</event>
<event>
 9    1  0.7997082E-001  0.2758100E+03  0.7818608E-02  0.1098000E+00
         -2   -1    0    0    0  501 -0.00000000000E+00  0.00000000000E+00  0.83272789405E+02  0.83272789405E+02  0.00000000000E+00 0.  1.
          2   -1    0    0  501    0  0.00000000000E+00 -0.00000000000E+00 -0.22837935783E+03  0.22837935783E+03  0.00000000000E+00 0.  1.
         35    2    1    2    0    0 -0.71054273576E-14  0.00000000000E+00 -0.14510656842E+03  0.31165214723E+03  0.27580997929E+03 0.  0.
         25    2    3    3    0    0  0.55103002126E+02 -0.19556718386E+02 -0.77497478270E+02  0.15856777826E+03  0.12537573564E+03 0.  0.
         25    2    3    3    0    0 -0.55103002126E+02  0.19556718386E+02 -0.67609090153E+02  0.15308436898E+03  0.12427803055E+03 0.  0.
          5    1    4    4  502    0  0.85425145479E+02  0.40536039372E+01 -0.83230565797E+02  0.11942907631E+03  0.47000000000E+01 0. -1.
         -5    1    4    4    0  502 -0.30322143353E+02 -0.23610322323E+02  0.57330875270E+01  0.39138701950E+02  0.47000000000E+01 0. -1.
          5    1    5    5  503    0 -0.38544563867E+02  0.17553731308E+02  0.31170170802E+02  0.52796651734E+02  0.47000000000E+01 0. -1.
         -5    1    5    5    0  503 -0.16558438259E+02  0.20029870783E+01 -0.98779260955E+02  0.10028771724E+03  0.47000000000E+01 0. -1.
<mgrwt>
<rscale>  0 0.27580998E+03</rscale>
<asrwt>0</asrwt>
<pdfrwt beam="1">  1        2 0.35135286E-01 0.27580998E+03</pdfrwt>
<pdfrwt beam="2">  1       -2 0.12811198E-01 0.27580998E+03</pdfrwt>
<totfact> 0.64948703E+03</totfact>
</mgrwt>
</event>
<event>
 9    1  0.7997082E-001  0.2754977E+03  0.7818608E-02  0.1098174E+00
          4   -1    0    0  501    0  0.00000000000E+00  0.00000000000E+00  0.37489581264E+02  0.37489581264E+02  0.00000000000E+00 0. -1.
         -4   -1    0    0    0  501 -0.00000000000E+00 -0.00000000000E+00 -0.50613387787E+03  0.50613387787E+03  0.00000000000E+00 0. -1.
         35    2    1    2    0    0 -0.71054273576E-14  0.00000000000E+00 -0.46864429661E+03  0.54362345913E+03  0.27549771066E+03 0.  0.
         25    2    3    3    0    0 -0.35919040983E+02 -0.18674522044E+02 -0.16566712194E+03  0.20983131982E+03  0.12224840370E+03 0.  0.
         25    2    3    3    0    0  0.35919040983E+02  0.18674522044E+02 -0.30297717466E+03  0.33379213931E+03  0.13410111343E+03 0.  0.
          5    1    4    4  502    0 -0.55867194645E+02  0.12883837712E+02 -0.22446730076E+02  0.61750161156E+02  0.47000000000E+01 0.  1.
         -5    1    4    4    0  502  0.19948153662E+02 -0.31558359756E+02 -0.14322039187E+03  0.14808115867E+03  0.47000000000E+01 0.  1.
          5    1    5    5  503    0  0.65562752017E+02  0.23495619211E+00 -0.62345175181E+02  0.90595477397E+02  0.47000000000E+01 0. -1.
         -5    1    5    5    0  503 -0.29643711034E+02  0.18439565852E+02 -0.24063199948E+03  0.24319666191E+03  0.47000000000E+01 0. -1.
<mgrwt>
<rscale>  0 0.27549771E+03</rscale>
<asrwt>0</asrwt>
<pdfrwt beam="1">  1        4 0.57676280E-02 0.27549771E+03</pdfrwt>
<pdfrwt beam="2">  1       -4 0.77866748E-01 0.27549771E+03</pdfrwt>
<totfact> 0.53521912E+02</totfact>
</mgrwt>
</event>
<event>
 9    1  0.7997082E-001  0.2662232E+03  0.7818608E-02  0.1103461E+00
          1   -1    0    0  501    0  0.00000000000E+00  0.00000000000E+00  0.19328753699E+04  0.19328753699E+04  0.00000000000E+00 0.  1.
         -1   -1    0    0    0  501 -0.00000000000E+00 -0.00000000000E+00 -0.91670173166E+01  0.91670173166E+01  0.00000000000E+00 0.  1.
         35    2    1    2    0    0  0.00000000000E+00  0.00000000000E+00  0.19237083526E+04  0.19420423872E+04  0.26622322954E+03 0.  0.
         25    2    3    3    0    0  0.29404703964E+02  0.55174642302E+01  0.71711544256E+03  0.72857051677E+03  0.12516133959E+03 0.  0.
         25    2    3    3    0    0 -0.29404703964E+02 -0.55174642302E+01  0.12065929100E+04  0.12134718704E+04  0.12550876785E+03 0.  0.
          5    1    4    4  502    0 -0.42348872440E+02 -0.26191218815E+02  0.29184376518E+03  0.29609842994E+03  0.47000000000E+01 0.  1.
         -5    1    4    4    0  502  0.71753576405E+02  0.31708683046E+02  0.42527167738E+03  0.43247208683E+03  0.47000000000E+01 0.  1.
          5    1    5    5  503    0 -0.79487101411E+01 -0.11558827870E+02  0.11717466009E+04  0.11718399956E+04  0.47000000000E+01 0. -1.
         -5    1    5    5    0  503 -0.21455993823E+02  0.60413636400E+01  0.34846309099E+02  0.41631874848E+02  0.47000000000E+01 0. -1.
<mgrwt>
<rscale>  0 0.26622323E+03</rscale>
<asrwt>0</asrwt>
<pdfrwt beam="1">  1        1 0.29736512E+00 0.26622323E+03</pdfrwt>
<pdfrwt beam="2">  1       -1 0.14103119E-02 0.26622323E+03</pdfrwt>
<totfact> 0.42583803E+03</totfact>
</mgrwt>
</event>
<event>
 9    1  0.7997082E-001  0.2605489E+03  0.7818608E-02  0.1106814E+00
          2   -1    0    0  501    0  0.00000000000E+00  0.00000000000E+00  0.13509828113E+04  0.13509828113E+04  0.00000000000E+00 0. -1.
         -2   -1    0    0    0  501 -0.00000000000E+00 -0.00000000000E+00 -0.12562285670E+02  0.12562285670E+02  0.00000000000E+00 0. -1.
         35    2    1    2    0    0 -0.35527136788E-14 -0.14210854715E-13  0.13384205256E+04  0.13635450969E+04  0.26054889760E+03 0.  0.
         25    2    3    3    0    0 -0.89308923612E+01 -0.34914366079E+02  0.72511555680E+03  0.73695360934E+03  0.12652777485E+03 0.  0.
         25    2    3    3    0    0  0.89308923612E+01  0.34914366079E+02  0.61330496879E+03  0.62659148759E+03  0.12318739295E+03 0.  0.
          5    1    4    4  502    0 -0.66973168422E+02 -0.88204815049E+01  0.38167518620E+03  0.38763545238E+03  0.47000000000E+01 0.  1.
         -5    1    4    4    0  502  0.58042276061E+02 -0.26093884574E+02  0.34344037060E+03  0.34931815696E+03  0.47000000000E+01 0.  1.
          5    1    5    5  503    0  0.16431909747E+02 -0.33018366451E+02  0.72624102684E+02  0.81587808352E+02  0.47000000000E+01 0.  1.
         -5    1    5    5    0  503 -0.75010173860E+01  0.67932732529E+02  0.54068086611E+03  0.54500367924E+03  0.47000000000E+01 0.  1.
<mgrwt>
<rscale>  0 0.26054890E+03</rscale>
<asrwt>0</asrwt>
<pdfrwt beam="1">  1        2 0.20784339E+00 0.26054890E+03</pdfrwt>
<pdfrwt beam="2">  1       -2 0.19326604E-02 0.26054890E+03</pdfrwt>
<totfact> 0.13335835E+04</totfact>
</mgrwt>
</event>
<event>
 9    1  0.7997082E-001  0.2750334E+03  0.7818608E-02  0.1098433E+00
         -2   -1    0    0    0  501 -0.00000000000E+00  0.00000000000E+00  0.60643806188E+03  0.60643806188E+03  0.00000000000E+00 0. -1.
          2   -1    0    0  501    0  0.00000000000E+00 -0.00000000000E+00 -0.31183462014E+02  0.31183462014E+02  0.00000000000E+00 0. -1.
         35    2    1    2    0    0  0.00000000000E+00  0.00000000000E+00  0.57525459986E+03  0.63762152389E+03  0.27503336719E+03 0.  0.
         25    2    3    3    0    0  0.18906350013E+02  0.36172898668E+02  0.19042172581E+03  0.23109088458E+03  0.12440512292E+03 0.  0.
         25    2    3    3    0    0 -0.18906350013E+02 -0.36172898668E+02  0.38483287406E+03  0.40653063931E+03  0.12451863745E+03 0.  0.
          5    1    4    4  502    0  0.67736163823E+01 -0.44656736634E+02  0.43423146537E+02  0.62831247488E+02  0.47000000000E+01 0.  1.
         -5    1    4    4    0  502  0.12132733630E+02  0.80829635302E+02  0.14699857927E+03  0.16825963710E+03  0.47000000000E+01 0.  1.
          5    1    5    5  503    0 -0.61225330567E+02 -0.56109638187E+02  0.22306869852E+03  0.23807260838E+03  0.47000000000E+01 0.  1.
         -5    1    5    5    0  503  0.42318980555E+02  0.19936739518E+02  0.16176417554E+03  0.16845803093E+03  0.47000000000E+01 0.  1.
<mgrwt>
<rscale>  0 0.27503337E+03</rscale>
<asrwt>0</asrwt>
<pdfrwt beam="1">  1        2 0.47974562E-02 0.27503337E+03</pdfrwt>
<pdfrwt beam="2">  1       -2 0.93298154E-01 0.27503337E+03</pdfrwt>
<totfact> 0.16706557E+03</totfact>
</mgrwt>
</event>
<event>
 9    1  0.7997082E-001  0.2739176E+03  0.7818608E-02  0.1099058E+00
         -2   -1    0    0    0  501 -0.00000000000E+00  0.00000000000E+00  0.86484182359E+03  0.86484182359E+03  0.00000000000E+00 0.  1.
          2   -1    0    0  501    0  0.00000000000E+00 -0.00000000000E+00 -0.21689175954E+02  0.21689175954E+02  0.00000000000E+00 0.  1.
         35    2    1    2    0    0 -0.71054273576E-14  0.71054273576E-14  0.84315264764E+03  0.88653099955E+03  0.27391755317E+03 0.  0.
         25    2    3    3    0    0 -0.26423221933E+02  0.35136207317E+02  0.53404908158E+03  0.55054762330E+03  0.12633892615E+03 0.  0.
         25    2    3    3    0    0  0.26423221933E+02 -0.35136207317E+02  0.30910356606E+03  0.33598337625E+03  0.12412523854E+03 0.  0.
          5    1    4    4  502    0 -0.41483010228E+02 -0.39495031154E+02  0.23408600436E+03  0.24103743498E+03  0.47000000000E+01 0. -1.
         -5    1    4    4    0  502  0.15059788295E+02  0.74631238470E+02  0.29996307721E+03  0.30951018831E+03  0.47000000000E+01 0. -1.
          5    1    5    5  503    0 -0.12434330590E+02 -0.71006522344E+02  0.12495479274E+03  0.14433408822E+03  0.47000000000E+01 0.  1.
         -5    1    5    5    0  503  0.38857552523E+02  0.35870315027E+02  0.18414877332E+03  0.19164928803E+03  0.47000000000E+01 0.  1.
<mgrwt>
<rscale>  0 0.27391755E+03</rscale>
<asrwt>0</asrwt>
<pdfrwt beam="1">  1        2 0.33367970E-02 0.27391755E+03</pdfrwt>
<pdfrwt beam="2">  1       -2 0.13305256E+00 0.27391755E+03</pdfrwt>
<totfact> 0.11659275E+03</totfact>
</mgrwt>
</event>
<event>
 9    1  0.7997082E-001  0.2805148E+03  0.7818608E-02  0.1095408E+00
         -1   -1    0    0    0  501 -0.00000000000E+00  0.00000000000E+00  0.34416606309E+03  0.34416606309E+03  0.00000000000E+00 0.  1.
          1   -1    0    0  501    0  0.00000000000E+00 -0.00000000000E+00 -0.57158855138E+02  0.57158855138E+02  0.00000000000E+00 0.  1.
         35    2    1    2    0    0  0.00000000000E+00  0.00000000000E+00  0.28700720795E+03  0.40132491823E+03  0.28051479921E+03 0.  0.
         25    2    3    3    0    0 -0.60308418006E+01 -0.56506497726E+02  0.11444627412E+03  0.17991051236E+03  0.12665104602E+03 0.  0.
         25    2    3    3    0    0  0.60308418006E+01  0.56506497726E+02  0.17256093383E+03  0.22141440587E+03  0.12656108369E+03 0.  0.
          5    1    4    4  502    0  0.50062261079E+02 -0.24349965232E+02  0.98357094660E+02  0.11311657200E+03  0.47000000000E+01 0. -1.
         -5    1    4    4    0  502 -0.56093102879E+02 -0.32156532494E+02  0.16089179462E+02  0.66793940357E+02  0.47000000000E+01 0. -1.
          5    1    5    5  503    0  0.59977546811E+02  0.59193429844E+02  0.10060376880E+03  0.13131784553E+03  0.47000000000E+01 0. -1.
         -5    1    5    5    0  503 -0.53946705011E+02 -0.26869321173E+01  0.71957165035E+02  0.90096560343E+02  0.47000000000E+01 0. -1.
<mgrwt>
<rscale>  0 0.28051480E+03</rscale>
<asrwt>0</asrwt>
<pdfrwt beam="1">  1        1 0.87936702E-02 0.28051480E+03</pdfrwt>
<pdfrwt beam="2">  1       -1 0.52948624E-01 0.28051480E+03</pdfrwt>
<totfact> 0.28121248E+03</totfact>
</mgrwt>
</event>
<event>
 9    1  0.7997082E-001  0.2683842E+03  0.7818608E-02  0.1102208E+00
          2   -1    0    0  501    0  0.00000000000E+00  0.00000000000E+00  0.26641004663E+03  0.26641004663E+03  0.00000000000E+00 0. -1.
         -2   -1    0    0    0  501 -0.00000000000E+00 -0.00000000000E+00 -0.67593233961E+02  0.67593233961E+02  0.00000000000E+00 0. -1.
         35    2    1    2    0    0 -0.14210854715E-13  0.35527136788E-14  0.19881681267E+03  0.33400328059E+03  0.26838417697E+03 0.  0.
         25    2    3    3    0    0  0.48110633346E+02 -0.79885007856E+01  0.92754970786E+02  0.16303740263E+03  0.12489700103E+03 0.  0.
         25    2    3    3    0    0 -0.48110633346E+02  0.79885007856E+01  0.10606184189E+03  0.17096587796E+03  0.12490703718E+03 0.  0.
          5    1    4    4  502    0  0.54953548433E+02  0.48306341905E+02  0.32619174744E+02  0.80246468549E+02  0.47000000000E+01 0.  1.
         -5    1    4    4    0  502 -0.68429150863E+01 -0.56294842691E+02  0.60135796042E+02  0.82790934081E+02  0.47000000000E+01 0.  1.
          5    1    5    5  503    0  0.31866421981E+02  0.28148715343E+02  0.93762895986E+01  0.43792965554E+02  0.47000000000E+01 0. -1.
         -5    1    5    5    0  503 -0.79977055327E+02 -0.20160214558E+02  0.96685552288E+02  0.12717291241E+03  0.47000000000E+01 0. -1.
<mgrwt>
<rscale>  0 0.26838418E+03</rscale>
<asrwt>0</asrwt>
<pdfrwt beam="1">  1        2 0.40986160E-01 0.26838418E+03</pdfrwt>
<pdfrwt beam="2">  1       -2 0.10398959E-01 0.26838418E+03</pdfrwt>
<totfact> 0.76837241E+03</totfact>
</mgrwt>
</event>
<event>
 9    1  0.7997082E-001  0.2753490E+03  0.7818608E-02  0.1098257E+00
         -2   -1    0    0    0  501 -0.00000000000E+00  0.00000000000E+00  0.66776823767E+03  0.66776823767E+03  0.00000000000E+00 0. -1.
          2   -1    0    0  501    0  0.00000000000E+00 -0.00000000000E+00 -0.28384497792E+02  0.28384497792E+02  0.00000000000E+00 0. -1.
         35    2    1    2    0    0  0.00000000000E+00  0.00000000000E+00  0.63938373988E+03  0.69615273547E+03  0.27534898633E+03 0.  0.
         25    2    3    3    0    0  0.44279293629E+02  0.32153502308E+02  0.36443150529E+03  0.38914110649E+03  0.12500390057E+03 0.  0.
         25    2    3    3    0    0 -0.44279293629E+02 -0.32153502308E+02  0.27495223459E+03  0.30701162898E+03  0.12515153002E+03 0.  0.
          5    1    4    4  502    0  0.19570305850E+02  0.70632294194E+02  0.12208920489E+03  0.14247730277E+03  0.47000000000E+01 0. -1.
         -5    1    4    4    0  502  0.24708987778E+02 -0.38478791886E+02  0.24234230039E+03  0.24666380371E+03  0.47000000000E+01 0. -1.
          5    1    5    5  503    0 -0.42919117736E+02 -0.63960416000E+02  0.86868680107E+02  0.11619484957E+03  0.47000000000E+01 0. -1.
         -5    1    5    5    0  503 -0.13601758923E+01  0.31806913692E+02  0.18808355449E+03  0.19081677941E+03  0.47000000000E+01 0. -1.
<mgrwt>
<rscale>  0 0.27534899E+03</rscale>
<asrwt>0</asrwt>
<pdfrwt beam="1">  1        2 0.43668463E-02 0.27534899E+03</pdfrwt>
<pdfrwt beam="2">  1       -2 0.10273356E+00 0.27534899E+03</pdfrwt>
<totfact> 0.15154197E+03</totfact>
</mgrwt>
</event>
<event>
 9    1  0.7997082E-001  0.2734766E+03  0.7818608E-02  0.1099306E+00
         -1   -1    0    0    0  501 -0.00000000000E+00  0.00000000000E+00  0.62227386333E+02  0.62227386333E+02  0.00000000000E+00 0.  1.
          1   -1    0    0  501    0  0.00000000000E+00 -0.00000000000E+00 -0.30046843897E+03  0.30046843897E+03  0.00000000000E+00 0.  1.
         35    2    1    2    0    0 -0.71054273576E-14  0.35527136788E-14 -0.23824105264E+03  0.36269582530E+03  0.27347662154E+03 0.  0.
         25    2    3    3    0    0 -0.47601330316E+02  0.25591614425E+02 -0.16187162603E+03  0.20501395887E+03  0.11361110264E+03 0.  0.
         25    2    3    3    0    0  0.47601330316E+02 -0.25591614425E+02 -0.76369426610E+02  0.15768186643E+03  0.12692700384E+03 0.  0.
          5    1    4    4  502    0  0.13760787570E+02  0.70989584924E+01  0.11674096020E+02  0.19953170277E+02  0.47000000000E+01 0.  1.
         -5    1    4    4    0  502 -0.61362117886E+02  0.18492655933E+02 -0.17354572205E+03  0.18506078859E+03  0.47000000000E+01 0.  1.
          5    1    5    5  503    0  0.72110562983E+02 -0.42541154390E+02 -0.95871794533E+01  0.84401937895E+02  0.47000000000E+01 0.  1.
         -5    1    5    5    0  503 -0.24509232667E+02  0.16949539965E+02 -0.66782247157E+02  0.73279928536E+02  0.47000000000E+01 0.  1.
<mgrwt>
<rscale>  0 0.27347662E+03</rscale>
<asrwt>0</asrwt>
<pdfrwt beam="1">  1        1 0.46225913E-01 0.27347662E+03</pdfrwt>
<pdfrwt beam="2">  1       -1 0.95734442E-02 0.27347662E+03</pdfrwt>
<totfact> 0.56647056E+03</totfact>
</mgrwt>
</event>
<event>
 9    1  0.7997082E-001  0.2773428E+03  0.7818608E-02  0.1097149E+00
         -2   -1    0    0    0  501 -0.00000000000E+00  0.00000000000E+00  0.13526953055E+02  0.13526953055E+02  0.00000000000E+00 0.  1.
          2   -1    0    0  501    0  0.00000000000E+00 -0.00000000000E+00 -0.14215879398E+04  0.14215879398E+04  0.00000000000E+00 0.  1.
         35    2    1    2    0    0 -0.71054273576E-14  0.00000000000E+00 -0.14080609867E+04  0.14351148928E+04  0.27734277222E+03 0.  0.
         25    2    3    3    0    0  0.50587249364E+02  0.85250557820E+01 -0.57201042791E+03  0.58831802276E+03  0.12763392926E+03 0.  0.
         25    2    3    3    0    0 -0.50587249364E+02 -0.85250557820E+01 -0.83605055882E+03  0.84679687008E+03  0.12430871205E+03 0.  0.
          5    1    4    4  502    0  0.18547241907E+00 -0.79493934298E+01  0.38466095175E+01  0.10005681421E+02  0.47000000000E+01 0. -1.
         -5    1    4    4    0  502  0.50401776945E+02  0.16474449212E+02 -0.57585703742E+03  0.57831234134E+03  0.47000000000E+01 0. -1.
          5    1    5    5  503    0 -0.67108818092E+01  0.45934618793E+02 -0.56167058340E+03  0.56360532237E+03  0.47000000000E+01 0.  1.
         -5    1    5    5    0  503 -0.43876367554E+02 -0.54459674575E+02 -0.27437997542E+03  0.28319154771E+03  0.47000000000E+01 0.  1.
<mgrwt>
<rscale>  0 0.27734277E+03</rscale>
<asrwt>0</asrwt>
<pdfrwt beam="1">  1        2 0.21870582E+00 0.27734277E+03</pdfrwt>
<pdfrwt beam="2">  1       -2 0.20810699E-02 0.27734277E+03</pdfrwt>
<totfact> 0.10966213E+04</totfact>
</mgrwt>
</event>
<event>
 9    1  0.7997082E-001  0.2757711E+03  0.7818608E-02  0.1098021E+00
         -1   -1    0    0    0  501 -0.00000000000E+00  0.00000000000E+00  0.12269545483E+04  0.12269545483E+04  0.00000000000E+00 0.  1.
          1   -1    0    0  501    0  0.00000000000E+00 -0.00000000000E+00 -0.15495623568E+02  0.15495623568E+02  0.00000000000E+00 0.  1.
         35    2    1    2    0    0  0.00000000000E+00 -0.35527136788E-14  0.12114589247E+04  0.12424501719E+04  0.27577110665E+03 0.  0.
         25    2    3    3    0    0 -0.32824056600E+02  0.20948084156E+02  0.81272400293E+03  0.82303073108E+03  0.12386701916E+03 0.  0.
         25    2    3    3    0    0  0.32824056600E+02 -0.20948084156E+02  0.39873492182E+03  0.41941944080E+03  0.12412448803E+03 0.  0.
          5    1    4    4  502    0 -0.22388120825E+02  0.15569024742E+02  0.32417150953E+02  0.42621404967E+02  0.47000000000E+01 0.  1.
         -5    1    4    4    0  502 -0.10435935775E+02  0.53790594139E+01  0.78030685198E+03  0.78040932611E+03  0.47000000000E+01 0.  1.
          5    1    5    5  503    0  0.54781800997E+02 -0.40388918856E+02  0.37566851881E+03  0.38181309107E+03  0.47000000000E+01 0.  1.
         -5    1    5    5    0  503 -0.21957744397E+02  0.19440834700E+02  0.23066403006E+02  0.37606349736E+02  0.47000000000E+01 0.  1.
<mgrwt>
<rscale>  0 0.27577111E+03</rscale>
<asrwt>0</asrwt>
<pdfrwt beam="1">  1        1 0.23839431E-02 0.27577111E+03</pdfrwt>
<pdfrwt beam="2">  1       -1 0.18876216E+00 0.27577111E+03</pdfrwt>
<totfact> 0.93828056E+02</totfact>
</mgrwt>
</event>
<event>
 9    1  0.7997082E-001  0.2696762E+03  0.7818608E-02  0.1101465E+00
         -2   -1    0    0    0  501 -0.00000000000E+00  0.00000000000E+00  0.61762520092E+02  0.61762520092E+02  0.00000000000E+00 0. -1.
          2   -1    0    0  501    0  0.00000000000E+00 -0.00000000000E+00 -0.29437448122E+03  0.29437448122E+03  0.00000000000E+00 0. -1.
         35    2    1    2    0    0  0.00000000000E+00  0.00000000000E+00 -0.23261196113E+03  0.35613700131E+03  0.26967617478E+03 0.  0.
         25    2    3    3    0    0 -0.20696187925E+02  0.78085850821E+01 -0.64994779884E+02  0.14489800169E+03  0.12760016961E+03 0.  0.
         25    2    3    3    0    0  0.20696187925E+02 -0.78085850821E+01 -0.16761718125E+03  0.21123899963E+03  0.12663762995E+03 0.  0.
          5    1    4    4  502    0 -0.35272215775E+02 -0.51002408220E+02 -0.10100657916E+02  0.63003874010E+02  0.47000000000E+01 0. -1.
         -5    1    4    4    0  502  0.14576027849E+02  0.58810993303E+02 -0.54894121968E+02  0.81894127675E+02  0.47000000000E+01 0. -1.
          5    1    5    5  503    0  0.63445890019E+02  0.92121113190E+01 -0.14730879666E+03  0.16072403531E+03  0.47000000000E+01 0.  1.
         -5    1    5    5    0  503 -0.42749702093E+02 -0.17020696401E+02 -0.20308384590E+02  0.50514964315E+02  0.47000000000E+01 0.  1.
<mgrwt>
<rscale>  0 0.26967617E+03</rscale>
<asrwt>0</asrwt>
<pdfrwt beam="1">  1        2 0.45288382E-01 0.26967617E+03</pdfrwt>
<pdfrwt beam="2">  1       -2 0.95019260E-02 0.26967617E+03</pdfrwt>
<totfact> 0.79663079E+03</totfact>
</mgrwt>
</event>
<event>
 9    1  0.7997082E-001  0.2726747E+03  0.7818608E-02  0.1099759E+00
         -3   -1    0    0    0  501 -0.00000000000E+00  0.00000000000E+00  0.11784168225E+02  0.11784168225E+02  0.00000000000E+00 0.  1.
          3   -1    0    0  501    0  0.00000000000E+00 -0.00000000000E+00 -0.15773593880E+04  0.15773593880E+04  0.00000000000E+00 0.  1.
         35    2    1    2    0    0 -0.14210854715E-13  0.00000000000E+00 -0.15655752197E+04  0.15891435562E+04  0.27267466607E+03 0.  0.
         25    2    3    3    0    0 -0.55556222551E+02  0.18587012846E+02 -0.87089384884E+03  0.88182999672E+03  0.12544351821E+03 0.  0.
         25    2    3    3    0    0  0.55556222551E+02 -0.18587012846E+02 -0.69468137091E+03  0.70731355948E+03  0.11949181319E+03 0.  0.
          5    1    4    4  502    0 -0.78738175312E+02 -0.25448495502E+01 -0.80326509424E+03  0.80713262735E+03  0.47000000000E+01 0. -1.
         -5    1    4    4    0  502  0.23181952762E+02  0.21131862397E+02 -0.67628754595E+02  0.74697369366E+02  0.47000000000E+01 0. -1.
          5    1    5    5  503    0  0.93400018768E+02 -0.15725927409E+02 -0.49831381171E+03  0.50725694992E+03  0.47000000000E+01 0. -1.
         -5    1    5    5    0  503 -0.37843796218E+02 -0.28610854376E+01 -0.19636755920E+03  0.20005660956E+03  0.47000000000E+01 0. -1.
<mgrwt>
<rscale>  0 0.27267467E+03</rscale>
<asrwt>0</asrwt>
<pdfrwt beam="1">  1        3 0.24267074E+00 0.27267467E+03</pdfrwt>
<pdfrwt beam="2">  1       -3 0.18129485E-02 0.27267467E+03</pdfrwt>
<totfact> 0.25468172E+02</totfact>
</mgrwt>
</event>
<event>
 9    1  0.7997082E-001  0.2664116E+03  0.7818608E-02  0.1103351E+00
          1   -1    0    0  501    0  0.00000000000E+00  0.00000000000E+00  0.36476487190E+03  0.36476487190E+03  0.00000000000E+00 0. -1.
         -1   -1    0    0    0  501 -0.00000000000E+00 -0.00000000000E+00 -0.48644441853E+02  0.48644441853E+02  0.00000000000E+00 0. -1.
         35    2    1    2    0    0 -0.35527136788E-14  0.00000000000E+00  0.31612043004E+03  0.41340931375E+03  0.26641158835E+03 0.  0.
         25    2    3    3    0    0 -0.16582348829E+02  0.15249498054E+02  0.21901087602E+03  0.25295674014E+03  0.12455451450E+03 0.  0.
         25    2    3    3    0    0  0.16582348829E+02 -0.15249498054E+02  0.97109554025E+02  0.16045257361E+03  0.12572685239E+03 0.  0.
          5    1    4    4  502    0  0.71275275990E+01  0.74157258773E+01  0.22625330661E+03  0.22653574418E+03  0.47000000000E+01 0.  1.
         -5    1    4    4    0  502 -0.23709876428E+02  0.78337721762E+01 -0.72424305863E+01  0.26420995960E+02  0.47000000000E+01 0.  1.
          5    1    5    5  503    0 -0.10585797361E+02 -0.42646699931E+02  0.11076458599E+03  0.11925470066E+03  0.47000000000E+01 0. -1.
         -5    1    5    5    0  503  0.27168146190E+02  0.27397201877E+02 -0.13655031961E+02  0.41197872954E+02  0.47000000000E+01 0. -1.
<mgrwt>
<rscale>  0 0.26641159E+03</rscale>
<asrwt>0</asrwt>
<pdfrwt beam="1">  1        1 0.56117671E-01 0.26641159E+03</pdfrwt>
<pdfrwt beam="2">  1       -1 0.74837605E-02 0.26641159E+03</pdfrwt>
<totfact> 0.64590164E+03</totfact>
</mgrwt>
</event>
<event>
 9    1  0.7997082E-001  0.3336368E+03  0.7818608E-02  0.1069539E+00
         -3   -1    0    0    0  501 -0.00000000000E+00  0.00000000000E+00  0.64738126765E+03  0.64738126765E+03  0.00000000000E+00 0.  1.
          3   -1    0    0  501    0  0.00000000000E+00 -0.00000000000E+00 -0.42986076707E+02  0.42986076707E+02  0.00000000000E+00 0.  1.
         35    2    1    2    0    0  0.00000000000E+00 -0.71054273576E-14  0.60439519094E+03  0.69036734436E+03  0.33363681350E+03 0.  0.
         25    2    3    3    0    0 -0.60879091837E+02 -0.13858283118E+02  0.48895286046E+03  0.50862802203E+03  0.12541630358E+03 0.  0.
         25    2    3    3    0    0  0.60879091837E+02  0.13858283118E+02  0.11544233048E+03  0.18173932233E+03  0.12571369767E+03 0.  0.
          5    1    4    4  502    0 -0.30228589140E+02 -0.69538005089E+02  0.28482206093E+03  0.29477957552E+03  0.47000000000E+01 0. -1.
         -5    1    4    4    0  502 -0.30650502697E+02  0.55679721971E+02  0.20413079953E+03  0.21384844650E+03  0.47000000000E+01 0. -1.
          5    1    5    5  503    0  0.88193391808E+02  0.28427307508E+02  0.11824762792E+03  0.15030228767E+03  0.47000000000E+01 0. -1.
         -5    1    5    5    0  503 -0.27314299971E+02 -0.14569024390E+02 -0.28052974374E+01  0.31437034661E+02  0.47000000000E+01 0. -1.
<mgrwt>
<rscale>  0 0.33363681E+03</rscale>
<asrwt>0</asrwt>
<pdfrwt beam="1">  1        3 0.66132430E-02 0.33363681E+03</pdfrwt>
<pdfrwt beam="2">  1       -3 0.99597111E-01 0.33363681E+03</pdfrwt>
<totfact> 0.34205193E+02</totfact>
</mgrwt>
</event>
<event>
 9    1  0.7997082E-001  0.2769402E+03  0.7818608E-02  0.1097372E+00
          1   -1    0    0  501    0  0.00000000000E+00  0.00000000000E+00  0.32151082971E+03  0.32151082971E+03  0.00000000000E+00 0.  1.
         -1   -1    0    0    0  501 -0.00000000000E+00 -0.00000000000E+00 -0.59637088488E+02  0.59637088488E+02  0.00000000000E+00 0.  1.
         35    2    1    2    0    0  0.00000000000E+00  0.00000000000E+00  0.26187374123E+03  0.38114791820E+03  0.27694020872E+03 0.  0.
         25    2    3    3    0    0 -0.23924336582E+02  0.24034866673E+02  0.19711884696E+03  0.23574603541E+03  0.12478102695E+03 0.  0.
         25    2    3    3    0    0  0.23924336582E+02 -0.24034866673E+02  0.64754894266E+02  0.14540188279E+03  0.12569193487E+03 0.  0.
          5    1    4    4  502    0 -0.39391856499E+01  0.19159186234E+02  0.21004113022E+03  0.21100227009E+03  0.47000000000E+01 0.  1.
         -5    1    4    4    0  502 -0.19985150932E+02  0.48756804392E+01 -0.12922283257E+02  0.24743765318E+02  0.47000000000E+01 0.  1.
          5    1    5    5  503    0  0.51496165143E+02  0.37721027835E+01  0.86137915693E+02  0.10053812363E+03  0.47000000000E+01 0.  1.
         -5    1    5    5    0  503 -0.27571828561E+02 -0.27806969457E+02 -0.21383021427E+02  0.44863759160E+02  0.47000000000E+01 0.  1.
<mgrwt>
<rscale>  0 0.27694021E+03</rscale>
<asrwt>0</asrwt>
<pdfrwt beam="1">  1        1 0.49463204E-01 0.27694021E+03</pdfrwt>
<pdfrwt beam="2">  1       -1 0.91749368E-02 0.27694021E+03</pdfrwt>
<totfact> 0.55560649E+03</totfact>
</mgrwt>
</event>
<event>
 9    1  0.7997082E-001  0.2724309E+03  0.7818608E-02  0.1099896E+00
          2   -1    0    0  501    0  0.00000000000E+00  0.00000000000E+00  0.11748052126E+03  0.11748052126E+03  0.00000000000E+00 0. -1.
         -2   -1    0    0    0  501 -0.00000000000E+00 -0.00000000000E+00 -0.15793804987E+03  0.15793804987E+03  0.00000000000E+00 0. -1.
         35    2    1    2    0    0  0.17763568394E-14  0.00000000000E+00 -0.40457528606E+02  0.27541857113E+03  0.27243086775E+03 0.  0.
         25    2    3    3    0    0 -0.13329497535E+02  0.23109689143E+02  0.29652533556E+02  0.13049898144E+03  0.12425368475E+03 0.  0.
         25    2    3    3    0    0  0.13329497535E+02 -0.23109689143E+02 -0.70110062162E+02  0.14491958969E+03  0.12399408624E+03 0.  0.
          5    1    4    4  502    0 -0.47299373017E+02  0.16739182089E+02 -0.31977457647E+02  0.59683152584E+02  0.47000000000E+01 0.  1.
         -5    1    4    4    0  502  0.33969875483E+02  0.63705070544E+01  0.61629991203E+02  0.70815828853E+02  0.47000000000E+01 0.  1.
          5    1    5    5  503    0  0.15396794379E+01 -0.73816020283E+02 -0.47844729844E+02  0.88104390567E+02  0.47000000000E+01 0.  1.
         -5    1    5    5    0  503  0.11789818097E+02  0.50706331140E+02 -0.22265332318E+02  0.56815199125E+02  0.47000000000E+01 0.  1.
<mgrwt>
<rscale>  0 0.27243087E+03</rscale>
<asrwt>0</asrwt>
<pdfrwt beam="1">  1        2 0.18073926E-01 0.27243087E+03</pdfrwt>
<pdfrwt beam="2">  1       -2 0.24298161E-01 0.27243087E+03</pdfrwt>
<totfact> 0.46398861E+03</totfact>
</mgrwt>
</event>
<event>
 9    1  0.7997082E-001  0.2739989E+03  0.7818608E-02  0.1099013E+00
          2   -1    0    0  501    0  0.00000000000E+00  0.00000000000E+00  0.42830254982E+04  0.42830254982E+04  0.00000000000E+00 0. -1.
         -2   -1    0    0    0  501 -0.00000000000E+00 -0.00000000000E+00 -0.43821466732E+01  0.43821466732E+01  0.00000000000E+00 0. -1.
         35    2    1    2    0    0  0.00000000000E+00 -0.35527136788E-14  0.42786433515E+04  0.42874076449E+04  0.27399887546E+03 0.  0.
         25    2    3    3    0    0 -0.35214318814E+02  0.78553108707E+01  0.28544651548E+04  0.28573511028E+04  0.12321627461E+03 0.  0.
         25    2    3    3    0    0  0.35214318814E+02 -0.78553108707E+01  0.14241781967E+04  0.14300565421E+04  0.12440427422E+03 0.  0.
          5    1    4    4  502    0 -0.60933956399E+02  0.17052205352E+02  0.74305370602E+03  0.74575775207E+03  0.47000000000E+01 0. -1.
         -5    1    4    4    0  502  0.25719637585E+02 -0.91968944809E+01  0.21114114488E+04  0.21115933507E+04  0.47000000000E+01 0. -1.
          5    1    5    5  503    0  0.33967714612E+02 -0.45103109333E+02  0.12737385263E+04  0.12749980468E+04  0.47000000000E+01 0.  1.
         -5    1    5    5    0  503  0.12466042022E+01  0.37247798463E+02  0.15043967040E+03  0.15505849523E+03  0.47000000000E+01 0.  1.
<mgrwt>
<rscale>  0 0.27399888E+03</rscale>
<asrwt>0</asrwt>
<pdfrwt beam="1">  1        2 0.65892365E+00 0.27399888E+03</pdfrwt>
<pdfrwt beam="2">  1       -2 0.67417984E-03 0.27399888E+03</pdfrwt>
<totfact> 0.99877471E+02</totfact>
</mgrwt>
</event>
<event>
 9    1  0.7997082E-001  0.2799045E+03  0.7818608E-02  0.1095741E+00
         -2   -1    0    0    0  501 -0.00000000000E+00  0.00000000000E+00  0.34042469484E+02  0.34042469484E+02  0.00000000000E+00 0.  1.
          2   -1    0    0  501    0  0.00000000000E+00 -0.00000000000E+00 -0.57535893588E+03  0.57535893588E+03  0.00000000000E+00 0.  1.
         35    2    1    2    0    0 -0.71054273576E-14  0.00000000000E+00 -0.54131646640E+03  0.60940140537E+03  0.27990454814E+03 0.  0.
         25    2    3    3    0    0  0.54797478933E+02 -0.18877113445E+02 -0.21644028502E+03  0.25647371144E+03  0.12479286266E+03 0.  0.
         25    2    3    3    0    0 -0.54797478933E+02  0.18877113445E+02 -0.32487618138E+03  0.35292769393E+03  0.12511720427E+03 0.  0.
          5    1    4    4  502    0  0.84255782898E+01 -0.46631797561E+02 -0.18255490119E+02  0.50998704226E+02  0.47000000000E+01 0.  1.
         -5    1    4    4    0  502  0.46371900644E+02  0.27754684116E+02 -0.19818479490E+03  0.20547500721E+03  0.47000000000E+01 0.  1.
          5    1    5    5  503    0 -0.82705014294E+02  0.29288849752E+02 -0.30350567072E+03  0.31596793867E+03  0.47000000000E+01 0. -1.
         -5    1    5    5    0  503  0.27907535361E+02 -0.10411736307E+02 -0.21370510667E+02  0.36959755262E+02  0.47000000000E+01 0. -1.
<mgrwt>
<rscale>  0 0.27990455E+03</rscale>
<asrwt>0</asrwt>
<pdfrwt beam="1">  1        2 0.88516757E-01 0.27990455E+03</pdfrwt>
<pdfrwt beam="2">  1       -2 0.52373031E-02 0.27990455E+03</pdfrwt>
<totfact> 0.96263471E+03</totfact>
</mgrwt>
</event>
<event>
 9    1  0.7997082E-001  0.3150859E+03  0.7818608E-02  0.1077933E+00
          1   -1    0    0  501    0  0.00000000000E+00  0.00000000000E+00  0.70648208555E+03  0.70648208555E+03  0.00000000000E+00 0.  1.
         -1   -1    0    0    0  501 -0.00000000000E+00 -0.00000000000E+00 -0.35131501367E+02  0.35131501367E+02  0.00000000000E+00 0.  1.
         35    2    1    2    0    0  0.71054273576E-14  0.00000000000E+00  0.67135058419E+03  0.74161358692E+03  0.31508586991E+03 0.  0.
         25    2    3    3    0    0 -0.28736335424E+02 -0.43278811827E+02  0.14669546789E+03  0.19981584890E+03  0.12533148306E+03 0.  0.
         25    2    3    3    0    0  0.28736335424E+02  0.43278811827E+02  0.52465511630E+03  0.54179773802E+03  0.12483174811E+03 0.  0.
          5    1    4    4  502    0 -0.76744836192E+02 -0.14711073066E+02  0.71498795610E+02  0.10602053257E+03  0.47000000000E+01 0.  1.
         -5    1    4    4    0  502  0.48008500767E+02 -0.28567738762E+02  0.75196672278E+02  0.93795316331E+02  0.47000000000E+01 0.  1.
          5    1    5    5  503    0 -0.10398752405E+02  0.44439233994E+02  0.60295845095E+02  0.75767133410E+02  0.47000000000E+01 0.  1.
         -5    1    5    5    0  503  0.39135087829E+02 -0.11604221662E+01  0.46435927120E+03  0.46603060461E+03  0.47000000000E+01 0.  1.
<mgrwt>
<rscale>  0 0.31508587E+03</rscale>
<asrwt>0</asrwt>
<pdfrwt beam="1">  1        1 0.10868954E+00 0.31508587E+03</pdfrwt>
<pdfrwt beam="2">  1       -1 0.54048469E-02 0.31508587E+03</pdfrwt>
<totfact> 0.43580861E+03</totfact>
</mgrwt>
</event>
<event>
 9    1  0.7997082E-001  0.2749982E+03  0.7818608E-02  0.1098453E+00
          2   -1    0    0  501    0  0.00000000000E+00  0.00000000000E+00  0.77971044988E+03  0.77971044988E+03  0.00000000000E+00 0.  1.
         -2   -1    0    0    0  501 -0.00000000000E+00 -0.00000000000E+00 -0.24247468665E+02  0.24247468665E+02  0.00000000000E+00 0.  1.
         35    2    1    2    0    0  0.71054273576E-14  0.26645352591E-14  0.75546298122E+03  0.80395791855E+03  0.27499821601E+03 0.  0.
         25    2    3    3    0    0  0.49358805102E+02  0.71596450319E+01  0.35910684195E+03  0.38367540783E+03  0.12554498191E+03 0.  0.
         25    2    3    3    0    0 -0.49358805102E+02 -0.71596450319E+01  0.39635613927E+03  0.42028251072E+03  0.13058195710E+03 0.  0.
          5    1    4    4  502    0  0.11274907830E+02  0.38634927363E+02  0.28926030026E+02  0.49785403202E+02  0.47000000000E+01 0.  1.
         -5    1    4    4    0  502  0.38083897272E+02 -0.31475282331E+02  0.33018081192E+03  0.33389000463E+03  0.47000000000E+01 0.  1.
          5    1    5    5  503    0  0.35376769822E+02 -0.14253408720E+02  0.47072046084E+02  0.60766298437E+02  0.47000000000E+01 0. -1.
         -5    1    5    5    0  503 -0.84735574923E+02  0.70937636882E+01  0.34928409318E+03  0.35951621228E+03  0.47000000000E+01 0. -1.
<mgrwt>
<rscale>  0 0.27499822E+03</rscale>
<asrwt>0</asrwt>
<pdfrwt beam="1">  1        2 0.11995543E+00 0.27499822E+03</pdfrwt>
<pdfrwt beam="2">  1       -2 0.37303804E-02 0.27499822E+03</pdfrwt>
<totfact> 0.11155528E+04</totfact>
</mgrwt>
</event>
<event>
 9    1  0.7997082E-001  0.2730958E+03  0.7818608E-02  0.1099521E+00
         -2   -1    0    0    0  501 -0.00000000000E+00  0.00000000000E+00  0.44211871230E+02  0.44211871230E+02  0.00000000000E+00 0.  1.
          2   -1    0    0  501    0  0.00000000000E+00 -0.00000000000E+00 -0.42172662390E+03  0.42172662390E+03  0.00000000000E+00 0.  1.
         35    2    1    2    0    0 -0.35527136788E-14  0.00000000000E+00 -0.37751475267E+03  0.46593849513E+03  0.27309575749E+03 0.  0.
         25    2    3    3    0    0 -0.27670000821E+02  0.41741296356E+01 -0.10999949080E+03  0.16914218914E+03  0.12540390691E+03 0.  0.
         25    2    3    3    0    0  0.27670000821E+02 -0.41741296356E+01 -0.26751526187E+03  0.29679630599E+03  0.12546146664E+03 0.  0.
          5    1    4    4  502    0 -0.28148358756E+02 -0.55963688623E+02 -0.31889914424E+02  0.70450842343E+02  0.47000000000E+01 0. -1.
         -5    1    4    4    0  502  0.47835793432E+00  0.60137818258E+02 -0.78109576380E+02  0.98691346801E+02  0.47000000000E+01 0. -1.
          5    1    5    5  503    0  0.44014145659E+01 -0.26292480670E+02 -0.26258658431E+03  0.26397816434E+03  0.47000000000E+01 0.  1.
         -5    1    5    5    0  503  0.23268586255E+02  0.22118351035E+02 -0.49286775627E+01  0.32818141650E+02  0.47000000000E+01 0.  1.
<mgrwt>
<rscale>  0 0.27309576E+03</rscale>
<asrwt>0</asrwt>
<pdfrwt beam="1">  1        2 0.64881019E-01 0.27309576E+03</pdfrwt>
<pdfrwt beam="2">  1       -2 0.68018264E-02 0.27309576E+03</pdfrwt>
<totfact> 0.91139926E+03</totfact>
</mgrwt>
</event>
<event>
 9    1  0.7997082E-001  0.2772986E+03  0.7818608E-02  0.1097174E+00
         -1   -1    0    0    0  501 -0.00000000000E+00  0.00000000000E+00  0.30787738419E+03  0.30787738419E+03  0.00000000000E+00 0.  1.
          1   -1    0    0  501    0  0.00000000000E+00 -0.00000000000E+00 -0.62439243209E+02  0.62439243209E+02  0.00000000000E+00 0.  1.
         35    2    1    2    0    0 -0.35527136788E-14  0.00000000000E+00  0.24543814098E+03  0.37031662739E+03  0.27729861788E+03 0.  0.
         25    2    3    3    0    0 -0.21111800952E+02 -0.17678273650E+02  0.19493388529E+03  0.23315411933E+03  0.12491354700E+03 0.  0.
         25    2    3    3    0    0  0.21111800952E+02  0.17678273650E+02  0.50504255683E+02  0.13716250807E+03  0.12451764645E+03 0.  0.
          5    1    4    4  502    0  0.27907267027E+02  0.28623876517E+02  0.18663822888E+02  0.44368571586E+02  0.47000000000E+01 0.  1.
         -5    1    4    4    0  502 -0.49019067979E+02 -0.46302150167E+02  0.17627006241E+03  0.18878554774E+03  0.47000000000E+01 0.  1.
          5    1    5    5  503    0 -0.24288016662E+02  0.40362421033E+02  0.68364265536E+02  0.83155249908E+02  0.47000000000E+01 0.  1.
         -5    1    5    5    0  503  0.45399817613E+02 -0.22684147384E+02 -0.17860009853E+02  0.54007258159E+02  0.47000000000E+01 0.  1.
<mgrwt>
<rscale>  0 0.27729862E+03</rscale>
<asrwt>0</asrwt>
<pdfrwt beam="1">  1        1 0.96060376E-02 0.27729862E+03</pdfrwt>
<pdfrwt beam="2">  1       -1 0.47365751E-01 0.27729862E+03</pdfrwt>
<totfact> 0.30662984E+03</totfact>
</mgrwt>
</event>
<event>
 9    1  0.7997082E-001  0.2717871E+03  0.7818608E-02  0.1100261E+00
         -2   -1    0    0    0  501 -0.00000000000E+00  0.00000000000E+00  0.67290896761E+02  0.67290896761E+02  0.00000000000E+00 0.  1.
          2   -1    0    0  501    0  0.00000000000E+00 -0.00000000000E+00 -0.27443615329E+03  0.27443615329E+03  0.00000000000E+00 0.  1.
         35    2    1    2    0    0  0.00000000000E+00  0.00000000000E+00 -0.20714525653E+03  0.34172705005E+03  0.27178708475E+03 0.  0.
         25    2    3    3    0    0  0.49755167999E+02  0.30966631065E+01 -0.12903787098E+03  0.18598751798E+03  0.12431982397E+03 0.  0.
         25    2    3    3    0    0 -0.49755167999E+02 -0.30966631065E+01 -0.78107385554E+02  0.15573953208E+03  0.12517536542E+03 0.  0.
          5    1    4    4  502    0 -0.16178919029E+02 -0.44093879035E+02 -0.74368808101E+02  0.88084261975E+02  0.47000000000E+01 0. -1.
         -5    1    4    4    0  502  0.65934087028E+02  0.47190542141E+02 -0.54669062875E+02  0.97903256001E+02  0.47000000000E+01 0. -1.
          5    1    5    5  503    0 -0.62742905616E+01 -0.38291258495E+02  0.19088012765E+02  0.43497464644E+02  0.47000000000E+01 0. -1.
         -5    1    5    5    0  503 -0.43480877438E+02  0.35194595388E+02 -0.97195398319E+02  0.11224206743E+03  0.47000000000E+01 0. -1.
<mgrwt>
<rscale>  0 0.27178708E+03</rscale>
<asrwt>0</asrwt>
<pdfrwt beam="1">  1        2 0.42220946E-01 0.27178708E+03</pdfrwt>
<pdfrwt beam="2">  1       -2 0.10352446E-01 0.27178708E+03</pdfrwt>
<totfact> 0.74992885E+03</totfact>
</mgrwt>
</event>
<event>
 9    1  0.7997082E-001  0.2702118E+03  0.7818608E-02  0.1101158E+00
          2   -1    0    0  501    0  0.00000000000E+00  0.00000000000E+00  0.44202034075E+03  0.44202034075E+03  0.00000000000E+00 0. -1.
         -2   -1    0    0    0  501 -0.00000000000E+00 -0.00000000000E+00 -0.41295861943E+02  0.41295861943E+02  0.00000000000E+00 0. -1.
         35    2    1    2    0    0  0.00000000000E+00 -0.71054273576E-14  0.40072447881E+03  0.48331620269E+03  0.27021184998E+03 0.  0.
         25    2    3    3    0    0 -0.25700989453E+02  0.36214658147E+02  0.16761077511E+03  0.21364645129E+03  0.12481743425E+03 0.  0.
         25    2    3    3    0    0  0.25700989453E+02 -0.36214658147E+02  0.23311370370E+03  0.26966975140E+03  0.12809267600E+03 0.  0.
          5    1    4    4  502    0 -0.13395793607E+02  0.82829417229E+02  0.10547167826E+03  0.13485742308E+03  0.47000000000E+01 0.  1.
         -5    1    4    4    0  502 -0.12305195846E+02 -0.46614759082E+02  0.62139096844E+02  0.78789028206E+02  0.47000000000E+01 0.  1.
          5    1    5    5  503    0  0.60637537890E+02  0.15475353881E+02  0.65281148634E+02  0.90554491585E+02  0.47000000000E+01 0.  1.
         -5    1    5    5    0  503 -0.34936548437E+02 -0.51690012028E+02  0.16783255507E+03  0.17911525982E+03  0.47000000000E+01 0.  1.
<mgrwt>
<rscale>  0 0.27021185E+03</rscale>
<asrwt>0</asrwt>
<pdfrwt beam="1">  1        2 0.68003126E-01 0.27021185E+03</pdfrwt>
<pdfrwt beam="2">  1       -2 0.63532098E-02 0.27021185E+03</pdfrwt>
<totfact> 0.96133226E+03</totfact>
</mgrwt>
</event>
<event>
 9    1  0.7997082E-001  0.2808733E+03  0.7818608E-02  0.1095213E+00
          2   -1    0    0  501    0  0.00000000000E+00  0.00000000000E+00  0.13070718507E+04  0.13070718507E+04  0.00000000000E+00 0. -1.
         -2   -1    0    0    0  501 -0.00000000000E+00 -0.00000000000E+00 -0.15089029495E+02  0.15089029495E+02  0.00000000000E+00 0. -1.
         35    2    1    2    0    0  0.14210854715E-13  0.35527136788E-14  0.12919828212E+04  0.13221608802E+04  0.28087325047E+03 0.  0.
         25    2    3    3    0    0  0.59600322973E+02 -0.22367476068E+01  0.71731226299E+03  0.73057876620E+03  0.12510495373E+03 0.  0.
         25    2    3    3    0    0 -0.59600322973E+02  0.22367476068E+01  0.57467055822E+03  0.59158211400E+03  0.12714537185E+03 0.  0.
          5    1    4    4  502    0  0.40851134820E+02  0.59972145989E+02  0.41569531683E+03  0.42200729845E+03  0.47000000000E+01 0.  1.
         -5    1    4    4    0  502  0.18749188153E+02 -0.62208893596E+02  0.30161694616E+03  0.30857146775E+03  0.47000000000E+01 0.  1.
          5    1    5    5  503    0  0.26192514770E+02  0.18559245561E+02  0.33293583079E+03  0.33451285603E+03  0.47000000000E+01 0.  1.
         -5    1    5    5    0  503 -0.85792837743E+02 -0.16322497955E+02  0.24173472743E+03  0.25706925797E+03  0.47000000000E+01 0.  1.
<mgrwt>
<rscale>  0 0.28087325E+03</rscale>
<asrwt>0</asrwt>
<pdfrwt beam="1">  1        2 0.20108789E+00 0.28087325E+03</pdfrwt>
<pdfrwt beam="2">  1       -2 0.23213902E-02 0.28087325E+03</pdfrwt>
<totfact> 0.10784533E+04</totfact>
</mgrwt>
</event>
<event>
 9    1  0.7997082E-001  0.2815094E+03  0.7818608E-02  0.1094867E+00
         -1   -1    0    0    0  501 -0.00000000000E+00  0.00000000000E+00  0.19740902890E+02  0.19740902890E+02  0.00000000000E+00 0.  1.
          1   -1    0    0  501    0  0.00000000000E+00 -0.00000000000E+00 -0.10035954191E+04  0.10035954191E+04  0.00000000000E+00 0.  1.
         35    2    1    2    0    0  0.71054273576E-14  0.00000000000E+00 -0.98385451618E+03  0.10233363220E+04  0.28150935834E+03 0.  0.
         25    2    3    3    0    0  0.49301953485E+02  0.43607334889E+02 -0.49260840029E+03  0.51252913201E+03  0.12526289497E+03 0.  0.
         25    2    3    3    0    0 -0.49301953485E+02 -0.43607334889E+02 -0.49124611590E+03  0.51080718995E+03  0.12356761973E+03 0.  0.
          5    1    4    4  502    0  0.40517718826E+02  0.84015889734E+02 -0.26089136778E+03  0.27710422416E+03  0.47000000000E+01 0. -1.
         -5    1    4    4    0  502  0.87842346590E+01 -0.40408554845E+02 -0.23171703251E+03  0.23542490785E+03  0.47000000000E+01 0. -1.
          5    1    5    5  503    0  0.17938730100E+02  0.19508970055E+02 -0.29566582067E+02  0.39983380614E+02  0.47000000000E+01 0.  1.
         -5    1    5    5    0  503 -0.67240683585E+02 -0.63116304945E+02 -0.46167953383E+03  0.47082380933E+03  0.47000000000E+01 0.  1.
<mgrwt>
<rscale>  0 0.28150936E+03</rscale>
<asrwt>0</asrwt>
<pdfrwt beam="1">  1        1 0.15439928E+00 0.28150936E+03</pdfrwt>
<pdfrwt beam="2">  1       -1 0.30370622E-02 0.28150936E+03</pdfrwt>
<totfact> 0.58865074E+03</totfact>
</mgrwt>
</event>
<event>
 9    1  0.7997082E-001  0.2731745E+03  0.7818608E-02  0.1099476E+00
          2   -1    0    0  501    0  0.00000000000E+00  0.00000000000E+00  0.10983413526E+02  0.10983413526E+02  0.00000000000E+00 0.  1.
         -2   -1    0    0    0  501 -0.00000000000E+00 -0.00000000000E+00 -0.16985675963E+04  0.16985675963E+04  0.00000000000E+00 0.  1.
         35    2    1    2    0    0 -0.35527136788E-14 -0.35527136788E-14 -0.16875841828E+04  0.17095510098E+04  0.27317445204E+03 0.  0.
         25    2    3    3    0    0 -0.31409760367E+02  0.19225744812E+02 -0.11102844141E+04  0.11177955308E+04  0.12401276666E+03 0.  0.
         25    2    3    3    0    0  0.31409760367E+02 -0.19225744812E+02 -0.57729976870E+03  0.59175547899E+03  0.12467285860E+03 0.  0.
          5    1    4    4  502    0  0.15090751697E+02 -0.31871538351E+00 -0.16545256147E+02  0.22883790491E+02  0.47000000000E+01 0.  1.
         -5    1    4    4    0  502 -0.46500512064E+02  0.19544460196E+02 -0.10937391579E+04  0.10949117403E+04  0.47000000000E+01 0.  1.
          5    1    5    5  503    0  0.53445952047E+01  0.26002759098E+02 -0.48393254187E+03  0.48468288938E+03  0.47000000000E+01 0. -1.
         -5    1    5    5    0  503  0.26065165163E+02 -0.45228503911E+02 -0.93367226826E+02  0.10707258961E+03  0.47000000000E+01 0. -1.
<mgrwt>
<rscale>  0 0.27317445E+03</rscale>
<asrwt>0</asrwt>
<pdfrwt beam="1">  1        2 0.16897570E-02 0.27317445E+03</pdfrwt>
<pdfrwt beam="2">  1       -2 0.26131792E+00 0.27317445E+03</pdfrwt>
<totfact> 0.42607528E+02</totfact>
</mgrwt>
</event>
<event>
 9    1  0.7997082E-001  0.2713320E+03  0.7818608E-02  0.1100520E+00
         -1   -1    0    0    0  501 -0.00000000000E+00  0.00000000000E+00  0.62125718716E+03  0.62125718716E+03  0.00000000000E+00 0. -1.
          1   -1    0    0  501    0  0.00000000000E+00 -0.00000000000E+00 -0.29625846535E+02  0.29625846535E+02  0.00000000000E+00 0. -1.
         35    2    1    2    0    0  0.00000000000E+00  0.00000000000E+00  0.59163134062E+03  0.65088303369E+03  0.27133204813E+03 0.  0.
         25    2    3    3    0    0  0.39824877384E+02  0.19828519465E+02  0.35793255294E+03  0.38211418131E+03  0.12615999392E+03 0.  0.
         25    2    3    3    0    0 -0.39824877384E+02 -0.19828519465E+02  0.23369878769E+03  0.26876885238E+03  0.12506950708E+03 0.  0.
          5    1    4    4  502    0  0.41529638864E+02  0.12654112063E+02  0.27585898971E+02  0.51651808084E+02  0.47000000000E+01 0.  1.
         -5    1    4    4    0  502 -0.17047614803E+01  0.71744074022E+01  0.33034665397E+03  0.33046237323E+03  0.47000000000E+01 0.  1.
          5    1    5    5  503    0 -0.34259584530E+02 -0.55746360666E+02  0.22011636215E+03  0.22968386697E+03  0.47000000000E+01 0. -1.
         -5    1    5    5    0  503 -0.55652928542E+01  0.35917841201E+02  0.13582425535E+02  0.39084985410E+02  0.47000000000E+01 0. -1.
<mgrwt>
<rscale>  0 0.27133205E+03</rscale>
<asrwt>0</asrwt>
<pdfrwt beam="1">  1        1 0.45578230E-02 0.27133205E+03</pdfrwt>
<pdfrwt beam="2">  1       -1 0.95578019E-01 0.27133205E+03</pdfrwt>
<totfact> 0.21071853E+03</totfact>
</mgrwt>
</event>
<event>
 9    1  0.7997082E-001  0.2775339E+03  0.7818608E-02  0.1097044E+00
          2   -1    0    0  501    0  0.00000000000E+00  0.00000000000E+00  0.15203424115E+03  0.15203424115E+03  0.00000000000E+00 0.  1.
         -2   -1    0    0    0  501 -0.00000000000E+00 -0.00000000000E+00 -0.12665743029E+03  0.12665743029E+03  0.00000000000E+00 0.  1.
         35    2    1    2    0    0  0.71054273576E-14  0.26645352591E-14  0.25376810857E+02  0.27869167144E+03  0.27753389919E+03 0.  0.
         25    2    3    3    0    0  0.20061373758E+01 -0.46992298486E+01 -0.47076454384E+02  0.13379247341E+03  0.12513243399E+03 0.  0.
         25    2    3    3    0    0 -0.20061373758E+01  0.46992298486E+01  0.72453265241E+02  0.14489919802E+03  0.12538020017E+03 0.  0.
          5    1    4    4  502    0  0.54909668415E+02 -0.13069663652E+02 -0.55582791162E+02  0.79356313339E+02  0.47000000000E+01 0. -1.
         -5    1    4    4    0  502 -0.52903531039E+02  0.83704338030E+01  0.85063367775E+01  0.54436160076E+02  0.47000000000E+01 0. -1.
          5    1    5    5  503    0  0.56917916473E+02  0.46194093360E+01  0.86931467859E+01  0.57953851980E+02  0.47000000000E+01 0. -1.
         -5    1    5    5    0  503 -0.58924053849E+02  0.79820512625E-01  0.63760118455E+02  0.86945346044E+02  0.47000000000E+01 0. -1.
<mgrwt>
<rscale>  0 0.27753390E+03</rscale>
<asrwt>0</asrwt>
<pdfrwt beam="1">  1        2 0.23389883E-01 0.27753390E+03</pdfrwt>
<pdfrwt beam="2">  1       -2 0.19485759E-01 0.27753390E+03</pdfrwt>
<totfact> 0.50675895E+03</totfact>
</mgrwt>
</event>
<event>
 9    1  0.7997082E-001  0.2758335E+03  0.7818608E-02  0.1097987E+00
         -4   -1    0    0    0  501 -0.00000000000E+00  0.00000000000E+00  0.65711345500E+03  0.65711345500E+03  0.00000000000E+00 0.  1.
          4   -1    0    0  501    0  0.00000000000E+00 -0.00000000000E+00 -0.28946335792E+02  0.28946335792E+02  0.00000000000E+00 0.  1.
         35    2    1    2    0    0  0.00000000000E+00 -0.35527136788E-14  0.62816711921E+03  0.68605979080E+03  0.27583347674E+03 0.  0.
         25    2    3    3    0    0 -0.44966786260E+02 -0.18270323824E+02  0.38830899413E+03  0.41091214231E+03  0.12533593731E+03 0.  0.
         25    2    3    3    0    0  0.44966786260E+02  0.18270323824E+02  0.23985812508E+03  0.27514764848E+03  0.12577158541E+03 0.  0.
          5    1    4    4  502    0 -0.87627817697E+02 -0.10889883919E+02  0.22115222148E+03  0.23817560554E+03  0.47000000000E+01 0.  1.
         -5    1    4    4    0  502  0.42661031437E+02 -0.73804399051E+01  0.16715677265E+03  0.17273653678E+03  0.47000000000E+01 0.  1.
          5    1    5    5  503    0 -0.14105559749E+02  0.56237532181E+02  0.15085029286E+03  0.16167723309E+03  0.47000000000E+01 0.  1.
         -5    1    5    5    0  503  0.59072346009E+02 -0.37967208357E+02  0.89007832220E+02  0.11347041539E+03  0.47000000000E+01 0.  1.
<mgrwt>
<rscale>  0 0.27583348E+03</rscale>
<asrwt>0</asrwt>
<pdfrwt beam="1">  1        4 0.44532829E-02 0.27583348E+03</pdfrwt>
<pdfrwt beam="2">  1       -4 0.10109437E+00 0.27583348E+03</pdfrwt>
<totfact> 0.44888654E+02</totfact>
</mgrwt>
</event>
<event>
 9    1  0.7997082E-001  0.2727499E+03  0.7818608E-02  0.1099716E+00
          1   -1    0    0  501    0  0.00000000000E+00  0.00000000000E+00  0.13327241100E+03  0.13327241100E+03  0.00000000000E+00 0.  1.
         -1   -1    0    0    0  501 -0.00000000000E+00 -0.00000000000E+00 -0.13954974929E+03  0.13954974929E+03  0.00000000000E+00 0.  1.
         35    2    1    2    0    0 -0.17763568394E-14  0.00000000000E+00 -0.62773382883E+01  0.27282216028E+03  0.27274993339E+03 0.  0.
         25    2    3    3    0    0  0.60584485905E+01 -0.48569073481E+02 -0.27296277159E+02  0.13781181467E+03  0.12590214381E+03 0.  0.
         25    2    3    3    0    0 -0.60584485905E+01  0.48569073481E+02  0.21018938871E+02  0.13501034562E+03  0.12405780078E+03 0.  0.
          5    1    4    4  502    0  0.62525828566E+02 -0.47008289620E+02 -0.14390761143E+02  0.79677114262E+02  0.47000000000E+01 0. -1.
         -5    1    4    4    0  502 -0.56467379976E+02 -0.15607838608E+01 -0.12905516016E+02  0.58134700405E+02  0.47000000000E+01 0. -1.
          5    1    5    5  503    0 -0.12705503776E+02 -0.38468803687E+02 -0.10448322857E+02  0.42101498000E+02  0.47000000000E+01 0.  1.
         -5    1    5    5    0  503  0.66470551856E+01  0.87037877168E+02  0.31467261728E+02  0.92908847615E+02  0.47000000000E+01 0.  1.
<mgrwt>
<rscale>  0 0.27274993E+03</rscale>
<asrwt>0</asrwt>
<pdfrwt beam="1">  1        1 0.20503448E-01 0.27274993E+03</pdfrwt>
<pdfrwt beam="2">  1       -1 0.21469192E-01 0.27274993E+03</pdfrwt>
<totfact> 0.44062015E+03</totfact>
</mgrwt>
</event>
<event>
 9    1  0.7997082E-001  0.2792831E+03  0.7818608E-02  0.1096081E+00
          2   -1    0    0  501    0  0.00000000000E+00  0.00000000000E+00  0.55417195428E+03  0.55417195428E+03  0.00000000000E+00 0.  1.
         -2   -1    0    0    0  501 -0.00000000000E+00 -0.00000000000E+00 -0.35187216937E+02  0.35187216937E+02  0.00000000000E+00 0.  1.
         35    2    1    2    0    0  0.35527136788E-14  0.00000000000E+00  0.51898473734E+03  0.58935917122E+03  0.27928314504E+03 0.  0.
         25    2    3    3    0    0  0.16900746493E+02  0.42137938469E+02  0.34114585809E+03  0.36677065834E+03  0.12680291098E+03 0.  0.
         25    2    3    3    0    0 -0.16900746493E+02 -0.42137938469E+02  0.17783887925E+03  0.22258851288E+03  0.12592751091E+03 0.  0.
          5    1    4    4  502    0  0.30256182379E+02  0.72526610982E+02  0.31374892288E+03  0.32347491786E+03  0.47000000000E+01 0. -1.
         -5    1    4    4    0  502 -0.13355435885E+02 -0.30388672513E+02  0.27396935210E+02  0.43295740480E+02  0.47000000000E+01 0. -1.
          5    1    5    5  503    0 -0.59652438321E+02 -0.59642798069E+02  0.13588494828E+03  0.16000776834E+03  0.47000000000E+01 0.  1.
         -5    1    5    5    0  503  0.42751691828E+02  0.17504859600E+02  0.41953930972E+02  0.62580744545E+02  0.47000000000E+01 0.  1.
<mgrwt>
<rscale>  0 0.27928315E+03</rscale>
<asrwt>0</asrwt>
<pdfrwt beam="1">  1        2 0.85257217E-01 0.27928315E+03</pdfrwt>
<pdfrwt beam="2">  1       -2 0.54134184E-02 0.27928315E+03</pdfrwt>
<totfact> 0.95541127E+03</totfact>
</mgrwt>
</event>
<event>
 9    1  0.7997082E-001  0.2745575E+03  0.7818608E-02  0.1098699E+00
         -2   -1    0    0    0  501 -0.00000000000E+00  0.00000000000E+00  0.44351582408E+02  0.44351582408E+02  0.00000000000E+00 0.  1.
          2   -1    0    0  501    0  0.00000000000E+00 -0.00000000000E+00 -0.42491060322E+03  0.42491060322E+03  0.00000000000E+00 0.  1.
         35    2    1    2    0    0 -0.71054273576E-14  0.00000000000E+00 -0.38055902081E+03  0.46926218563E+03  0.27455751773E+03 0.  0.
         25    2    3    3    0    0 -0.50209845393E+02  0.35260931079E+01 -0.14976506636E+03  0.20185774398E+03  0.12563244722E+03 0.  0.
         25    2    3    3    0    0  0.50209845393E+02 -0.35260931079E+01 -0.23079395445E+03  0.26740444165E+03  0.12532287938E+03 0.  0.
          5    1    4    4  502    0 -0.43318777674E+02 -0.52495351769E+02 -0.11959203388E+03  0.13768305279E+03  0.47000000000E+01 0. -1.
         -5    1    4    4    0  502 -0.68910677190E+01  0.56021444877E+02 -0.30173032477E+02  0.64174691189E+02  0.47000000000E+01 0. -1.
          5    1    5    5  503    0 -0.12763971478E+02 -0.50289266262E+02 -0.60390753697E+02  0.79756268727E+02  0.47000000000E+01 0. -1.
         -5    1    5    5    0  503  0.62973816871E+02  0.46763173154E+02 -0.17040320075E+03  0.18764817292E+03  0.47000000000E+01 0. -1.
<mgrwt>
<rscale>  0 0.27455752E+03</rscale>
<asrwt>0</asrwt>
<pdfrwt beam="1">  1        2 0.65370862E-01 0.27455752E+03</pdfrwt>
<pdfrwt beam="2">  1       -2 0.68233204E-02 0.27455752E+03</pdfrwt>
<totfact> 0.89972722E+03</totfact>
</mgrwt>
</event>
<event>
 9    1  0.7997082E-001  0.2703676E+03  0.7818608E-02  0.1101069E+00
         -1   -1    0    0    0  501 -0.00000000000E+00  0.00000000000E+00  0.22608248656E+02  0.22608248656E+02  0.00000000000E+00 0.  1.
          1   -1    0    0  501    0  0.00000000000E+00 -0.00000000000E+00 -0.80831806390E+03  0.80831806390E+03  0.00000000000E+00 0.  1.
         35    2    1    2    0    0  0.71054273576E-14 -0.35527136788E-14 -0.78570981524E+03  0.83092631255E+03  0.27036757040E+03 0.  0.
         25    2    3    3    0    0 -0.54460447026E+02 -0.58685253848E+01 -0.41299905909E+03  0.43457141986E+03  0.12362732817E+03 0.  0.
         25    2    3    3    0    0  0.54460447026E+02  0.58685253848E+01 -0.37271075615E+03  0.39635489269E+03  0.12322139964E+03 0.  0.
          5    1    4    4  502    0 -0.36791872430E+02 -0.22559652602E+00 -0.41376294711E+03  0.41542214574E+03  0.47000000000E+01 0. -1.
         -5    1    4    4    0  502 -0.17668574595E+02 -0.56429288588E+01  0.76388802109E+00  0.19149274118E+02  0.47000000000E+01 0. -1.
          5    1    5    5  503    0 -0.52754539992E+01  0.20241759104E+02 -0.31232734990E+01  0.21665734787E+02  0.47000000000E+01 0. -1.
         -5    1    5    5    0  503  0.59735901025E+02 -0.14373233719E+02 -0.36958748265E+03  0.37468915791E+03  0.47000000000E+01 0. -1.
<mgrwt>
<rscale>  0 0.27036757E+03</rscale>
<asrwt>0</asrwt>
<pdfrwt beam="1">  1        1 0.12435659E+00 0.27036757E+03</pdfrwt>
<pdfrwt beam="2">  1       -1 0.34781929E-02 0.27036757E+03</pdfrwt>
<totfact> 0.68502504E+03</totfact>
</mgrwt>
</event>
<event>
 9    1  0.7997082E-001  0.2911136E+03  0.7818608E-02  0.1089769E+00
         -2   -1    0    0    0  501 -0.00000000000E+00  0.00000000000E+00  0.21683672441E+02  0.21683672441E+02  0.00000000000E+00 0.  1.
          2   -1    0    0  501    0  0.00000000000E+00 -0.00000000000E+00 -0.97708479679E+03  0.97708479679E+03  0.00000000000E+00 0.  1.
         35    2    1    2    0    0  0.00000000000E+00  0.00000000000E+00 -0.95540112434E+03  0.99876846923E+03  0.29111363198E+03 0.  0.
         25    2    3    3    0    0 -0.65139914659E+02  0.35977724047E+02 -0.40482062785E+03  0.42952163660E+03  0.12276599879E+03 0.  0.
         25    2    3    3    0    0  0.65139914659E+02 -0.35977724047E+02 -0.55058049649E+03  0.56924683263E+03  0.12395752592E+03 0.  0.
          5    1    4    4  502    0 -0.10356668070E+02  0.13109661795E+02  0.27948793518E+01  0.17579111368E+02  0.47000000000E+01 0.  1.
         -5    1    4    4    0  502 -0.54783246589E+02  0.22868062252E+02 -0.40761550720E+03  0.41194252523E+03  0.47000000000E+01 0.  1.
          5    1    5    5  503    0  0.64053169865E+02  0.39176255142E+01 -0.50241527981E+03  0.50651886416E+03  0.47000000000E+01 0. -1.
         -5    1    5    5    0  503  0.10867447941E+01 -0.39895349561E+02 -0.48165216679E+02  0.62727968472E+02  0.47000000000E+01 0. -1.
<mgrwt>
<rscale>  0 0.29111363E+03</rscale>
<asrwt>0</asrwt>
<pdfrwt beam="1">  1        2 0.15032072E+00 0.29111363E+03</pdfrwt>
<pdfrwt beam="2">  1       -2 0.33359500E-02 0.29111363E+03</pdfrwt>
<totfact> 0.97993145E+03</totfact>
</mgrwt>
</event>
<event>
 9    1  0.7997082E-001  0.2757542E+03  0.7818608E-02  0.1098031E+00
         -2   -1    0    0    0  501 -0.00000000000E+00  0.00000000000E+00  0.17271764031E+02  0.17271764031E+02  0.00000000000E+00 0.  1.
          2   -1    0    0  501    0  0.00000000000E+00 -0.00000000000E+00 -0.11006458160E+04  0.11006458160E+04  0.00000000000E+00 0.  1.
         35    2    1    2    0    0  0.71054273576E-14  0.00000000000E+00 -0.10833740520E+04  0.11179175801E+04  0.27575420081E+03 0.  0.
         25    2    3    3    0    0 -0.44463446979E+01  0.38814786719E+01 -0.27861601329E+03  0.30354582175E+03  0.12032600379E+03 0.  0.
         25    2    3    3    0    0  0.44463446979E+01 -0.38814786719E+01 -0.80475803871E+03  0.81437175830E+03  0.12462352906E+03 0.  0.
          5    1    4    4  502    0  0.54038552415E+02  0.17057402353E+02 -0.17180724487E+03  0.18097220646E+03  0.47000000000E+01 0.  1.
         -5    1    4    4    0  502 -0.58484897113E+02 -0.13175923681E+02 -0.10680876842E+03  0.12257361529E+03  0.47000000000E+01 0.  1.
          5    1    5    5  503    0 -0.19348531540E+02 -0.54318811765E+02 -0.24118265857E+03  0.24802432094E+03  0.47000000000E+01 0.  1.
         -5    1    5    5    0  503  0.23794876238E+02  0.50437333093E+02 -0.56357538014E+03  0.56634743736E+03  0.47000000000E+01 0.  1.
<mgrwt>
<rscale>  0 0.27575420E+03</rscale>
<asrwt>0</asrwt>
<pdfrwt beam="1">  1        2 0.16933018E+00 0.27575420E+03</pdfrwt>
<pdfrwt beam="2">  1       -2 0.26571937E-02 0.27575420E+03</pdfrwt>
<totfact> 0.11564915E+04</totfact>
</mgrwt>
</event>
<event>
 9    1  0.7997082E-001  0.2620805E+03  0.7818608E-02  0.1105900E+00
          1   -1    0    0  501    0  0.00000000000E+00  0.00000000000E+00  0.24424157769E+03  0.24424157769E+03  0.00000000000E+00 0.  1.
         -1   -1    0    0    0  501 -0.00000000000E+00 -0.00000000000E+00 -0.70305600293E+02  0.70305600293E+02  0.00000000000E+00 0.  1.
         35    2    1    2    0    0  0.17763568394E-14  0.00000000000E+00  0.17393597740E+03  0.31454717798E+03  0.26208052759E+03 0.  0.
         25    2    3    3    0    0 -0.66372172042E+01  0.29627838921E+02  0.94585581909E+02  0.16000588932E+03  0.12543361120E+03 0.  0.
         25    2    3    3    0    0  0.66372172042E+01 -0.29627838921E+02  0.79350395490E+02  0.15454128867E+03  0.12909168504E+03 0.  0.
          5    1    4    4  502    0 -0.19691851806E+02 -0.37384251105E+02 -0.90751583007E+00  0.42523697431E+02  0.47000000000E+01 0. -1.
         -5    1    4    4    0  502  0.13054634602E+02  0.67012090026E+02  0.95493097739E+02  0.11748219189E+03  0.47000000000E+01 0. -1.
          5    1    5    5  503    0  0.37946338015E+02 -0.43687309740E+02  0.98961278804E+02  0.11473417234E+03  0.47000000000E+01 0.  1.
         -5    1    5    5    0  503 -0.31309120811E+02  0.14059470819E+02 -0.19610883314E+02  0.39807116324E+02  0.47000000000E+01 0.  1.
<mgrwt>
<rscale>  0 0.26208053E+03</rscale>
<asrwt>0</asrwt>
<pdfrwt beam="1">  1        1 0.37575627E-01 0.26208053E+03</pdfrwt>
<pdfrwt beam="2">  1       -1 0.10816246E-01 0.26208053E+03</pdfrwt>
<totfact> 0.60738710E+03</totfact>
</mgrwt>
</event>
<event>
 9    1  0.7997082E-001  0.2697628E+03  0.7818608E-02  0.1101415E+00
         -2   -1    0    0    0  501 -0.00000000000E+00  0.00000000000E+00  0.40636477484E+02  0.40636477484E+02  0.00000000000E+00 0. -1.
          2   -1    0    0  501    0  0.00000000000E+00 -0.00000000000E+00 -0.44770100066E+03  0.44770100066E+03  0.00000000000E+00 0. -1.
         35    2    1    2    0    0  0.71054273576E-14  0.71054273576E-14 -0.40706452318E+03  0.48833747815E+03  0.26976279679E+03 0.  0.
         25    2    3    3    0    0 -0.39832650620E+02 -0.22299644699E+02 -0.16066264522E+03  0.20837007024E+03  0.12458606019E+03 0.  0.
         25    2    3    3    0    0  0.39832650620E+02  0.22299644699E+02 -0.24640187796E+03  0.27996740790E+03  0.12483569128E+03 0.  0.
          5    1    4    4  502    0 -0.70315516848E+02  0.16207544429E+02 -0.52110491494E+02  0.89132203662E+02  0.47000000000E+01 0. -1.
         -5    1    4    4    0  502  0.30482866228E+02 -0.38507189128E+02 -0.10855215373E+03  0.11923786658E+03  0.47000000000E+01 0. -1.
          5    1    5    5  503    0 -0.60864247445E+01 -0.45970861620E+02 -0.12340910986E+03  0.13191763749E+03  0.47000000000E+01 0.  1.
         -5    1    5    5    0  503  0.45919075364E+02  0.68270506319E+02 -0.12299276810E+03  0.14804977042E+03  0.47000000000E+01 0.  1.
<mgrwt>
<rscale>  0 0.26976280E+03</rscale>
<asrwt>0</asrwt>
<pdfrwt beam="1">  1        2 0.68877072E-01 0.26976280E+03</pdfrwt>
<pdfrwt beam="2">  1       -2 0.62517662E-02 0.26976280E+03</pdfrwt>
<totfact> 0.97163496E+03</totfact>
</mgrwt>
</event>
<event>
 9    1  0.7997082E-001  0.2739317E+03  0.7818608E-02  0.1099050E+00
          2   -1    0    0  501    0  0.00000000000E+00  0.00000000000E+00  0.60275471435E+02  0.60275471435E+02  0.00000000000E+00 0.  1.
         -2   -1    0    0    0  501 -0.00000000000E+00 -0.00000000000E+00 -0.31123183343E+03  0.31123183343E+03  0.00000000000E+00 0.  1.
         35    2    1    2    0    0  0.00000000000E+00  0.00000000000E+00 -0.25095636200E+03  0.37150730487E+03  0.27393171036E+03 0.  0.
         25    2    3    3    0    0 -0.86801460149E+01 -0.53188415730E+02 -0.13430036011E+03  0.19152020871E+03  0.12545537499E+03 0.  0.
         25    2    3    3    0    0  0.86801460149E+01  0.53188415730E+02 -0.11665600189E+03  0.17998709616E+03  0.12602531295E+03 0.  0.
          5    1    4    4  502    0 -0.14088241556E+02 -0.88510544080E+02 -0.57239192110E+02  0.10644721733E+03  0.47000000000E+01 0.  1.
         -5    1    4    4    0  502  0.54080955408E+01  0.35322128350E+02 -0.77061167999E+02  0.85072991377E+02  0.47000000000E+01 0.  1.
          5    1    5    5  503    0 -0.12799107596E+02  0.50052244545E+02  0.87679185116E+01  0.52611887766E+02  0.47000000000E+01 0.  1.
         -5    1    5    5    0  503  0.21479253610E+02  0.31361711847E+01 -0.12542392040E+03  0.12737520839E+03  0.47000000000E+01 0.  1.
<mgrwt>
<rscale>  0 0.27393171E+03</rscale>
<asrwt>0</asrwt>
<pdfrwt beam="1">  1        2 0.92731495E-02 0.27393171E+03</pdfrwt>
<pdfrwt beam="2">  1       -2 0.47881820E-01 0.27393171E+03</pdfrwt>
<totfact> 0.29399041E+03</totfact>
</mgrwt>
</event>
<event>
 9    1  0.7997082E-001  0.2759413E+03  0.7818608E-02  0.1097927E+00
          4   -1    0    0  501    0  0.00000000000E+00  0.00000000000E+00  0.10098462860E+04  0.10098462860E+04  0.00000000000E+00 0.  1.
         -4   -1    0    0    0  501 -0.00000000000E+00 -0.00000000000E+00 -0.18850291047E+02  0.18850291047E+02  0.00000000000E+00 0.  1.
         35    2    1    2    0    0 -0.71054273576E-14  0.00000000000E+00  0.99099599499E+03  0.10286965771E+04  0.27594127204E+03 0.  0.
         25    2    3    3    0    0 -0.99919282708E+01 -0.51341879222E+01  0.27981611987E+03  0.30669594211E+03  0.12505655300E+03 0.  0.
         25    2    3    3    0    0  0.99919282708E+01  0.51341879222E+01  0.71117987512E+03  0.72200063498E+03  0.12402380264E+03 0.  0.
          5    1    4    4  502    0  0.55087116490E+02  0.12142707804E+02  0.15112550770E+03  0.16137857612E+03  0.47000000000E+01 0.  1.
         -5    1    4    4    0  502 -0.65079044761E+02 -0.17276895726E+02  0.12869061218E+03  0.14531736598E+03  0.47000000000E+01 0.  1.
          5    1    5    5  503    0  0.32062834603E+02  0.57020153051E+02  0.31096499051E+03  0.31780597625E+03  0.47000000000E+01 0. -1.
         -5    1    5    5    0  503 -0.22070906332E+02 -0.51885965129E+02  0.40021488461E+03  0.40419465874E+03  0.47000000000E+01 0. -1.
<mgrwt>
<rscale>  0 0.27594127E+03</rscale>
<asrwt>0</asrwt>
<pdfrwt beam="1">  1        4 0.15536093E+00 0.27594127E+03</pdfrwt>
<pdfrwt beam="2">  1       -4 0.29000456E-02 0.27594127E+03</pdfrwt>
<totfact> 0.30752497E+02</totfact>
</mgrwt>
</event>
<event>
 9    1  0.7997082E-001  0.2723425E+03  0.7818608E-02  0.1099946E+00
          2   -1    0    0  501    0  0.00000000000E+00  0.00000000000E+00  0.52201242205E+02  0.52201242205E+02  0.00000000000E+00 0. -1.
         -2   -1    0    0    0  501 -0.00000000000E+00 -0.00000000000E+00 -0.35521387809E+03  0.35521387809E+03  0.00000000000E+00 0. -1.
         35    2    1    2    0    0  0.71054273576E-14 -0.88817841970E-15 -0.30301263588E+03  0.40741512029E+03  0.27234247325E+03 0.  0.
         25    2    3    3    0    0  0.60538898731E+02 -0.49547184459E+01 -0.14412708943E+03  0.19762629296E+03  0.12080573773E+03 0.  0.
         25    2    3    3    0    0 -0.60538898731E+02  0.49547184459E+01 -0.15888554646E+03  0.20978882733E+03  0.12278936317E+03 0.  0.
          5    1    4    4  502    0  0.70810220799E+02 -0.34139572012E+01 -0.21160397607E+02  0.74132279746E+02  0.47000000000E+01 0. -1.
         -5    1    4    4    0  502 -0.10271322068E+02 -0.15407612447E+01 -0.12296669182E+03  0.12349401321E+03  0.47000000000E+01 0. -1.
          5    1    5    5  503    0 -0.46387621749E+02 -0.97342997851E+01  0.18789277543E+01  0.47667477522E+02  0.47000000000E+01 0. -1.
         -5    1    5    5    0  503 -0.14151276983E+02  0.14689018231E+02 -0.16076447421E+03  0.16212134981E+03  0.47000000000E+01 0. -1.
<mgrwt>
<rscale>  0 0.27234247E+03</rscale>
<asrwt>0</asrwt>
<pdfrwt beam="1">  1        2 0.80309601E-02 0.27234247E+03</pdfrwt>
<pdfrwt beam="2">  1       -2 0.54648290E-01 0.27234247E+03</pdfrwt>
<totfact> 0.27039100E+03</totfact>
</mgrwt>
</event>
<event>
 9    1  0.7997082E-001  0.2794764E+03  0.7818608E-02  0.1095975E+00
         -2   -1    0    0    0  501 -0.00000000000E+00  0.00000000000E+00  0.79877292573E+01  0.79877292573E+01  0.00000000000E+00 0.  1.
          2   -1    0    0  501    0  0.00000000000E+00 -0.00000000000E+00 -0.24445945987E+04  0.24445945987E+04  0.00000000000E+00 0.  1.
         35    2    1    2    0    0  0.00000000000E+00  0.00000000000E+00 -0.24366068695E+04  0.24525823280E+04  0.27947636607E+03 0.  0.
         25    2    3    3    0    0  0.83380706921E+01  0.56958206765E+02 -0.14439067918E+04  0.14504305297E+04  0.12477234118E+03 0.  0.
         25    2    3    3    0    0 -0.83380706921E+01 -0.56958206765E+02 -0.99270007763E+03  0.10021517983E+04  0.12466363546E+03 0.  0.
          5    1    4    4  502    0 -0.24236375849E+01  0.76948099025E+02 -0.47302551209E+03  0.47927247893E+03  0.47000000000E+01 0. -1.
         -5    1    4    4    0  502  0.10761708277E+02 -0.19989892260E+02 -0.97088127975E+03  0.97115805075E+03  0.47000000000E+01 0. -1.
          5    1    5    5  503    0 -0.56758438612E+02 -0.43354062202E+02 -0.79063709768E+03  0.79387039577E+03  0.47000000000E+01 0.  1.
         -5    1    5    5    0  503  0.48420367920E+02 -0.13604144563E+02 -0.20206297996E+03  0.20828140255E+03  0.47000000000E+01 0.  1.
<mgrwt>
<rscale>  0 0.27947637E+03</rscale>
<asrwt>0</asrwt>
<pdfrwt beam="1">  1        2 0.37609196E+00 0.27947637E+03</pdfrwt>
<pdfrwt beam="2">  1       -2 0.12288799E-02 0.27947637E+03</pdfrwt>
<totfact> 0.67905553E+03</totfact>
</mgrwt>
</event>
<event>
 9    1  0.7997082E-001  0.2764773E+03  0.7818608E-02  0.1097629E+00
         -1   -1    0    0    0  501 -0.00000000000E+00  0.00000000000E+00  0.20811653814E+03  0.20811653814E+03  0.00000000000E+00 0.  1.
          1   -1    0    0  501    0  0.00000000000E+00 -0.00000000000E+00 -0.91823158670E+02  0.91823158670E+02  0.00000000000E+00 0.  1.
         35    2    1    2    0    0  0.00000000000E+00  0.35527136788E-14  0.11629337947E+03  0.29993969680E+03  0.27647725334E+03 0.  0.
         25    2    3    3    0    0 -0.52205853944E+02  0.22593270491E+01  0.92829325083E+02  0.16216661231E+03  0.12227089108E+03 0.  0.
         25    2    3    3    0    0  0.52205853944E+02 -0.22593270491E+01  0.23464054382E+02  0.13777308450E+03  0.12530085881E+03 0.  0.
          5    1    4    4  502    0 -0.60776994467E+02  0.36548312739E+02  0.97265340711E+01  0.71737839984E+02  0.47000000000E+01 0. -1.
         -5    1    4    4    0  502  0.85711405235E+01 -0.34288985690E+02  0.83102791012E+02  0.90428772321E+02  0.47000000000E+01 0. -1.
          5    1    5    5  503    0  0.33041612373E+02 -0.24915214574E+02 -0.46022255312E+02  0.62069751485E+02  0.47000000000E+01 0.  1.
         -5    1    5    5    0  503  0.19164241571E+02  0.22655887525E+02  0.69486309694E+02  0.75703333014E+02  0.47000000000E+01 0.  1.
<mgrwt>
<rscale>  0 0.27647725E+03</rscale>
<asrwt>0</asrwt>
<pdfrwt beam="1">  1        1 0.14126640E-01 0.27647725E+03</pdfrwt>
<pdfrwt beam="2">  1       -1 0.32017929E-01 0.27647725E+03</pdfrwt>
<totfact> 0.36669519E+03</totfact>
</mgrwt>
</event>
<event>
 9    1  0.7997082E-001  0.2757084E+03  0.7818608E-02  0.1098056E+00
          3   -1    0    0  501    0  0.00000000000E+00  0.00000000000E+00  0.19997320911E+02  0.19997320911E+02  0.00000000000E+00 0.  1.
         -3   -1    0    0    0  501 -0.00000000000E+00 -0.00000000000E+00 -0.95031628841E+03  0.95031628841E+03  0.00000000000E+00 0.  1.
         35    2    1    2    0    0  0.00000000000E+00 -0.71054273576E-14 -0.93031896750E+03  0.97031360932E+03  0.27570839513E+03 0.  0.
         25    2    3    3    0    0  0.33016155345E+02  0.48380010247E+02 -0.51488279101E+03  0.53310144160E+03  0.12514857829E+03 0.  0.
         25    2    3    3    0    0 -0.33016155345E+02 -0.48380010247E+02 -0.41543617649E+03  0.43721216773E+03  0.12303077244E+03 0.  0.
          5    1    4    4  502    0 -0.37228649289E+02  0.39911193244E+02 -0.12013675588E+03  0.13203713791E+03  0.47000000000E+01 0. -1.
         -5    1    4    4    0  502  0.70244804635E+02  0.84688170023E+01 -0.39474603514E+03  0.40106430369E+03  0.47000000000E+01 0. -1.
          5    1    5    5  503    0 -0.20182786575E+02  0.31357296448E+02 -0.47944830604E+02  0.60921438724E+02  0.47000000000E+01 0.  1.
         -5    1    5    5    0  503 -0.12833368770E+02 -0.79737306695E+02 -0.36749134588E+03  0.37629072900E+03  0.47000000000E+01 0.  1.
<mgrwt>
<rscale>  0 0.27570840E+03</rscale>
<asrwt>0</asrwt>
<pdfrwt beam="1">  1        3 0.30765115E-02 0.27570840E+03</pdfrwt>
<pdfrwt beam="2">  1       -3 0.14620248E+00 0.27570840E+03</pdfrwt>
<totfact> 0.45313333E+02</totfact>
</mgrwt>
</event>
<event>
 9    1  0.7997082E-001  0.2747187E+03  0.7818608E-02  0.1098609E+00
         -1   -1    0    0    0  501 -0.00000000000E+00  0.00000000000E+00  0.49388943218E+02  0.49388943218E+02  0.00000000000E+00 0. -1.
          1   -1    0    0  501    0  0.00000000000E+00 -0.00000000000E+00 -0.38202052528E+03  0.38202052528E+03  0.00000000000E+00 0. -1.
         35    2    1    2    0    0  0.00000000000E+00 -0.35527136788E-14 -0.33263158206E+03  0.43140946849E+03  0.27471869271E+03 0.  0.
         25    2    3    3    0    0  0.49113183002E+02  0.15997444216E+02 -0.21098764795E+03  0.25012007617E+03  0.12400097560E+03 0.  0.
         25    2    3    3    0    0 -0.49113183002E+02 -0.15997444216E+02 -0.12164393411E+03  0.18128939232E+03  0.12409904954E+03 0.  0.
          5    1    4    4  502    0  0.62580565443E+02  0.38340372767E+02 -0.21117228174E+03  0.22361156932E+03  0.47000000000E+01 0. -1.
         -5    1    4    4    0  502 -0.13467382441E+02 -0.22342928551E+02  0.18463379229E+00  0.26508506855E+02  0.47000000000E+01 0. -1.
          5    1    5    5  503    0 -0.12778058773E+02 -0.53409454434E+02 -0.11624216314E+03  0.12864749940E+03  0.47000000000E+01 0. -1.
         -5    1    5    5    0  503 -0.36335124229E+02  0.37412010218E+02 -0.54017709633E+01  0.52641892926E+02  0.47000000000E+01 0. -1.
<mgrwt>
<rscale>  0 0.27471869E+03</rscale>
<asrwt>0</asrwt>
<pdfrwt beam="1">  1        1 0.58772386E-01 0.27471869E+03</pdfrwt>
<pdfrwt beam="2">  1       -1 0.75982992E-02 0.27471869E+03</pdfrwt>
<totfact> 0.59566236E+03</totfact>
</mgrwt>
</event>
<event>
 9    1  0.7997082E-001  0.2742257E+03  0.7818608E-02  0.1098885E+00
         -1   -1    0    0    0  501 -0.00000000000E+00  0.00000000000E+00  0.14558683258E+02  0.14558683258E+02  0.00000000000E+00 0. -1.
          1   -1    0    0  501    0  0.00000000000E+00 -0.00000000000E+00 -0.12913206967E+04  0.12913206967E+04  0.00000000000E+00 0. -1.
         35    2    1    2    0    0  0.00000000000E+00  0.00000000000E+00 -0.12767620134E+04  0.13058793800E+04  0.27422566625E+03 0.  0.
         25    2    3    3    0    0 -0.92525943660E+01  0.50669562486E+02 -0.52109967508E+03  0.53823989205E+03  0.12451624377E+03 0.  0.
         25    2    3    3    0    0  0.92525943660E+01 -0.50669562486E+02 -0.75566233836E+03  0.76763948790E+03  0.12486712421E+03 0.  0.
          5    1    4    4  502    0 -0.51891768558E+02  0.60027800543E+02 -0.21925546390E+03  0.23321908355E+03  0.47000000000E+01 0. -1.
         -5    1    4    4    0  502  0.42639174192E+02 -0.93582380574E+01 -0.30184421118E+03  0.30502080850E+03  0.47000000000E+01 0. -1.
          5    1    5    5  503    0  0.61430206338E+02 -0.28016858669E+02 -0.55188894875E+03  0.55602348545E+03  0.47000000000E+01 0. -1.
         -5    1    5    5    0  503 -0.52177611972E+02 -0.22652703817E+02 -0.20377338961E+03  0.21161600246E+03  0.47000000000E+01 0. -1.
<mgrwt>
<rscale>  0 0.27422567E+03</rscale>
<asrwt>0</asrwt>
<pdfrwt beam="1">  1        1 0.19866473E+00 0.27422567E+03</pdfrwt>
<pdfrwt beam="2">  1       -1 0.22397973E-02 0.27422567E+03</pdfrwt>
<totfact> 0.57442659E+03</totfact>
</mgrwt>
</event>
<event>
 9    1  0.7997082E-001  0.2758492E+03  0.7818608E-02  0.1097978E+00
          2   -1    0    0  501    0  0.00000000000E+00  0.00000000000E+00  0.39186549214E+03  0.39186549214E+03  0.00000000000E+00 0. -1.
         -2   -1    0    0    0  501 -0.00000000000E+00 -0.00000000000E+00 -0.48545210475E+02  0.48545210475E+02  0.00000000000E+00 0. -1.
         35    2    1    2    0    0  0.71054273576E-14  0.00000000000E+00  0.34332028166E+03  0.44041070261E+03  0.27584918194E+03 0.  0.
         25    2    3    3    0    0  0.55381459719E+02 -0.13337026069E+01  0.12939763380E+03  0.18616996512E+03  0.12184672107E+03 0.  0.
         25    2    3    3    0    0 -0.55381459719E+02  0.13337026069E+01  0.21392264786E+03  0.25424073749E+03  0.12572417624E+03 0.  0.
          5    1    4    4  502    0  0.21939195156E+01 -0.40481651997E+02  0.10977278543E+03  0.11711418297E+03  0.47000000000E+01 0. -1.
         -5    1    4    4    0  502  0.53187540203E+02  0.39147949390E+02  0.19624848370E+02  0.69055782146E+02  0.47000000000E+01 0. -1.
          5    1    5    5  503    0 -0.79466248528E+02  0.26153278756E+02  0.19967280912E+03  0.21654144948E+03  0.47000000000E+01 0. -1.
         -5    1    5    5    0  503  0.24084788810E+02 -0.24819576149E+02  0.14249838744E+02  0.37699288010E+02  0.47000000000E+01 0. -1.
<mgrwt>
<rscale>  0 0.27584918E+03</rscale>
<asrwt>0</asrwt>
<pdfrwt beam="1">  1        2 0.60286997E-01 0.27584918E+03</pdfrwt>
<pdfrwt beam="2">  1       -2 0.74684942E-02 0.27584918E+03</pdfrwt>
<totfact> 0.85436513E+03</totfact>
</mgrwt>
</event>
<event>
 9    1  0.7997082E-001  0.2778137E+03  0.7818608E-02  0.1096889E+00
          2   -1    0    0  501    0  0.00000000000E+00  0.00000000000E+00  0.22199804659E+04  0.22199804659E+04  0.00000000000E+00 0. -1.
         -2   -1    0    0    0  501 -0.00000000000E+00 -0.00000000000E+00 -0.86915673027E+01  0.86915673027E+01  0.00000000000E+00 0. -1.
         35    2    1    2    0    0  0.00000000000E+00  0.00000000000E+00  0.22112888986E+04  0.22286720332E+04  0.27781367590E+03 0.  0.
         25    2    3    3    0    0  0.26119713271E+02 -0.48540819958E+02  0.13450302659E+04  0.13519350815E+04  0.12483428161E+03 0.  0.
         25    2    3    3    0    0 -0.26119713271E+02  0.48540819958E+02  0.86625863266E+03  0.87673695163E+03  0.12339049023E+03 0.  0.
          5    1    4    4  502    0  0.65128517693E+02 -0.64087865722E+02  0.78523829307E+03  0.79055059626E+03  0.47000000000E+01 0. -1.
         -5    1    4    4    0  502 -0.39008804422E+02  0.15547045764E+02  0.55979197283E+03  0.56138448527E+03  0.47000000000E+01 0. -1.
          5    1    5    5  503    0 -0.72166281297E+02  0.81442009752E+01  0.41801986721E+03  0.42430767086E+03  0.47000000000E+01 0. -1.
         -5    1    5    5    0  503  0.46046568025E+02  0.40396618983E+02  0.44823876544E+03  0.45242928077E+03  0.47000000000E+01 0. -1.
<mgrwt>
<rscale>  0 0.27781368E+03</rscale>
<asrwt>0</asrwt>
<pdfrwt beam="1">  1        2 0.34153501E+00 0.27781368E+03</pdfrwt>
<pdfrwt beam="2">  1       -2 0.13371660E-02 0.27781368E+03</pdfrwt>
<totfact> 0.79314119E+03</totfact>
</mgrwt>
</event>
<event>
 9    1  0.7997082E-001  0.2863039E+03  0.7818608E-02  0.1092295E+00
          2   -1    0    0  501    0  0.00000000000E+00  0.00000000000E+00  0.10489581146E+04  0.10489581146E+04  0.00000000000E+00 0.  1.
         -2   -1    0    0    0  501 -0.00000000000E+00 -0.00000000000E+00 -0.19536036841E+02  0.19536036841E+02  0.00000000000E+00 0.  1.
         35    2    1    2    0    0  0.00000000000E+00 -0.14210854715E-13  0.10294220777E+04  0.10684941514E+04  0.28630392502E+03 0.  0.
         25    2    3    3    0    0 -0.25919908274E+02  0.67498572728E+02  0.46542767270E+03  0.48724186215E+03  0.12471493397E+03 0.  0.
         25    2    3    3    0    0  0.25919908274E+02 -0.67498572728E+02  0.56399440502E+03  0.58125228925E+03  0.12056797210E+03 0.  0.
          5    1    4    4  502    0 -0.43233930657E+02  0.16197122553E+02  0.39772807751E+03  0.40042631430E+03  0.47000000000E+01 0. -1.
         -5    1    4    4    0  502  0.17314022383E+02  0.51301450175E+02  0.67699595182E+02  0.86815547853E+02  0.47000000000E+01 0. -1.
          5    1    5    5  503    0 -0.32490902986E+01 -0.95405030383E+02  0.32258702711E+03  0.33644785104E+03  0.47000000000E+01 0.  1.
         -5    1    5    5    0  503  0.29168998572E+02  0.27906457654E+02  0.24140737791E+03  0.24480443821E+03  0.47000000000E+01 0.  1.
<mgrwt>
<rscale>  0 0.28630393E+03</rscale>
<asrwt>0</asrwt>
<pdfrwt beam="1">  1        2 0.16137813E+00 0.28630393E+03</pdfrwt>
<pdfrwt beam="2">  1       -2 0.30055450E-02 0.28630393E+03</pdfrwt>
<totfact> 0.10345989E+04</totfact>
</mgrwt>
</event>
<event>
 9    1  0.7997082E-001  0.2699869E+03  0.7818608E-02  0.1101287E+00
         -2   -1    0    0    0  501 -0.00000000000E+00  0.00000000000E+00  0.14612914897E+02  0.14612914897E+02  0.00000000000E+00 0.  1.
          2   -1    0    0  501    0  0.00000000000E+00 -0.00000000000E+00 -0.12470630449E+04  0.12470630449E+04  0.00000000000E+00 0.  1.
         35    2    1    2    0    0 -0.35527136788E-14  0.71054273576E-14 -0.12324501300E+04  0.12616759598E+04  0.26998686003E+03 0.  0.
         25    2    3    3    0    0 -0.17634049709E+02 -0.61536305251E+01 -0.39538928388E+03  0.41512352439E+03  0.12508408297E+03 0.  0.
         25    2    3    3    0    0  0.17634049709E+02  0.61536305251E+01 -0.83706084614E+03  0.84655243543E+03  0.12502535309E+03 0.  0.
          5    1    4    4  502    0 -0.23679416225E+02  0.32809290641E+02 -0.38555758233E+02  0.56087438862E+02  0.47000000000E+01 0. -1.
         -5    1    4    4    0  502  0.60453665166E+01 -0.38962921166E+02 -0.35683352565E+03  0.35903608553E+03  0.47000000000E+01 0. -1.
          5    1    5    5  503    0 -0.88755910221E+00 -0.57264246759E+02 -0.30307539544E+03  0.30847490504E+03  0.47000000000E+01 0. -1.
         -5    1    5    5    0  503  0.18521608811E+02  0.63417877284E+02 -0.53398545070E+03  0.53807753039E+03  0.47000000000E+01 0. -1.
<mgrwt>
<rscale>  0 0.26998686E+03</rscale>
<asrwt>0</asrwt>
<pdfrwt beam="1">  1        2 0.19185588E+00 0.26998686E+03</pdfrwt>
<pdfrwt beam="2">  1       -2 0.22481404E-02 0.26998686E+03</pdfrwt>
<totfact> 0.12199201E+04</totfact>
</mgrwt>
</event>
<event>
 9    1  0.7997082E-001  0.2758800E+03  0.7818608E-02  0.1097961E+00
         -2   -1    0    0    0  501 -0.00000000000E+00  0.00000000000E+00  0.38196410512E+02  0.38196410512E+02  0.00000000000E+00 0.  1.
          2   -1    0    0  501    0  0.00000000000E+00 -0.00000000000E+00 -0.49814750259E+03  0.49814750259E+03  0.00000000000E+00 0.  1.
         35    2    1    2    0    0 -0.71054273576E-14  0.00000000000E+00 -0.45995109208E+03  0.53634391310E+03  0.27588002106E+03 0.  0.
         25    2    3    3    0    0  0.39874954646E+02 -0.39013633342E+02 -0.26495708565E+03  0.29809467526E+03  0.12468401094E+03 0.  0.
         25    2    3    3    0    0 -0.39874954646E+02  0.39013633342E+02 -0.19499400643E+03  0.23824923785E+03  0.12501184423E+03 0.  0.
          5    1    4    4  502    0  0.79360562779E+02 -0.50593831858E+02 -0.16720582938E+03  0.19193153500E+03  0.47000000000E+01 0. -1.
         -5    1    4    4    0  502 -0.39485608132E+02  0.11580198517E+02 -0.97751256270E+02  0.10616314026E+03  0.47000000000E+01 0. -1.
          5    1    5    5  503    0  0.27375895648E+02  0.55484088149E+02 -0.59247006530E+02  0.85791733186E+02  0.47000000000E+01 0. -1.
         -5    1    5    5    0  503 -0.67250850295E+02 -0.16470454807E+02 -0.13574699990E+03  0.15245750466E+03  0.47000000000E+01 0. -1.
<mgrwt>
<rscale>  0 0.27588002E+03</rscale>
<asrwt>0</asrwt>
<pdfrwt beam="1">  1        2 0.76638077E-01 0.27588002E+03</pdfrwt>
<pdfrwt beam="2">  1       -2 0.58763709E-02 0.27588002E+03</pdfrwt>
<totfact> 0.95007720E+03</totfact>
</mgrwt>
</event>
<event>
 9    1  0.7997082E-001  0.2827806E+03  0.7818608E-02  0.1094180E+00
         -2   -1    0    0    0  501 -0.00000000000E+00  0.00000000000E+00  0.33698873317E+02  0.33698873317E+02  0.00000000000E+00 0. -1.
          2   -1    0    0  501    0  0.00000000000E+00 -0.00000000000E+00 -0.59323122623E+03  0.59323122623E+03  0.00000000000E+00 0. -1.
         35    2    1    2    0    0  0.35527136788E-14  0.00000000000E+00 -0.55953235291E+03  0.62693009954E+03  0.28278064955E+03 0.  0.
         25    2    3    3    0    0 -0.23858532259E+02  0.18674284749E+02 -0.41084948105E+03  0.43038151039E+03  0.12455115388E+03 0.  0.
         25    2    3    3    0    0  0.23858532259E+02 -0.18674284749E+02 -0.14868287186E+03  0.19654858915E+03  0.12492715094E+03 0.  0.
          5    1    4    4  502    0 -0.68493263220E+02  0.29366951518E+02 -0.17839204292E+03  0.19338964792E+03  0.47000000000E+01 0.  1.
         -5    1    4    4    0  502  0.44634730961E+02 -0.10692666769E+02 -0.23245743814E+03  0.23699186247E+03  0.47000000000E+01 0.  1.
          5    1    5    5  503    0 -0.20916440145E+01 -0.69781235498E+02 -0.68906464440E+02  0.98203801576E+02  0.47000000000E+01 0. -1.
         -5    1    5    5    0  503  0.25950176273E+02  0.51106950749E+02 -0.79776407416E+02  0.98344787577E+02  0.47000000000E+01 0. -1.
<mgrwt>
<rscale>  0 0.28278065E+03</rscale>
<asrwt>0</asrwt>
<pdfrwt beam="1">  1        2 0.91266342E-01 0.28278065E+03</pdfrwt>
<pdfrwt beam="2">  1       -2 0.51844421E-02 0.28278065E+03</pdfrwt>
<totfact> 0.94402745E+03</totfact>
</mgrwt>
</event>
<event>
 9    1  0.7997082E-001  0.2773126E+03  0.7818608E-02  0.1097166E+00
         -1   -1    0    0    0  501 -0.00000000000E+00  0.00000000000E+00  0.86426721955E+02  0.86426721955E+02  0.00000000000E+00 0.  1.
          1   -1    0    0  501    0  0.00000000000E+00 -0.00000000000E+00 -0.22244942258E+03  0.22244942258E+03  0.00000000000E+00 0.  1.
         35    2    1    2    0    0  0.00000000000E+00  0.00000000000E+00 -0.13602270062E+03  0.30887614453E+03  0.27731263508E+03 0.  0.
         25    2    3    3    0    0 -0.34089909768E+02 -0.46308872096E+02 -0.89693548334E+02  0.16369067710E+03  0.12427015560E+03 0.  0.
         25    2    3    3    0    0  0.34089909768E+02  0.46308872096E+02 -0.46329152290E+02  0.14518546744E+03  0.12500318404E+03 0.  0.
          5    1    4    4  502    0 -0.47101461377E+02 -0.63102467326E+02 -0.81603093697E+01  0.79304159383E+02  0.47000000000E+01 0. -1.
         -5    1    4    4    0  502  0.13011551609E+02  0.16793595229E+02 -0.81533238964E+02  0.84386517714E+02  0.47000000000E+01 0. -1.
          5    1    5    5  503    0 -0.48316896361E+01  0.11420118521E+02 -0.81135301461E+02  0.82211869428E+02  0.47000000000E+01 0.  1.
         -5    1    5    5    0  503  0.38921599404E+02  0.34888753575E+02  0.34806149170E+02  0.62973598009E+02  0.47000000000E+01 0.  1.
<mgrwt>
<rscale>  0 0.27731264E+03</rscale>
<asrwt>0</asrwt>
<pdfrwt beam="1">  1        1 0.34222988E-01 0.27731264E+03</pdfrwt>
<pdfrwt beam="2">  1       -1 0.13296419E-01 0.27731264E+03</pdfrwt>
<totfact> 0.49574106E+03</totfact>
</mgrwt>
</event>
<event>
 9    1  0.7997082E-001  0.2763042E+03  0.7818608E-02  0.1097725E+00
         -1   -1    0    0    0  501 -0.00000000000E+00  0.00000000000E+00  0.34060436799E+02  0.34060436799E+02  0.00000000000E+00 0.  1.
          1   -1    0    0  501    0  0.00000000000E+00 -0.00000000000E+00 -0.56035703748E+03  0.56035703748E+03  0.00000000000E+00 0.  1.
         35    2    1    2    0    0 -0.35527136788E-14 -0.71054273576E-14 -0.52629660069E+03  0.59441747428E+03  0.27630421973E+03 0.  0.
         25    2    3    3    0    0  0.11111130499E+02  0.62753206661E+02 -0.23863027152E+03  0.27432321431E+03  0.11936246167E+03 0.  0.
         25    2    3    3    0    0 -0.11111130499E+02 -0.62753206661E+02 -0.28766632917E+03  0.32009425998E+03  0.12508795372E+03 0.  0.
          5    1    4    4  502    0  0.34558034087E+02 -0.77369331676E+01 -0.15206017200E+02  0.38825646342E+02  0.47000000000E+01 0. -1.
         -5    1    4    4    0  502 -0.23446903587E+02  0.70490139829E+02 -0.22342425432E+03  0.23549756797E+03  0.47000000000E+01 0. -1.
          5    1    5    5  503    0 -0.66845425954E+02 -0.48293430027E+02 -0.17166966856E+03  0.19050756273E+03  0.47000000000E+01 0.  1.
         -5    1    5    5    0  503  0.55734295455E+02 -0.14459776634E+02 -0.11599666061E+03  0.12958669724E+03  0.47000000000E+01 0.  1.
<mgrwt>
<rscale>  0 0.27630422E+03</rscale>
<asrwt>0</asrwt>
<pdfrwt beam="1">  1        1 0.86208764E-01 0.27630422E+03</pdfrwt>
<pdfrwt beam="2">  1       -1 0.52400679E-02 0.27630422E+03</pdfrwt>
<totfact> 0.63176975E+03</totfact>
</mgrwt>
</event>
<event>
 9    1  0.7997082E-001  0.2763156E+03  0.7818608E-02  0.1097718E+00
          1   -1    0    0  501    0  0.00000000000E+00  0.00000000000E+00  0.67203535523E+03  0.67203535523E+03  0.00000000000E+00 0.  1.
         -1   -1    0    0    0  501 -0.00000000000E+00 -0.00000000000E+00 -0.28402634971E+02  0.28402634971E+02  0.00000000000E+00 0.  1.
         35    2    1    2    0    0  0.35527136788E-14 -0.71054273576E-14  0.64363272026E+03  0.70043799020E+03  0.27631557960E+03 0.  0.
         25    2    3    3    0    0 -0.11397653813E+02 -0.53306411655E+02  0.25467286592E+03  0.28824868445E+03  0.12352147754E+03 0.  0.
         25    2    3    3    0    0  0.11397653813E+02  0.53306411655E+02  0.38895985434E+03  0.41218930575E+03  0.12505508967E+03 0.  0.
          5    1    4    4  502    0 -0.64495665154E+02 -0.98478276589E+01  0.10826355300E+03  0.12649014760E+03  0.47000000000E+01 0.  1.
         -5    1    4    4    0  502  0.53098011341E+02 -0.43458583996E+02  0.14640931292E+03  0.16175853684E+03  0.47000000000E+01 0.  1.
          5    1    5    5  503    0  0.42863959844E+02  0.19655018967E+02  0.34532162062E+03  0.34855810203E+03  0.47000000000E+01 0. -1.
         -5    1    5    5    0  503 -0.31466306031E+02  0.33651392688E+02  0.43638233724E+02  0.63631203726E+02  0.47000000000E+01 0. -1.
<mgrwt>
<rscale>  0 0.27631558E+03</rscale>
<asrwt>0</asrwt>
<pdfrwt beam="1">  1        1 0.10339004E+00 0.27631558E+03</pdfrwt>
<pdfrwt beam="2">  1       -1 0.43696367E-02 0.27631558E+03</pdfrwt>
<totfact> 0.64290824E+03</totfact>
</mgrwt>
</event>
<event>
 9    1  0.7997082E-001  0.2729450E+03  0.7818608E-02  0.1099606E+00
          2   -1    0    0  501    0  0.00000000000E+00  0.00000000000E+00  0.11978919343E+04  0.11978919343E+04  0.00000000000E+00 0. -1.
         -2   -1    0    0    0  501 -0.00000000000E+00 -0.00000000000E+00 -0.15547933303E+02  0.15547933303E+02  0.00000000000E+00 0. -1.
         35    2    1    2    0    0  0.00000000000E+00  0.00000000000E+00  0.11823440010E+04  0.12134398676E+04  0.27294500471E+03 0.  0.
         25    2    3    3    0    0  0.37121629704E+02 -0.11665678545E+02  0.76454516508E+03  0.77544993791E+03  0.12360903415E+03 0.  0.
         25    2    3    3    0    0 -0.37121629704E+02  0.11665678545E+02  0.41779883593E+03  0.43798992970E+03  0.12555957855E+03 0.  0.
          5    1    4    4  502    0  0.40079940154E+02 -0.32329781879E+02  0.12145473855E+03  0.13200363599E+03  0.47000000000E+01 0. -1.
         -5    1    4    4    0  502 -0.29583104499E+01  0.20664103334E+02  0.64309042653E+03  0.64344630192E+03  0.47000000000E+01 0. -1.
          5    1    5    5  503    0 -0.39183948369E+01 -0.33820307002E+02  0.28607989083E+02  0.44717714869E+02  0.47000000000E+01 0.  1.
         -5    1    5    5    0  503 -0.33203234867E+02  0.45485985546E+02  0.38919084685E+03  0.39327221483E+03  0.47000000000E+01 0.  1.
<mgrwt>
<rscale>  0 0.27294500E+03</rscale>
<asrwt>0</asrwt>
<pdfrwt beam="1">  1        2 0.18429099E+00 0.27294500E+03</pdfrwt>
<pdfrwt beam="2">  1       -2 0.23919907E-02 0.27294500E+03</pdfrwt>
<totfact> 0.11869989E+04</totfact>
</mgrwt>
</event>
<event>
 9    1  0.7997082E-001  0.2746862E+03  0.7818608E-02  0.1098627E+00
         -2   -1    0    0    0  501 -0.00000000000E+00  0.00000000000E+00  0.85603887798E+02  0.85603887798E+02  0.00000000000E+00 0. -1.
          2   -1    0    0  501    0  0.00000000000E+00 -0.00000000000E+00 -0.22035367984E+03  0.22035367984E+03  0.00000000000E+00 0. -1.
         35    2    1    2    0    0  0.71054273576E-14  0.35527136788E-14 -0.13474979204E+03  0.30595756763E+03  0.27468623325E+03 0.  0.
         25    2    3    3    0    0 -0.47166028650E+02  0.30872444706E+02 -0.77267513601E+02  0.15737517012E+03  0.12497573129E+03 0.  0.
         25    2    3    3    0    0  0.47166028650E+02 -0.30872444706E+02 -0.57482278436E+02  0.14858239751E+03  0.12487903914E+03 0.  0.
          5    1    4    4  502    0 -0.18096490595E+02 -0.42447081392E+02 -0.61125792402E+02  0.76731285584E+02  0.47000000000E+01 0. -1.
         -5    1    4    4    0  502 -0.29069538055E+02  0.73319526098E+02 -0.16141721199E+02  0.80643884537E+02  0.47000000000E+01 0. -1.
          5    1    5    5  503    0 -0.25310590400E+02 -0.22352769935E+02  0.22001976953E+02  0.40576462389E+02  0.47000000000E+01 0.  1.
         -5    1    5    5    0  503  0.72476619051E+02 -0.85196747716E+01 -0.79484255389E+02  0.10800593512E+03  0.47000000000E+01 0.  1.
<mgrwt>
<rscale>  0 0.27468623E+03</rscale>
<asrwt>0</asrwt>
<pdfrwt beam="1">  1        2 0.33900566E-01 0.27468623E+03</pdfrwt>
<pdfrwt beam="2">  1       -2 0.13169829E-01 0.27468623E+03</pdfrwt>
<totfact> 0.64546842E+03</totfact>
</mgrwt>
</event>
<event>
 9    1  0.7997082E-001  0.2739681E+03  0.7818608E-02  0.1099030E+00
         -2   -1    0    0    0  501 -0.00000000000E+00  0.00000000000E+00  0.96560138579E+03  0.96560138579E+03  0.00000000000E+00 0. -1.
          2   -1    0    0  501    0  0.00000000000E+00 -0.00000000000E+00 -0.19433106006E+02  0.19433106006E+02  0.00000000000E+00 0. -1.
         35    2    1    2    0    0  0.00000000000E+00  0.00000000000E+00  0.94616827978E+03  0.98503449179E+03  0.27396813019E+03 0.  0.
         25    2    3    3    0    0  0.27893583181E+02  0.24126141948E+02  0.62603684061E+03  0.63938633046E+03  0.12462997658E+03 0.  0.
         25    2    3    3    0    0 -0.27893583181E+02 -0.24126141948E+02  0.32013143917E+03  0.34564816134E+03  0.12501356080E+03 0.  0.
          5    1    4    4  502    0  0.53616587776E+02  0.38259898397E+02  0.16989669099E+03  0.18227872591E+03  0.47000000000E+01 0. -1.
         -5    1    4    4    0  502 -0.25723004595E+02 -0.14133756449E+02  0.45614014962E+03  0.45710760455E+03  0.47000000000E+01 0. -1.
          5    1    5    5  503    0  0.15552805490E+01 -0.28303501709E+02  0.31349988253E+03  0.31481387112E+03  0.47000000000E+01 0. -1.
         -5    1    5    5    0  503 -0.29448863730E+02  0.41773597614E+01  0.66315566436E+01  0.30834290216E+02  0.47000000000E+01 0. -1.
<mgrwt>
<rscale>  0 0.27396813E+03</rscale>
<asrwt>0</asrwt>
<pdfrwt beam="1">  1        2 0.29897094E-02 0.27396813E+03</pdfrwt>
<pdfrwt beam="2">  1       -2 0.14855402E+00 0.27396813E+03</pdfrwt>
<totfact> 0.10235462E+03</totfact>
</mgrwt>
</event>
<event>
 9    1  0.7997082E-001  0.2773794E+03  0.7818608E-02  0.1097129E+00
         -2   -1    0    0    0  501 -0.00000000000E+00  0.00000000000E+00  0.70720395779E+02  0.70720395779E+02  0.00000000000E+00 0.  1.
          2   -1    0    0  501    0  0.00000000000E+00 -0.00000000000E+00 -0.27198428551E+03  0.27198428551E+03  0.00000000000E+00 0.  1.
         35    2    1    2    0    0  0.00000000000E+00  0.21316282073E-13 -0.20126388973E+03  0.34270468129E+03  0.27737942474E+03 0.  0.
         25    2    3    3    0    0  0.31493503647E+02 -0.28869629636E+02 -0.61889924269E+02  0.14962809324E+03  0.12935573924E+03 0.  0.
         25    2    3    3    0    0 -0.31493503647E+02  0.28869629636E+02 -0.13937396546E+03  0.19307658805E+03  0.12660241039E+03 0.  0.
          5    1    4    4  502    0  0.24071287231E+02  0.43586636266E+02 -0.57932148188E+02  0.76533950137E+02  0.47000000000E+01 0. -1.
         -5    1    4    4    0  502  0.74222164163E+01 -0.72456265902E+02 -0.39577760805E+01  0.73094143106E+02  0.47000000000E+01 0. -1.
          5    1    5    5  503    0 -0.18077089791E+02  0.66794646710E+02 -0.28406540041E+02  0.74948832690E+02  0.47000000000E+01 0.  1.
         -5    1    5    5    0  503 -0.13416413855E+02 -0.37925017074E+02 -0.11096742542E+03  0.11812775536E+03  0.47000000000E+01 0.  1.
<mgrwt>
<rscale>  0 0.27737942E+03</rscale>
<asrwt>0</asrwt>
<pdfrwt beam="1">  1        2 0.41843737E-01 0.27737942E+03</pdfrwt>
<pdfrwt beam="2">  1       -2 0.10880061E-01 0.27737942E+03</pdfrwt>
<totfact> 0.69995407E+03</totfact>
</mgrwt>
</event>
<event>
 9    1  0.7997082E-001  0.2785480E+03  0.7818608E-02  0.1096485E+00
         -4   -1    0    0    0  501 -0.00000000000E+00  0.00000000000E+00  0.44116920864E+02  0.44116920864E+02  0.00000000000E+00 0.  1.
          4   -1    0    0  501    0  0.00000000000E+00 -0.00000000000E+00 -0.43967824790E+03  0.43967824790E+03  0.00000000000E+00 0.  1.
         35    2    1    2    0    0  0.00000000000E+00  0.00000000000E+00 -0.39556132704E+03  0.48379516877E+03  0.27854802436E+03 0.  0.
         25    2    3    3    0    0 -0.63561899443E+02 -0.21993024360E+01 -0.22902323500E+03  0.26841128080E+03  0.12469170581E+03 0.  0.
         25    2    3    3    0    0  0.63561899443E+02  0.21993024360E+01 -0.16653809204E+03  0.21538388797E+03  0.12087320259E+03 0.  0.
          5    1    4    4  502    0  0.53098295945E+01  0.41241725682E+02 -0.25137977566E+02  0.48816822343E+02  0.47000000000E+01 0.  1.
         -5    1    4    4    0  502 -0.68871729038E+02 -0.43441028118E+02 -0.20388525743E+03  0.21959445845E+03  0.47000000000E+01 0.  1.
          5    1    5    5  503    0  0.59104381114E+02 -0.52610568669E+02 -0.79088627172E+02  0.11197455403E+03  0.47000000000E+01 0.  1.
         -5    1    5    5    0  503  0.44575183297E+01  0.54809871105E+02 -0.87449464869E+02  0.10340933394E+03  0.47000000000E+01 0.  1.
<mgrwt>
<rscale>  0 0.27854802E+03</rscale>
<asrwt>0</asrwt>
<pdfrwt beam="1">  1        4 0.67642804E-01 0.27854802E+03</pdfrwt>
<pdfrwt beam="2">  1       -4 0.67872189E-02 0.27854802E+03</pdfrwt>
<totfact> 0.55869553E+02</totfact>
</mgrwt>
</event>
<event>
 9    1  0.7997082E-001  0.2708065E+03  0.7818608E-02  0.1100819E+00
          1   -1    0    0  501    0  0.00000000000E+00  0.00000000000E+00  0.15071833687E+04  0.15071833687E+04  0.00000000000E+00 0. -1.
         -1   -1    0    0    0  501 -0.00000000000E+00 -0.00000000000E+00 -0.12164438740E+02  0.12164438740E+02  0.00000000000E+00 0. -1.
         35    2    1    2    0    0  0.00000000000E+00 -0.71054273576E-14  0.14950189299E+04  0.15193478074E+04  0.27080649740E+03 0.  0.
         25    2    3    3    0    0  0.23309366012E+02 -0.31949682920E+02  0.55858116230E+03  0.57376877378E+03  0.12503432371E+03 0.  0.
         25    2    3    3    0    0 -0.23309366012E+02  0.31949682920E+02  0.93643776765E+03  0.94557903365E+03  0.12505961543E+03 0.  0.
          5    1    4    4  502    0  0.55501939026E+02 -0.61039628606E+02  0.28534972029E+03  0.29707381972E+03  0.47000000000E+01 0.  1.
         -5    1    4    4    0  502 -0.32192573014E+02  0.29089945686E+02  0.27323144201E+03  0.27669495405E+03  0.47000000000E+01 0.  1.
          5    1    5    5  503    0 -0.74700760577E+02  0.16627260627E+02  0.50275167656E+03  0.50856465441E+03  0.47000000000E+01 0.  1.
         -5    1    5    5    0  503  0.51391394565E+02  0.15322422293E+02  0.43368609109E+03  0.43701437925E+03  0.47000000000E+01 0.  1.
<mgrwt>
<rscale>  0 0.27080650E+03</rscale>
<asrwt>0</asrwt>
<pdfrwt beam="1">  1        1 0.23187422E+00 0.27080650E+03</pdfrwt>
<pdfrwt beam="2">  1       -1 0.18714533E-02 0.27080650E+03</pdfrwt>
<totfact> 0.53480011E+03</totfact>
</mgrwt>
</event>
<event>
 9    1  0.7997082E-001  0.2642460E+03  0.7818608E-02  0.1104619E+00
          1   -1    0    0  501    0  0.00000000000E+00  0.00000000000E+00  0.95544100000E+02  0.95544100000E+02  0.00000000000E+00 0.  1.
         -1   -1    0    0    0  501 -0.00000000000E+00 -0.00000000000E+00 -0.18270606484E+03  0.18270606484E+03  0.00000000000E+00 0.  1.
         35    2    1    2    0    0  0.00000000000E+00  0.35527136788E-14 -0.87161964837E+02  0.27825016484E+03  0.26424599546E+03 0.  0.
         25    2    3    3    0    0  0.14836055763E+02 -0.91415584526E+01 -0.85096803881E+02  0.15161612989E+03  0.12426708402E+03 0.  0.
         25    2    3    3    0    0 -0.14836055763E+02  0.91415584526E+01 -0.20651609562E+01  0.12663403495E+03  0.12541226924E+03 0.  0.
          5    1    4    4  502    0  0.47399712586E+02 -0.38699210190E+02 -0.68736706313E+01  0.61755153393E+02  0.47000000000E+01 0.  1.
         -5    1    4    4    0  502 -0.32563656823E+02  0.29557651738E+02 -0.78223133250E+02  0.89860976499E+02  0.47000000000E+01 0.  1.
          5    1    5    5  503    0 -0.25214927788E+02 -0.58153864412E+01  0.58005593320E+02  0.63689482328E+02  0.47000000000E+01 0.  1.
         -5    1    5    5    0  503  0.10378872025E+02  0.14956944894E+02 -0.60070754276E+02  0.62944552619E+02  0.47000000000E+01 0.  1.
<mgrwt>
<rscale>  0 0.26424600E+03</rscale>
<asrwt>0</asrwt>
<pdfrwt beam="1">  1        1 0.14699093E-01 0.26424600E+03</pdfrwt>
<pdfrwt beam="2">  1       -1 0.28108625E-01 0.26424600E+03</pdfrwt>
<totfact> 0.43371242E+03</totfact>
</mgrwt>
</event>
<event>
 9    1  0.7997082E-001  0.2753178E+03  0.7818608E-02  0.1098274E+00
          1   -1    0    0  501    0  0.00000000000E+00  0.00000000000E+00  0.83701395443E+02  0.83701395443E+02  0.00000000000E+00 0.  1.
         -1   -1    0    0    0  501 -0.00000000000E+00 -0.00000000000E+00 -0.22639968276E+03  0.22639968276E+03  0.00000000000E+00 0.  1.
         35    2    1    2    0    0  0.00000000000E+00  0.00000000000E+00 -0.14269828732E+03  0.31010107820E+03  0.27531777549E+03 0.  0.
         25    2    3    3    0    0  0.42027139131E+02 -0.33927913294E+02 -0.94859788913E+02  0.16602082589E+03  0.12508857402E+03 0.  0.
         25    2    3    3    0    0 -0.42027139131E+02  0.33927913294E+02 -0.47838498405E+02  0.14408025232E+03  0.12471252325E+03 0.  0.
          5    1    4    4  502    0  0.31523909556E+02 -0.79762497288E+02 -0.43689889746E+02  0.96367573973E+02  0.47000000000E+01 0. -1.
         -5    1    4    4    0  502  0.10503229575E+02  0.45834583994E+02 -0.51169899167E+02  0.69653251914E+02  0.47000000000E+01 0. -1.
          5    1    5    5  503    0 -0.86184915187E+02  0.20470835417E+02 -0.38728586876E+02  0.96793017051E+02  0.47000000000E+01 0.  1.
         -5    1    5    5    0  503  0.44157776056E+02  0.13457077878E+02 -0.91099115293E+01  0.47287235268E+02  0.47000000000E+01 0.  1.
<mgrwt>
<rscale>  0 0.27531778E+03</rscale>
<asrwt>0</asrwt>
<pdfrwt beam="1">  1        1 0.12877138E-01 0.27531778E+03</pdfrwt>
<pdfrwt beam="2">  1       -1 0.34830721E-01 0.27531778E+03</pdfrwt>
<totfact> 0.35830118E+03</totfact>
</mgrwt>
</event>
<event>
 9    1  0.7997082E-001  0.2695919E+03  0.7818608E-02  0.1101513E+00
          2   -1    0    0  501    0  0.00000000000E+00  0.00000000000E+00  0.19730997154E+04  0.19730997154E+04  0.00000000000E+00 0.  1.
         -2   -1    0    0    0  501 -0.00000000000E+00 -0.00000000000E+00 -0.92088372192E+01  0.92088372192E+01  0.00000000000E+00 0.  1.
         35    2    1    2    0    0  0.71054273576E-14  0.71054273576E-14  0.19638908781E+04  0.19823085526E+04  0.26959194421E+03 0.  0.
         25    2    3    3    0    0  0.22654392062E+02  0.48522845882E+01  0.64438773437E+03  0.65672298257E+03  0.12455022069E+03 0.  0.
         25    2    3    3    0    0 -0.22654392062E+02 -0.48522845882E+01  0.13195031438E+04  0.13255855700E+04  0.12470681965E+03 0.  0.
          5    1    4    4  502    0  0.16055111264E+02 -0.42408983454E+02  0.53917162938E+03  0.54109557789E+03  0.47000000000E+01 0. -1.
         -5    1    4    4    0  502  0.65992807980E+01  0.47261268043E+02  0.10521610499E+03  0.11562740468E+03  0.47000000000E+01 0. -1.
          5    1    5    5  503    0 -0.29821408757E+02 -0.55837520863E+02  0.43894042056E+03  0.44350640126E+03  0.47000000000E+01 0.  1.
         -5    1    5    5    0  503  0.71670166949E+01  0.50985236275E+02  0.88056272321E+03  0.88207916875E+03  0.47000000000E+01 0.  1.
<mgrwt>
<rscale>  0 0.26959194E+03</rscale>
<asrwt>0</asrwt>
<pdfrwt beam="1">  1        2 0.30355347E+00 0.26959194E+03</pdfrwt>
<pdfrwt beam="2">  1       -2 0.14167458E-02 0.26959194E+03</pdfrwt>
<totfact> 0.98421980E+03</totfact>
</mgrwt>
</event>
<event>
 9    1  0.7997082E-001  0.2739434E+03  0.7818608E-02  0.1099044E+00
          1   -1    0    0  501    0  0.00000000000E+00  0.00000000000E+00  0.86746087614E+02  0.86746087614E+02  0.00000000000E+00 0. -1.
         -1   -1    0    0    0  501 -0.00000000000E+00 -0.00000000000E+00 -0.21627772753E+03  0.21627772753E+03  0.00000000000E+00 0. -1.
         35    2    1    2    0    0  0.00000000000E+00  0.00000000000E+00 -0.12953163991E+03  0.30302381514E+03  0.27394340073E+03 0.  0.
         25    2    3    3    0    0  0.33620395605E+02 -0.25198922064E+02 -0.28384066368E+02  0.13643756287E+03  0.12666584648E+03 0.  0.
         25    2    3    3    0    0 -0.33620395605E+02  0.25198922064E+02 -0.10114757355E+03  0.16658625227E+03  0.12551825022E+03 0.  0.
          5    1    4    4  502    0  0.30324176602E+02  0.49300143140E+02 -0.56951695327E+01  0.58348819664E+02  0.47000000000E+01 0. -1.
         -5    1    4    4    0  502  0.32962190035E+01 -0.74499065203E+02 -0.22688896835E+02  0.78088743206E+02  0.47000000000E+01 0. -1.
          5    1    5    5  503    0 -0.47049252885E+02  0.12256218876E+02  0.13227392722E+02  0.50605345729E+02  0.47000000000E+01 0.  1.
         -5    1    5    5    0  503  0.13428857279E+02  0.12942703188E+02 -0.11437496627E+03  0.11598090654E+03  0.47000000000E+01 0.  1.
<mgrwt>
<rscale>  0 0.27394340E+03</rscale>
<asrwt>0</asrwt>
<pdfrwt beam="1">  1        1 0.13345552E-01 0.27394340E+03</pdfrwt>
<pdfrwt beam="2">  1       -1 0.33273497E-01 0.27394340E+03</pdfrwt>
<totfact> 0.36986000E+03</totfact>
</mgrwt>
</event>
<event>
 9    1  0.7997082E-001  0.2728391E+03  0.7818608E-02  0.1099666E+00
         -2   -1    0    0    0  501 -0.00000000000E+00  0.00000000000E+00  0.10535578914E+02  0.10535578914E+02  0.00000000000E+00 0.  1.
          2   -1    0    0  501    0  0.00000000000E+00 -0.00000000000E+00 -0.17664235516E+04  0.17664235516E+04  0.00000000000E+00 0.  1.
         35    2    1    2    0    0 -0.53290705182E-14  0.00000000000E+00 -0.17558879726E+04  0.17769591305E+04  0.27283910807E+03 0.  0.
         25    2    3    3    0    0 -0.15696367853E+02 -0.44837650826E+02 -0.69299702751E+03  0.70580605580E+03  0.12514198885E+03 0.  0.
         25    2    3    3    0    0  0.15696367853E+02  0.44837650826E+02 -0.10628909451E+04  0.10711530747E+04  0.12399579521E+03 0.  0.
          5    1    4    4  502    0  0.39529688669E+02  0.14096957321E+02 -0.38690152791E+03  0.38919943832E+03  0.47000000000E+01 0.  1.
         -5    1    4    4    0  502 -0.55226056522E+02 -0.58934608146E+02 -0.30609549960E+03  0.31660661748E+03  0.47000000000E+01 0.  1.
          5    1    5    5  503    0 -0.54169728441E+01  0.36224724944E+02 -0.10310354118E+04  0.10316965080E+04  0.47000000000E+01 0. -1.
         -5    1    5    5    0  503  0.21113340697E+02  0.86129258823E+01 -0.31855533369E+02  0.39456566677E+02  0.47000000000E+01 0. -1.
<mgrwt>
<rscale>  0 0.27283911E+03</rscale>
<asrwt>0</asrwt>
<pdfrwt beam="1">  1        2 0.27175733E+00 0.27283911E+03</pdfrwt>
<pdfrwt beam="2">  1       -2 0.16208591E-02 0.27283911E+03</pdfrwt>
<totfact> 0.10378500E+04</totfact>
</mgrwt>
</event>
<event>
 9    1  0.7997082E-001  0.2733141E+03  0.7818608E-02  0.1099398E+00
          4   -1    0    0  501    0  0.00000000000E+00  0.00000000000E+00  0.21398513218E+02  0.21398513218E+02  0.00000000000E+00 0.  1.
         -4   -1    0    0    0  501 -0.00000000000E+00 -0.00000000000E+00 -0.87273129932E+03  0.87273129932E+03  0.00000000000E+00 0.  1.
         35    2    1    2    0    0  0.00000000000E+00  0.00000000000E+00 -0.85133278610E+03  0.89412981254E+03  0.27331412144E+03 0.  0.
         25    2    3    3    0    0 -0.30064200917E+02  0.45054182328E+02 -0.46673175664E+03  0.48626213963E+03  0.12521421749E+03 0.  0.
         25    2    3    3    0    0  0.30064200917E+02 -0.45054182328E+02 -0.38460102946E+03  0.40786767291E+03  0.12451646966E+03 0.  0.
          5    1    4    4  502    0 -0.68879006190E+02  0.29326674436E+01 -0.34222086921E+03  0.34912767200E+03  0.47000000000E+01 0.  1.
         -5    1    4    4    0  502  0.38814805273E+02  0.42121514885E+02 -0.12451088743E+03  0.13713446763E+03  0.47000000000E+01 0.  1.
          5    1    5    5  503    0  0.37243799019E+02  0.19167658658E+02 -0.43136853360E+02  0.60310677509E+02  0.47000000000E+01 0. -1.
         -5    1    5    5    0  503 -0.71795981019E+01 -0.64221840986E+02 -0.34146417610E+03  0.34755699540E+03  0.47000000000E+01 0. -1.
<mgrwt>
<rscale>  0 0.27331412E+03</rscale>
<asrwt>0</asrwt>
<pdfrwt beam="1">  1        4 0.32920798E-02 0.27331412E+03</pdfrwt>
<pdfrwt beam="2">  1       -4 0.13426632E+00 0.27331412E+03</pdfrwt>
<totfact> 0.36537814E+02</totfact>
</mgrwt>
</event>
<event>
 9    1  0.7997082E-001  0.2743997E+03  0.7818608E-02  0.1098788E+00
          1   -1    0    0  501    0  0.00000000000E+00  0.00000000000E+00  0.13965520168E+04  0.13965520168E+04  0.00000000000E+00 0.  1.
         -1   -1    0    0    0  501 -0.00000000000E+00 -0.00000000000E+00 -0.13478771291E+02  0.13478771291E+02  0.00000000000E+00 0.  1.
         35    2    1    2    0    0  0.00000000000E+00  0.35527136788E-14  0.13830732455E+04  0.14100307881E+04  0.27439974658E+03 0.  0.
         25    2    3    3    0    0  0.41420686739E+02  0.80181688755E+01  0.49769850527E+03  0.51489056023E+03  0.12501408938E+03 0.  0.
         25    2    3    3    0    0 -0.41420686739E+02 -0.80181688755E+01  0.88537474021E+03  0.89514022783E+03  0.12493051092E+03 0.  0.
          5    1    4    4  502    0  0.79178787653E+01  0.58305761559E+02  0.35470034450E+03  0.35957847409E+03  0.47000000000E+01 0.  1.
         -5    1    4    4    0  502  0.33502807973E+02 -0.50287592683E+02  0.14299816077E+03  0.15531208615E+03  0.47000000000E+01 0.  1.
          5    1    5    5  503    0 -0.66821856380E+02  0.19717860645E+02  0.78066309113E+03  0.78377988387E+03  0.47000000000E+01 0. -1.
         -5    1    5    5    0  503  0.25401169641E+02 -0.27736029520E+02  0.10471164908E+03  0.11136034396E+03  0.47000000000E+01 0. -1.
<mgrwt>
<rscale>  0 0.27439975E+03</rscale>
<asrwt>0</asrwt>
<pdfrwt beam="1">  1        1 0.21485404E+00 0.27439975E+03</pdfrwt>
<pdfrwt beam="2">  1       -1 0.20736582E-02 0.27439975E+03</pdfrwt>
<totfact> 0.54562412E+03</totfact>
</mgrwt>
</event>
<event>
 9    1  0.7997082E-001  0.2690653E+03  0.7818608E-02  0.1101816E+00
         -1   -1    0    0    0  501 -0.00000000000E+00  0.00000000000E+00  0.83108114860E+01  0.83108114860E+01  0.00000000000E+00 0.  1.
          1   -1    0    0  501    0  0.00000000000E+00 -0.00000000000E+00 -0.21777705145E+04  0.21777705145E+04  0.00000000000E+00 0.  1.
         35    2    1    2    0    0  0.17763568394E-14  0.71054273576E-14 -0.21694597030E+04  0.21860813260E+04  0.26906534675E+03 0.  0.
         25    2    3    3    0    0  0.11901535122E+02  0.35473604439E+02 -0.13217687885E+04  0.13283970720E+04  0.12714569341E+03 0.  0.
         25    2    3    3    0    0 -0.11901535122E+02 -0.35473604439E+02 -0.84769091444E+03  0.85768425397E+03  0.12506946041E+03 0.  0.
          5    1    4    4  502    0 -0.35765254950E+02 -0.32890071178E+02 -0.52756077546E+03  0.52981446946E+03  0.47000000000E+01 0. -1.
         -5    1    4    4    0  502  0.47666790072E+02  0.68363675617E+02 -0.79420801308E+03  0.79858260253E+03  0.47000000000E+01 0. -1.
          5    1    5    5  503    0 -0.22127829470E+02 -0.60749873151E+02 -0.79943372555E+03  0.80205770333E+03  0.47000000000E+01 0.  1.
         -5    1    5    5    0  503  0.10226294348E+02  0.25276268712E+02 -0.48257188896E+02  0.55626550642E+02  0.47000000000E+01 0.  1.
<mgrwt>
<rscale>  0 0.26906535E+03</rscale>
<asrwt>0</asrwt>
<pdfrwt beam="1">  1        1 0.33504182E+00 0.26906535E+03</pdfrwt>
<pdfrwt beam="2">  1       -1 0.12785856E-02 0.26906535E+03</pdfrwt>
<totfact> 0.34037197E+03</totfact>
</mgrwt>
</event>
<event>
 9    1  0.7997082E-001  0.2732293E+03  0.7818608E-02  0.1099446E+00
          1   -1    0    0  501    0  0.00000000000E+00  0.00000000000E+00  0.92305946390E+02  0.92305946390E+02  0.00000000000E+00 0. -1.
         -1   -1    0    0    0  501 -0.00000000000E+00 -0.00000000000E+00 -0.20219235082E+03  0.20219235082E+03  0.00000000000E+00 0. -1.
         35    2    1    2    0    0  0.00000000000E+00  0.00000000000E+00 -0.10988640443E+03  0.29449829721E+03  0.27322925389E+03 0.  0.
         25    2    3    3    0    0  0.35249975438E+02  0.28089240719E+02 -0.91256196290E+02  0.16059511567E+03  0.12422371594E+03 0.  0.
         25    2    3    3    0    0 -0.35249975438E+02 -0.28089240719E+02 -0.18630208138E+02  0.13390318154E+03  0.12470529724E+03 0.  0.
          5    1    4    4  502    0 -0.37643787316E+02 -0.13166759561E+02 -0.53307182964E+01  0.40508330481E+02  0.47000000000E+01 0. -1.
         -5    1    4    4    0  502  0.72893762754E+02  0.41256000280E+02 -0.85925477993E+02  0.12008678518E+03  0.47000000000E+01 0. -1.
          5    1    5    5  503    0 -0.27776622073E+02 -0.48684690668E+01  0.51829958257E+02  0.59191868510E+02  0.47000000000E+01 0.  1.
         -5    1    5    5    0  503 -0.74733533655E+01 -0.23220771652E+02 -0.70460166395E+02  0.74711313033E+02  0.47000000000E+01 0.  1.
<mgrwt>
<rscale>  0 0.27322925E+03</rscale>
<asrwt>0</asrwt>
<pdfrwt beam="1">  1        1 0.14200915E-01 0.27322925E+03</pdfrwt>
<pdfrwt beam="2">  1       -1 0.31106515E-01 0.27322925E+03</pdfrwt>
<totfact> 0.38250459E+03</totfact>
</mgrwt>
</event>
<event>
 9    1  0.7997082E-001  0.2705147E+03  0.7818608E-02  0.1100985E+00
         -1   -1    0    0    0  501 -0.00000000000E+00  0.00000000000E+00  0.18656414338E+02  0.18656414338E+02  0.00000000000E+00 0. -1.
          1   -1    0    0  501    0  0.00000000000E+00 -0.00000000000E+00 -0.98060385478E+03  0.98060385478E+03  0.00000000000E+00 0. -1.
         35    2    1    2    0    0  0.35527136788E-14 -0.14210854715E-13 -0.96194744044E+03  0.99926026912E+03  0.27051470804E+03 0.  0.
         25    2    3    3    0    0  0.30909389011E+02 -0.37651893141E+02 -0.48807692444E+03  0.50656680005E+03  0.12656138179E+03 0.  0.
         25    2    3    3    0    0 -0.30909389011E+02  0.37651893141E+02 -0.47387051600E+03  0.49269346906E+03  0.12577970081E+03 0.  0.
          5    1    4    4  502    0  0.47225204182E+02 -0.41520275256E+02 -0.10080053666E+03  0.11889908056E+03  0.47000000000E+01 0.  1.
         -5    1    4    4    0  502 -0.16315815171E+02  0.38683821150E+01 -0.38727638778E+03  0.38766771949E+03  0.47000000000E+01 0.  1.
          5    1    5    5  503    0 -0.45239348218E+02 -0.32504196867E+02 -0.13160273087E+03  0.14298423065E+03  0.47000000000E+01 0. -1.
         -5    1    5    5    0  503  0.14329959207E+02  0.70156090007E+02 -0.34226778513E+03  0.34970923842E+03  0.47000000000E+01 0. -1.
<mgrwt>
<rscale>  0 0.27051471E+03</rscale>
<asrwt>0</asrwt>
<pdfrwt beam="1">  1        1 0.15086215E+00 0.27051471E+03</pdfrwt>
<pdfrwt beam="2">  1       -1 0.28702173E-02 0.27051471E+03</pdfrwt>
<totfact> 0.66522239E+03</totfact>
</mgrwt>
</event>
<event>
 9    1  0.7997082E-001  0.2763652E+03  0.7818608E-02  0.1097691E+00
          1   -1    0    0  501    0  0.00000000000E+00  0.00000000000E+00  0.19002265569E+02  0.19002265569E+02  0.00000000000E+00 0.  1.
         -1   -1    0    0    0  501 -0.00000000000E+00 -0.00000000000E+00 -0.10048505656E+04  0.10048505656E+04  0.00000000000E+00 0.  1.
         35    2    1    2    0    0 -0.35527136788E-14 -0.71054273576E-14 -0.98584830001E+03  0.10238528312E+04  0.27636524604E+03 0.  0.
         25    2    3    3    0    0 -0.43817947982E+01 -0.64596961198E+01 -0.70048285012E+03  0.71249674431E+03  0.13005560170E+03 0.  0.
         25    2    3    3    0    0  0.43817947982E+01  0.64596961198E+01 -0.28536544989E+03  0.31135608684E+03  0.12429096920E+03 0.  0.
          5    1    4    4  502    0 -0.18931478433E+02  0.59056059408E+02 -0.37652225367E+03  0.38162431335E+03  0.47000000000E+01 0.  1.
         -5    1    4    4    0  502  0.14549683635E+02 -0.65515755528E+02 -0.32396059645E+03  0.33087243096E+03  0.47000000000E+01 0.  1.
          5    1    5    5  503    0  0.27454364979E+02  0.50603620759E+02 -0.22816229985E+03  0.23536056097E+03  0.47000000000E+01 0. -1.
         -5    1    5    5    0  503 -0.23072570181E+02 -0.44143924640E+02 -0.57203150044E+02  0.75995525871E+02  0.47000000000E+01 0. -1.
<mgrwt>
<rscale>  0 0.27636525E+03</rscale>
<asrwt>0</asrwt>
<pdfrwt beam="1">  1        1 0.29234247E-02 0.27636525E+03</pdfrwt>
<pdfrwt beam="2">  1       -1 0.15459243E+00 0.27636525E+03</pdfrwt>
<totfact> 0.12337326E+03</totfact>
</mgrwt>
</event>
<event>
 9    1  0.7997082E-001  0.2775603E+03  0.7818608E-02  0.1097029E+00
         -1   -1    0    0    0  501 -0.00000000000E+00  0.00000000000E+00  0.40519961510E+02  0.40519961510E+02  0.00000000000E+00 0.  1.
          1   -1    0    0  501    0  0.00000000000E+00 -0.00000000000E+00 -0.47531970981E+03  0.47531970981E+03  0.00000000000E+00 0.  1.
         35    2    1    2    0    0  0.35527136788E-14  0.00000000000E+00 -0.43479974830E+03  0.51583967132E+03  0.27756034549E+03 0.  0.
         25    2    3    3    0    0  0.27246350880E+02 -0.51873911473E+02 -0.19485783216E+03  0.23894171102E+03  0.12526092839E+03 0.  0.
         25    2    3    3    0    0 -0.27246350880E+02  0.51873911473E+02 -0.23994191614E+03  0.27689796031E+03  0.12516825066E+03 0.  0.
          5    1    4    4  502    0 -0.64252580223E+01 -0.72205396764E+02 -0.48568035329E+02  0.87383335472E+02  0.47000000000E+01 0.  1.
         -5    1    4    4    0  502  0.33671608902E+02  0.20331485291E+02 -0.14628979683E+03  0.15155837555E+03  0.47000000000E+01 0.  1.
          5    1    5    5  503    0  0.15262105565E+02 -0.35204222133E+02 -0.46322132562E+02  0.60333233689E+02  0.47000000000E+01 0.  1.
         -5    1    5    5    0  503 -0.42508456445E+02  0.87078133606E+02 -0.19361978358E+03  0.21656472662E+03  0.47000000000E+01 0.  1.
<mgrwt>
<rscale>  0 0.27756035E+03</rscale>
<asrwt>0</asrwt>
<pdfrwt beam="1">  1        1 0.73126112E-01 0.27756035E+03</pdfrwt>
<pdfrwt beam="2">  1       -1 0.62338400E-02 0.27756035E+03</pdfrwt>
<totfact> 0.60636673E+03</totfact>
</mgrwt>
</event>
<event>
 9    1  0.7997082E-001  0.2781251E+03  0.7818608E-02  0.1096717E+00
          1   -1    0    0  501    0  0.00000000000E+00  0.00000000000E+00  0.46812358470E+03  0.46812358470E+03  0.00000000000E+00 0. -1.
         -1   -1    0    0    0  501 -0.00000000000E+00 -0.00000000000E+00 -0.41310447941E+02  0.41310447941E+02  0.00000000000E+00 0. -1.
         35    2    1    2    0    0  0.00000000000E+00  0.71054273576E-14  0.42681313676E+03  0.50943403264E+03  0.27812511556E+03 0.  0.
         25    2    3    3    0    0 -0.34419879114E+01  0.57430630593E+02  0.18124031096E+03  0.22719699026E+03  0.12433944448E+03 0.  0.
         25    2    3    3    0    0  0.34419879114E+01 -0.57430630593E+02  0.24557282580E+03  0.28223704238E+03  0.12665548039E+03 0.  0.
          5    1    4    4  502    0  0.51016344306E+02  0.60880492040E+02  0.84767719246E+02  0.11626159264E+03  0.47000000000E+01 0.  1.
         -5    1    4    4    0  502 -0.54458332217E+02 -0.34498614467E+01  0.96472591719E+02  0.11093539762E+03  0.47000000000E+01 0.  1.
          5    1    5    5  503    0 -0.30538685095E+02 -0.10154476113E+02  0.29221516437E+01  0.32655070704E+02  0.47000000000E+01 0.  1.
         -5    1    5    5    0  503  0.33980673006E+02 -0.47276154480E+02  0.24265067415E+03  0.24958197168E+03  0.47000000000E+01 0.  1.
<mgrwt>
<rscale>  0 0.27812512E+03</rscale>
<asrwt>0</asrwt>
<pdfrwt beam="1">  1        1 0.72019009E-01 0.27812512E+03</pdfrwt>
<pdfrwt beam="2">  1       -1 0.63554539E-02 0.27812512E+03</pdfrwt>
<totfact> 0.60087721E+03</totfact>
</mgrwt>
</event>
<event>
 9    1  0.7997082E-001  0.2761970E+03  0.7818608E-02  0.1097784E+00
          1   -1    0    0  501    0  0.00000000000E+00  0.00000000000E+00  0.18913032369E+03  0.18913032369E+03  0.00000000000E+00 0. -1.
         -1   -1    0    0    0  501 -0.00000000000E+00 -0.00000000000E+00 -0.10083627824E+03  0.10083627824E+03  0.00000000000E+00 0. -1.
         35    2    1    2    0    0  0.00000000000E+00  0.00000000000E+00  0.88294045455E+02  0.28996660193E+03  0.27619701622E+03 0.  0.
         25    2    3    3    0    0  0.45100786287E+02 -0.37269626341E+02  0.39286013267E+02  0.14341741358E+03  0.12490819713E+03 0.  0.
         25    2    3    3    0    0 -0.45100786287E+02  0.37269626341E+02  0.49008032188E+02  0.14654918834E+03  0.12510703982E+03 0.  0.
          5    1    4    4  502    0 -0.43090579696E+02 -0.45271355041E+01  0.92402176702E+01  0.44550697379E+02  0.47000000000E+01 0.  1.
         -5    1    4    4    0  502  0.88191365983E+02 -0.32742490837E+02  0.30045795597E+02  0.98866716205E+02  0.47000000000E+01 0.  1.
          5    1    5    5  503    0  0.93911479556E+01 -0.15873745484E+02 -0.30772768775E+02  0.36183183300E+02  0.47000000000E+01 0. -1.
         -5    1    5    5    0  503 -0.54491934243E+02  0.53143371825E+02  0.79780800963E+02  0.11036600504E+03  0.47000000000E+01 0. -1.
<mgrwt>
<rscale>  0 0.27619702E+03</rscale>
<asrwt>0</asrwt>
<pdfrwt beam="1">  1        1 0.29096973E-01 0.27619702E+03</pdfrwt>
<pdfrwt beam="2">  1       -1 0.15513274E-01 0.27619702E+03</pdfrwt>
<totfact> 0.47649335E+03</totfact>
</mgrwt>
</event>
<event>
 9    1  0.7997082E-001  0.2767367E+03  0.7818608E-02  0.1097485E+00
         -4   -1    0    0    0  501 -0.00000000000E+00  0.00000000000E+00  0.27772982258E+03  0.27772982258E+03  0.00000000000E+00 0.  1.
          4   -1    0    0  501    0  0.00000000000E+00 -0.00000000000E+00 -0.68936789730E+02  0.68936789730E+02  0.00000000000E+00 0.  1.
         35    2    1    2    0    0  0.17763568394E-14  0.00000000000E+00  0.20879303285E+03  0.34666661231E+03  0.27673671517E+03 0.  0.
         25    2    3    3    0    0  0.13550765451E+02  0.39250067102E+02  0.12060526161E+03  0.18616565945E+03  0.13560174269E+03 0.  0.
         25    2    3    3    0    0 -0.13550765451E+02 -0.39250067102E+02  0.88187771241E+02  0.16050095286E+03  0.12751188909E+03 0.  0.
          5    1    4    4  502    0 -0.14562426632E+02 -0.45160500747E+02  0.66845778841E+02  0.82109580720E+02  0.47000000000E+01 0.  1.
         -5    1    4    4    0  502  0.28113192084E+02  0.84410567849E+02  0.53759482769E+02  0.10405607873E+03  0.47000000000E+01 0.  1.
          5    1    5    5  503    0  0.40094858757E+02 -0.62608053843E+02  0.39988976287E+02  0.84549242038E+02  0.47000000000E+01 0. -1.
         -5    1    5    5    0  503 -0.53645624208E+02  0.23357986741E+02  0.48198794953E+02  0.75951710818E+02  0.47000000000E+01 0. -1.
<mgrwt>
<rscale>  0 0.27673672E+03</rscale>
<asrwt>0</asrwt>
<pdfrwt beam="1">  1        4 0.10605660E-01 0.27673672E+03</pdfrwt>
<pdfrwt beam="2">  1       -4 0.42727664E-01 0.27673672E+03</pdfrwt>
<totfact> 0.68713919E+02</totfact>
</mgrwt>
</event>
<event>
 9    1  0.7997082E-001  0.2724351E+03  0.7818608E-02  0.1099894E+00
         -2   -1    0    0    0  501 -0.00000000000E+00  0.00000000000E+00  0.21955003623E+02  0.21955003623E+02  0.00000000000E+00 0.  1.
          2   -1    0    0  501    0  0.00000000000E+00 -0.00000000000E+00 -0.84514760631E+03  0.84514760631E+03  0.00000000000E+00 0.  1.
         35    2    1    2    0    0  0.71054273576E-14  0.00000000000E+00 -0.82319260269E+03  0.86710260993E+03  0.27243508407E+03 0.  0.
         25    2    3    3    0    0 -0.12438061482E+02 -0.35968239083E+02 -0.28878830992E+03  0.31692010283E+03  0.12486490314E+03 0.  0.
         25    2    3    3    0    0  0.12438061482E+02  0.35968239083E+02 -0.53440429277E+03  0.55018250710E+03  0.12515759424E+03 0.  0.
          5    1    4    4  502    0 -0.51405430179E+02 -0.13396043556E+02 -0.47487597222E+02  0.71408221689E+02  0.47000000000E+01 0.  1.
         -5    1    4    4    0  502  0.38967368698E+02 -0.22572195527E+02 -0.24130071270E+03  0.24551188114E+03  0.47000000000E+01 0.  1.
          5    1    5    5  503    0 -0.39929948916E+02 -0.16244950435E+02 -0.32852234792E+03  0.33137187919E+03  0.47000000000E+01 0. -1.
         -5    1    5    5    0  503  0.52368010397E+02  0.52213189518E+02 -0.20588194484E+03  0.21881062791E+03  0.47000000000E+01 0. -1.
<mgrwt>
<rscale>  0 0.27243508E+03</rscale>
<asrwt>0</asrwt>
<pdfrwt beam="1">  1        2 0.13002270E+00 0.27243508E+03</pdfrwt>
<pdfrwt beam="2">  1       -2 0.33776931E-02 0.27243508E+03</pdfrwt>
<totfact> 0.11670906E+04</totfact>
</mgrwt>
</event>
<event>
 9    1  0.7997082E-001  0.2818794E+03  0.7818608E-02  0.1094667E+00
         -2   -1    0    0    0  501 -0.00000000000E+00  0.00000000000E+00  0.50117599876E+02  0.50117599876E+02  0.00000000000E+00 0. -1.
          2   -1    0    0  501    0  0.00000000000E+00 -0.00000000000E+00 -0.39634784902E+03  0.39634784902E+03  0.00000000000E+00 0. -1.
         35    2    1    2    0    0 -0.17763568394E-14  0.14210854715E-13 -0.34623024914E+03  0.44646544889E+03  0.28187942748E+03 0.  0.
         25    2    3    3    0    0 -0.45518649772E+01  0.61225769678E+02 -0.13069959987E+03  0.18945428754E+03  0.12264268145E+03 0.  0.
         25    2    3    3    0    0  0.45518649772E+01 -0.61225769678E+02 -0.21553064927E+03  0.25701116135E+03  0.12582512443E+03 0.  0.
          5    1    4    4  502    0 -0.26559739979E+02 -0.17849289590E+02 -0.94020949818E+02  0.99428597151E+02  0.47000000000E+01 0.  1.
         -5    1    4    4    0  502  0.22007875002E+02  0.79075059269E+02 -0.36678650050E+02  0.90025690389E+02  0.47000000000E+01 0.  1.
          5    1    5    5  503    0  0.16087155041E+02  0.36315308327E+02 -0.45381473747E+02  0.60491043433E+02  0.47000000000E+01 0. -1.
         -5    1    5    5    0  503 -0.11535290064E+02 -0.97541078006E+02 -0.17014917553E+03  0.19652011792E+03  0.47000000000E+01 0. -1.
<mgrwt>
<rscale>  0 0.28187943E+03</rscale>
<asrwt>0</asrwt>
<pdfrwt beam="1">  1        2 0.60976591E-01 0.28187943E+03</pdfrwt>
<pdfrwt beam="2">  1       -2 0.77104001E-02 0.28187943E+03</pdfrwt>
<totfact> 0.80366028E+03</totfact>
</mgrwt>
</event>
<event>
 9    1  0.7997082E-001  0.2760464E+03  0.7818608E-02  0.1097868E+00
          1   -1    0    0  501    0  0.00000000000E+00  0.00000000000E+00  0.69737291012E+03  0.69737291012E+03  0.00000000000E+00 0.  1.
         -1   -1    0    0    0  501 -0.00000000000E+00 -0.00000000000E+00 -0.27317391082E+02  0.27317391082E+02  0.00000000000E+00 0.  1.
         35    2    1    2    0    0  0.35527136788E-14  0.71054273576E-14  0.67005551904E+03  0.72469030120E+03  0.27604643462E+03 0.  0.
         25    2    3    3    0    0 -0.15476561318E+02 -0.49255853595E+02  0.27049870370E+03  0.30265142756E+03  0.12554949159E+03 0.  0.
         25    2    3    3    0    0  0.15476561318E+02  0.49255853595E+02  0.39955681534E+03  0.42203887364E+03  0.12571992331E+03 0.  0.
          5    1    4    4  502    0 -0.17401683114E+02 -0.44400752011E+02  0.19792332758E+02  0.51846617926E+02  0.47000000000E+01 0. -1.
         -5    1    4    4    0  502  0.19251217959E+01 -0.48551015834E+01  0.25070637094E+03  0.25080480963E+03  0.47000000000E+01 0. -1.
          5    1    5    5  503    0  0.42903912073E+02 -0.19289714276E+02  0.71298916913E+02  0.85548023361E+02  0.47000000000E+01 0.  1.
         -5    1    5    5    0  503 -0.27427350755E+02  0.68545567870E+02  0.32825789843E+03  0.33649085028E+03  0.47000000000E+01 0.  1.
<mgrwt>
<rscale>  0 0.27604643E+03</rscale>
<asrwt>0</asrwt>
<pdfrwt beam="1">  1        1 0.10728813E+00 0.27604643E+03</pdfrwt>
<pdfrwt beam="2">  1       -1 0.42026761E-02 0.27604643E+03</pdfrwt>
<totfact> 0.64576844E+03</totfact>
</mgrwt>
</event>
<event>
 9    1  0.7997082E-001  0.2789977E+03  0.7818608E-02  0.1096238E+00
         -2   -1    0    0    0  501 -0.00000000000E+00  0.00000000000E+00  0.23918104621E+02  0.23918104621E+02  0.00000000000E+00 0.  1.
          2   -1    0    0  501    0  0.00000000000E+00 -0.00000000000E+00 -0.81360682744E+03  0.81360682744E+03  0.00000000000E+00 0.  1.
         35    2    1    2    0    0  0.00000000000E+00  0.00000000000E+00 -0.78968872282E+03  0.83752493206E+03  0.27899772916E+03 0.  0.
         25    2    3    3    0    0  0.14695382950E+02  0.57951913679E+02 -0.43952205657E+03  0.46089061728E+03  0.12516446901E+03 0.  0.
         25    2    3    3    0    0 -0.14695382950E+02 -0.57951913679E+02 -0.35016666625E+03  0.37663431478E+03  0.12514924827E+03 0.  0.
          5    1    4    4  502    0 -0.22360022206E+02 -0.14478230739E+02 -0.20296480878E+02  0.33817553052E+02  0.47000000000E+01 0.  1.
         -5    1    4    4    0  502  0.37055405156E+02  0.72430144418E+02 -0.41922557569E+03  0.42707306422E+03  0.47000000000E+01 0.  1.
          5    1    5    5  503    0  0.39297880275E+02  0.18192344761E+02 -0.14006993407E+03  0.14668660891E+03  0.47000000000E+01 0.  1.
         -5    1    5    5    0  503 -0.53993263225E+02 -0.76144258440E+02 -0.21009673217E+03  0.22994770588E+03  0.47000000000E+01 0.  1.
<mgrwt>
<rscale>  0 0.27899773E+03</rscale>
<asrwt>0</asrwt>
<pdfrwt beam="1">  1        2 0.12517029E+00 0.27899773E+03</pdfrwt>
<pdfrwt beam="2">  1       -2 0.36797083E-02 0.27899773E+03</pdfrwt>
<totfact> 0.10792515E+04</totfact>
</mgrwt>
</event>
<event>
 9    1  0.7997082E-001  0.2688801E+03  0.7818608E-02  0.1101922E+00
          1   -1    0    0  501    0  0.00000000000E+00  0.00000000000E+00  0.30216310772E+02  0.30216310772E+02  0.00000000000E+00 0.  1.
         -1   -1    0    0    0  501 -0.00000000000E+00 -0.00000000000E+00 -0.59815782786E+03  0.59815782786E+03  0.00000000000E+00 0.  1.
         35    2    1    2    0    0  0.71054273576E-14  0.71054273576E-14 -0.56794151709E+03  0.62837413864E+03  0.26888006856E+03 0.  0.
         25    2    3    3    0    0 -0.22722362454E+02 -0.23357080152E+02 -0.20199076472E+03  0.24025863309E+03  0.12594476087E+03 0.  0.
         25    2    3    3    0    0  0.22722362454E+02  0.23357080152E+02 -0.36595075237E+03  0.38811550555E+03  0.12510728811E+03 0.  0.
          5    1    4    4  502    0  0.14379816374E+02  0.34230406595E+02 -0.13725418082E+02  0.39861973812E+02  0.47000000000E+01 0. -1.
         -5    1    4    4    0  502 -0.37102178828E+02 -0.57587486747E+02 -0.18826534664E+03  0.20039665928E+03  0.47000000000E+01 0. -1.
          5    1    5    5  503    0 -0.57350377439E+01  0.26844622341E+02 -0.79839810081E+01  0.28971682024E+02  0.47000000000E+01 0.  1.
         -5    1    5    5    0  503  0.28457400198E+02 -0.34875421891E+01 -0.35796677136E+03  0.35914382352E+03  0.47000000000E+01 0.  1.
<mgrwt>
<rscale>  0 0.26888007E+03</rscale>
<asrwt>0</asrwt>
<pdfrwt beam="1">  1        1 0.46486637E-02 0.26888007E+03</pdfrwt>
<pdfrwt beam="2">  1       -1 0.92024272E-01 0.26888007E+03</pdfrwt>
<totfact> 0.22260775E+03</totfact>
</mgrwt>
</event>
<event>
 9    1  0.7997082E-001  0.2741924E+03  0.7818608E-02  0.1098904E+00
         -2   -1    0    0    0  501 -0.00000000000E+00  0.00000000000E+00  0.15251845402E+02  0.15251845402E+02  0.00000000000E+00 0. -1.
          2   -1    0    0  501    0  0.00000000000E+00 -0.00000000000E+00 -0.12323342057E+04  0.12323342057E+04  0.00000000000E+00 0. -1.
         35    2    1    2    0    0 -0.35527136788E-14  0.00000000000E+00 -0.12170823603E+04  0.12475860511E+04  0.27419241995E+03 0.  0.
         25    2    3    3    0    0  0.22032231447E+02 -0.27632571308E+02 -0.40992516836E+03  0.42999103453E+03  0.12491864513E+03 0.  0.
         25    2    3    3    0    0 -0.22032231447E+02  0.27632571308E+02 -0.80715719196E+03  0.81759501659E+03  0.12533914157E+03 0.  0.
          5    1    4    4  502    0  0.52634074087E+02  0.30067670038E+02 -0.24760844037E+03  0.25496360579E+03  0.47000000000E+01 0. -1.
         -5    1    4    4    0  502 -0.30601842640E+02 -0.57700241346E+02 -0.16231672800E+03  0.17502742874E+03  0.47000000000E+01 0. -1.
          5    1    5    5  503    0  0.87365501322E+01 -0.26153028678E+02 -0.61507573750E+03  0.61571142679E+03  0.47000000000E+01 0. -1.
         -5    1    5    5    0  503 -0.30768781579E+02  0.53785599986E+02 -0.19208145446E+03  0.20188358980E+03  0.47000000000E+01 0. -1.
<mgrwt>
<rscale>  0 0.27419242E+03</rscale>
<asrwt>0</asrwt>
<pdfrwt beam="1">  1        2 0.18958992E+00 0.27419242E+03</pdfrwt>
<pdfrwt beam="2">  1       -2 0.23464373E-02 0.27419242E+03</pdfrwt>
<totfact> 0.11677714E+04</totfact>
</mgrwt>
</event>
<event>
 9    1  0.7997082E-001  0.2760647E+03  0.7818608E-02  0.1097858E+00
          1   -1    0    0  501    0  0.00000000000E+00  0.00000000000E+00  0.72828383529E+03  0.72828383529E+03  0.00000000000E+00 0.  1.
         -1   -1    0    0    0  501 -0.00000000000E+00 -0.00000000000E+00 -0.26161401718E+02  0.26161401718E+02  0.00000000000E+00 0.  1.
         35    2    1    2    0    0 -0.14210854715E-13  0.00000000000E+00  0.70212243357E+03  0.75444523701E+03  0.27606467344E+03 0.  0.
         25    2    3    3    0    0 -0.34751860995E+02 -0.15183469165E+02  0.22567666342E+03  0.26050197490E+03  0.12447125345E+03 0.  0.
         25    2    3    3    0    0  0.34751860995E+02  0.15183469165E+02  0.47644577016E+03  0.49394326211E+03  0.12466412759E+03 0.  0.
          5    1    4    4  502    0 -0.45231510028E+02 -0.60503824537E+02  0.17942948754E+03  0.19473991189E+03  0.47000000000E+01 0. -1.
         -5    1    4    4    0  502  0.10479649033E+02  0.45320355372E+02  0.46247175877E+02  0.65762063011E+02  0.47000000000E+01 0. -1.
          5    1    5    5  503    0 -0.37848702929E+02  0.38146294761E+02  0.20549857363E+03  0.21246039133E+03  0.47000000000E+01 0. -1.
         -5    1    5    5    0  503  0.72600563924E+02 -0.22962825596E+02  0.27094719653E+03  0.28148287079E+03  0.47000000000E+01 0. -1.
<mgrwt>
<rscale>  0 0.27606467E+03</rscale>
<asrwt>0</asrwt>
<pdfrwt beam="1">  1        1 0.11204365E+00 0.27606467E+03</pdfrwt>
<pdfrwt beam="2">  1       -1 0.40248316E-02 0.27606467E+03</pdfrwt>
<totfact> 0.64618144E+03</totfact>
</mgrwt>
</event>
<event>
 9    1  0.7997082E-001  0.2760919E+03  0.7818608E-02  0.1097843E+00
         -1   -1    0    0    0  501 -0.00000000000E+00  0.00000000000E+00  0.10762911941E+02  0.10762911941E+02  0.00000000000E+00 0. -1.
          1   -1    0    0  501    0  0.00000000000E+00 -0.00000000000E+00 -0.17705875764E+04  0.17705875764E+04  0.00000000000E+00 0. -1.
         35    2    1    2    0    0  0.00000000000E+00 -0.71054273576E-14 -0.17598246645E+04  0.17813504884E+04  0.27609185550E+03 0.  0.
         25    2    3    3    0    0 -0.19102078997E+02  0.26014987265E+02 -0.49755171416E+03  0.51249465215E+03  0.11853856434E+03 0.  0.
         25    2    3    3    0    0  0.19102078997E+02 -0.26014987265E+02 -0.12622729503E+04  0.12688558362E+04  0.12498185066E+03 0.  0.
          5    1    4    4  502    0 -0.24606738747E+02  0.67236968378E+02 -0.21015433379E+03  0.22206583600E+03  0.47000000000E+01 0.  1.
         -5    1    4    4    0  502  0.55046597505E+01 -0.41221981113E+02 -0.28739738037E+03  0.29042881615E+03  0.47000000000E+01 0.  1.
          5    1    5    5  503    0  0.57797549159E+02 -0.34226862526E+02 -0.39727640926E+03  0.40294251471E+03  0.47000000000E+01 0. -1.
         -5    1    5    5    0  503 -0.38695470162E+02  0.82118752602E+01 -0.86499654108E+03  0.86591332152E+03  0.47000000000E+01 0. -1.
<mgrwt>
<rscale>  0 0.27609186E+03</rscale>
<asrwt>0</asrwt>
<pdfrwt beam="1">  1        1 0.27239795E+00 0.27609186E+03</pdfrwt>
<pdfrwt beam="2">  1       -1 0.16558334E-02 0.27609186E+03</pdfrwt>
<totfact> 0.42971888E+03</totfact>
</mgrwt>
</event>
<event>
 9    1  0.7997082E-001  0.2748460E+03  0.7818608E-02  0.1098538E+00
         -2   -1    0    0    0  501 -0.00000000000E+00  0.00000000000E+00  0.19682817301E+02  0.19682817301E+02  0.00000000000E+00 0. -1.
          2   -1    0    0  501    0  0.00000000000E+00 -0.00000000000E+00 -0.95947009975E+03  0.95947009975E+03  0.00000000000E+00 0. -1.
         35    2    1    2    0    0 -0.71054273576E-14  0.71054273576E-14 -0.93978728245E+03  0.97915291705E+03  0.27484595452E+03 0.  0.
         25    2    3    3    0    0  0.20594416359E+02  0.49601792869E+02 -0.42347011514E+03  0.44523075563E+03  0.12656626527E+03 0.  0.
         25    2    3    3    0    0 -0.20594416359E+02 -0.49601792869E+02 -0.51631716731E+03  0.53392216142E+03  0.12491993177E+03 0.  0.
          5    1    4    4  502    0 -0.33286243529E+02 -0.31808458421E+01 -0.28911190251E+03  0.29107709281E+03  0.47000000000E+01 0. -1.
         -5    1    4    4    0  502  0.53880659888E+02  0.52782638712E+02 -0.13435821264E+03  0.15415366282E+03  0.47000000000E+01 0. -1.
          5    1    5    5  503    0  0.26570782185E+02  0.27137567900E+02 -0.24587128311E+03  0.24883173414E+03  0.47000000000E+01 0. -1.
         -5    1    5    5    0  503 -0.47165198544E+02 -0.76739360769E+02 -0.27044588420E+03  0.28509042728E+03  0.47000000000E+01 0. -1.
<mgrwt>
<rscale>  0 0.27484595E+03</rscale>
<asrwt>0</asrwt>
<pdfrwt beam="1">  1        2 0.14761078E+00 0.27484595E+03</pdfrwt>
<pdfrwt beam="2">  1       -2 0.30281259E-02 0.27484595E+03</pdfrwt>
<totfact> 0.11592753E+04</totfact>
</mgrwt>
</event>
<event>
 9    1  0.7997082E-001  0.2727834E+03  0.7818608E-02  0.1099697E+00
          2   -1    0    0  501    0  0.00000000000E+00  0.00000000000E+00  0.84129913672E+03  0.84129913672E+03  0.00000000000E+00 0. -1.
         -2   -1    0    0    0  501 -0.00000000000E+00 -0.00000000000E+00 -0.22111874556E+02  0.22111874556E+02  0.00000000000E+00 0. -1.
         35    2    1    2    0    0  0.00000000000E+00 -0.71054273576E-14  0.81918726216E+03  0.86341101127E+03  0.27278343773E+03 0.  0.
         25    2    3    3    0    0 -0.17410226944E+02 -0.50367636409E+02  0.40629185763E+03  0.42867063736E+03  0.12587861995E+03 0.  0.
         25    2    3    3    0    0  0.17410226944E+02  0.50367636409E+02  0.41289540453E+03  0.43474037391E+03  0.12520608143E+03 0.  0.
          5    1    4    4  502    0 -0.22281486572E+02  0.39929008509E+02  0.12662045977E+03  0.13470568361E+03  0.47000000000E+01 0. -1.
         -5    1    4    4    0  502  0.48712596280E+01 -0.90296644918E+02  0.27967139787E+03  0.29396495376E+03  0.47000000000E+01 0. -1.
          5    1    5    5  503    0  0.38769738723E+02  0.74331288490E+02  0.37750100072E+03  0.38672642609E+03  0.47000000000E+01 0. -1.
         -5    1    5    5    0  503 -0.21359511779E+02 -0.23963652081E+02  0.35394403809E+02  0.48013947822E+02  0.47000000000E+01 0. -1.
<mgrwt>
<rscale>  0 0.27278344E+03</rscale>
<asrwt>0</asrwt>
<pdfrwt beam="1">  1        2 0.12943061E+00 0.27278344E+03</pdfrwt>
<pdfrwt beam="2">  1       -2 0.34018275E-02 0.27278344E+03</pdfrwt>
<totfact> 0.11616642E+04</totfact>
</mgrwt>
</event>
<event>
 9    1  0.7997082E-001  0.2634192E+03  0.7818608E-02  0.1105106E+00
         -2   -1    0    0    0  501 -0.00000000000E+00  0.00000000000E+00  0.60469104243E+01  0.60469104243E+01  0.00000000000E+00 0. -1.
          2   -1    0    0  501    0  0.00000000000E+00 -0.00000000000E+00 -0.28688064145E+04  0.28688064145E+04  0.00000000000E+00 0. -1.
         35    2    1    2    0    0  0.00000000000E+00  0.71054273576E-14 -0.28627595041E+04  0.28748533249E+04  0.26341917480E+03 0.  0.
         25    2    3    3    0    0 -0.26528270368E+02 -0.18516104191E+02 -0.11945684101E+04  0.12015707204E+04  0.12542692912E+03 0.  0.
         25    2    3    3    0    0  0.26528270368E+02  0.18516104191E+02 -0.16681910940E+04  0.16732826045E+04  0.12635882728E+03 0.  0.
          5    1    4    4  502    0  0.30034781363E+02 -0.54085030181E+02 -0.52156608339E+03  0.52524332259E+03  0.47000000000E+01 0. -1.
         -5    1    4    4    0  502 -0.56563051731E+02  0.35568925990E+02 -0.67300232667E+03  0.67632739780E+03  0.47000000000E+01 0. -1.
          5    1    5    5  503    0 -0.17660393565E+01 -0.52414009718E+02 -0.56849281441E+03  0.57092601740E+03  0.47000000000E+01 0.  1.
         -5    1    5    5    0  503  0.28294309725E+02  0.70930113909E+02 -0.10996982796E+04  0.11023565871E+04  0.47000000000E+01 0.  1.
<mgrwt>
<rscale>  0 0.26341917E+03</rscale>
<asrwt>0</asrwt>
<pdfrwt beam="1">  1        2 0.44135443E+00 0.26341917E+03</pdfrwt>
<pdfrwt beam="2">  1       -2 0.93029476E-03 0.26341917E+03</pdfrwt>
<totfact> 0.58923421E+03</totfact>
</mgrwt>
</event>
<event>
 9    1  0.7997082E-001  0.2750951E+03  0.7818608E-02  0.1098398E+00
          2   -1    0    0  501    0  0.00000000000E+00  0.00000000000E+00  0.75050741809E+03  0.75050741809E+03  0.00000000000E+00 0. -1.
         -2   -1    0    0    0  501 -0.00000000000E+00 -0.00000000000E+00 -0.25208713190E+02  0.25208713190E+02  0.00000000000E+00 0. -1.
         35    2    1    2    0    0  0.17763568394E-14 -0.71054273576E-14  0.72529870490E+03  0.77571613128E+03  0.27509508356E+03 0.  0.
         25    2    3    3    0    0  0.32032105954E+01 -0.29052742475E+02  0.49495509466E+03  0.51138003928E+03  0.12519854808E+03 0.  0.
         25    2    3    3    0    0 -0.32032105954E+01  0.29052742475E+02  0.23034361023E+03  0.26433609199E+03  0.12633712182E+03 0.  0.
          5    1    4    4  502    0  0.26078133022E+02 -0.60775041685E+01  0.46845642730E+03  0.46924462635E+03  0.47000000000E+01 0.  1.
         -5    1    4    4    0  502 -0.22874922427E+02 -0.22975238307E+02  0.26498667367E+02  0.42135412938E+02  0.47000000000E+01 0.  1.
          5    1    5    5  503    0 -0.14406000926E+02  0.75608169632E+02  0.17349309847E+03  0.18985803485E+03  0.47000000000E+01 0. -1.
         -5    1    5    5    0  503  0.11202790331E+02 -0.46555427156E+02  0.56850511760E+02  0.74478057146E+02  0.47000000000E+01 0. -1.
<mgrwt>
<rscale>  0 0.27509508E+03</rscale>
<asrwt>0</asrwt>
<pdfrwt beam="1">  1        2 0.11546266E+00 0.27509508E+03</pdfrwt>
<pdfrwt beam="2">  1       -2 0.38782641E-02 0.27509508E+03</pdfrwt>
<totfact> 0.11038099E+04</totfact>
</mgrwt>
</event>
<event>
 9    1  0.7997082E-001  0.2752811E+03  0.7818608E-02  0.1098295E+00
         -2   -1    0    0    0  501 -0.00000000000E+00  0.00000000000E+00  0.77894659330E+01  0.77894659330E+01  0.00000000000E+00 0. -1.
          2   -1    0    0  501    0  0.00000000000E+00 -0.00000000000E+00 -0.24321201211E+04  0.24321201211E+04  0.00000000000E+00 0. -1.
         35    2    1    2    0    0  0.00000000000E+00  0.00000000000E+00 -0.24243306551E+04  0.24399095870E+04  0.27528106966E+03 0.  0.
         25    2    3    3    0    0 -0.26043716881E+01 -0.54684049922E+02 -0.11686704407E+04  0.11768717416E+04  0.12743378362E+03 0.  0.
         25    2    3    3    0    0  0.26043716881E+01  0.54684049922E+02 -0.12556602145E+04  0.12630378454E+04  0.12483948359E+03 0.  0.
          5    1    4    4  502    0 -0.63565165236E+02 -0.24820415990E+02 -0.48025512389E+03  0.48510169790E+03  0.47000000000E+01 0.  1.
         -5    1    4    4    0  502  0.60960793548E+02 -0.29863633932E+02 -0.68841531680E+03  0.69177004371E+03  0.47000000000E+01 0.  1.
          5    1    5    5  503    0 -0.22076025747E+02 -0.10565310241E+02 -0.55450930830E+02  0.60793687363E+02  0.47000000000E+01 0. -1.
         -5    1    5    5    0  503  0.24680397435E+02  0.65249360163E+02 -0.12002092836E+04  0.12022441580E+04  0.47000000000E+01 0. -1.
<mgrwt>
<rscale>  0 0.27528107E+03</rscale>
<asrwt>0</asrwt>
<pdfrwt beam="1">  1        2 0.37417257E+00 0.27528107E+03</pdfrwt>
<pdfrwt beam="2">  1       -2 0.11983786E-02 0.27528107E+03</pdfrwt>
<totfact> 0.71553746E+03</totfact>
</mgrwt>
</event>
<event>
 9    1  0.7997082E-001  0.2737941E+03  0.7818608E-02  0.1099128E+00
         -2   -1    0    0    0  501 -0.00000000000E+00  0.00000000000E+00  0.21651364855E+03  0.21651364855E+03  0.00000000000E+00 0. -1.
          2   -1    0    0  501    0  0.00000000000E+00 -0.00000000000E+00 -0.86557118079E+02  0.86557118079E+02  0.00000000000E+00 0. -1.
         35    2    1    2    0    0 -0.14210854715E-13  0.00000000000E+00  0.12995653047E+03  0.30307076663E+03  0.27379406453E+03 0.  0.
         25    2    3    3    0    0  0.39497330017E+02 -0.84447270202E+01  0.24156448091E+02  0.13421236003E+03  0.12569037795E+03 0.  0.
         25    2    3    3    0    0 -0.39497330017E+02  0.84447270202E+01  0.10580008238E+03  0.16885840660E+03  0.12525235149E+03 0.  0.
          5    1    4    4  502    0  0.77048574344E+02 -0.59485753795E+01  0.46384306169E+02  0.90252214468E+02  0.47000000000E+01 0.  1.
         -5    1    4    4    0  502 -0.37551244327E+02 -0.24961516407E+01 -0.22227858079E+02  0.43960145567E+02  0.47000000000E+01 0.  1.
          5    1    5    5  503    0  0.82868367449E+01  0.27792661607E+01  0.11846445631E+03  0.11887940694E+03  0.47000000000E+01 0. -1.
         -5    1    5    5    0  503 -0.47784166762E+02  0.56654608595E+01 -0.12664373933E+02  0.49978999660E+02  0.47000000000E+01 0. -1.
<mgrwt>
<rscale>  0 0.27379406E+03</rscale>
<asrwt>0</asrwt>
<pdfrwt beam="1">  1        2 0.13316480E-01 0.27379406E+03</pdfrwt>
<pdfrwt beam="2">  1       -2 0.33309792E-01 0.27379406E+03</pdfrwt>
<totfact> 0.37711206E+03</totfact>
</mgrwt>
</event>
<event>
 8    1  0.7997082E-001  0.3410270E+03  0.7818608E-02  0.1066359E+00
         -1   -1    0    0    0  501 -0.00000000000E+00  0.00000000000E+00  0.73751907168E+03  0.73751907168E+03  0.00000000000E+00 0.  1.
          1   -1    0    0  501    0  0.00000000000E+00 -0.00000000000E+00 -0.39422504976E+02  0.39422504976E+02  0.00000000000E+00 0.  1.
         25    2    1    2    0    0  0.77121830334E+02 -0.21723513271E+02  0.54531992223E+03  0.56524397306E+03  0.12532854328E+03 0.  0.
         25    2    1    2    0    0 -0.77121830334E+02  0.21723513271E+02  0.15277664448E+03  0.21169760360E+03  0.12270079269E+03 0.  0.
          5    1    3    3  502    0  0.10531949145E+03 -0.40304597199E+02  0.37822470173E+03  0.39470580289E+03  0.47000000000E+01 0.  1.
         -5    1    3    3    0  502 -0.28197661119E+02  0.18581083928E+02  0.16709522050E+03  0.17053817018E+03  0.47000000000E+01 0.  1.
          5    1    4    4  503    0 -0.50823549317E+02  0.47485645444E+02  0.18134041917E+02  0.72033694647E+02  0.47000000000E+01 0.  1.
         -5    1    4    4    0  503 -0.26298281017E+02 -0.25762132173E+02  0.13464260256E+03  0.13966390895E+03  0.47000000000E+01 0.  1.
<mgrwt>
<rscale>  0 0.34102697E+03</rscale>
<asrwt>0</asrwt>
<pdfrwt beam="1">  1        1 0.60650013E-02 0.34102697E+03</pdfrwt>
<pdfrwt beam="2">  1       -1 0.11346446E+00 0.34102697E+03</pdfrwt>
<totfact> 0.96350353E+02</totfact>
</mgrwt>
</event>
<event>
 9    1  0.7997082E-001  0.2829790E+03  0.7818608E-02  0.1094073E+00
          1   -1    0    0  501    0  0.00000000000E+00  0.00000000000E+00  0.81306775761E+03  0.81306775761E+03  0.00000000000E+00 0.  1.
         -1   -1    0    0    0  501 -0.00000000000E+00 -0.00000000000E+00 -0.24621901841E+02  0.24621901841E+02  0.00000000000E+00 0.  1.
         35    2    1    2    0    0  0.00000000000E+00  0.14210854715E-13  0.78844585577E+03  0.83768965945E+03  0.28297897108E+03 0.  0.
         25    2    3    3    0    0 -0.27368711189E+02 -0.34104788539E+02  0.52590490827E+03  0.54228589578E+03  0.12484325076E+03 0.  0.
         25    2    3    3    0    0  0.27368711189E+02  0.34104788539E+02  0.26254094750E+03  0.29540376367E+03  0.12815401487E+03 0.  0.
          5    1    4    4  502    0  0.47986664538E+02 -0.67435798582E+01  0.25999199395E+03  0.26451110139E+03  0.47000000000E+01 0.  1.
         -5    1    4    4    0  502 -0.75355375727E+02 -0.27361208681E+02  0.26591291433E+03  0.27777479439E+03  0.47000000000E+01 0.  1.
          5    1    5    5  503    0  0.16208694891E+01 -0.23281289971E+02 -0.15777059908E+01  0.23858433243E+02  0.47000000000E+01 0.  1.
         -5    1    5    5    0  503  0.25747841700E+02  0.57386078510E+02  0.26411865349E+03  0.27154533043E+03  0.47000000000E+01 0.  1.
<mgrwt>
<rscale>  0 0.28297897E+03</rscale>
<asrwt>0</asrwt>
<pdfrwt beam="1">  1        1 0.12508733E+00 0.28297897E+03</pdfrwt>
<pdfrwt beam="2">  1       -1 0.37879855E-02 0.28297897E+03</pdfrwt>
<totfact> 0.59880750E+03</totfact>
</mgrwt>
</event>
<event>
 9    1  0.7997082E-001  0.2931965E+03  0.7818608E-02  0.1088692E+00
          2   -1    0    0  501    0  0.00000000000E+00  0.00000000000E+00  0.47056472960E+02  0.47056472960E+02  0.00000000000E+00 0. -1.
         -2   -1    0    0    0  501 -0.00000000000E+00 -0.00000000000E+00 -0.45670762853E+03  0.45670762853E+03  0.00000000000E+00 0. -1.
         35    2    1    2    0    0  0.00000000000E+00 -0.35527136788E-14 -0.40965115557E+03  0.50376410149E+03  0.29319652230E+03 0.  0.
         25    2    3    3    0    0 -0.74873049537E+02  0.13354716194E-01 -0.20820593268E+03  0.25470342581E+03  0.12616715494E+03 0.  0.
         25    2    3    3    0    0  0.74873049537E+02 -0.13354716194E-01 -0.20144522289E+03  0.24906067569E+03  0.12587719660E+03 0.  0.
          5    1    4    4  502    0 -0.37623954550E+02 -0.35636895191E+02 -0.14242423808E+02  0.53948928541E+02  0.47000000000E+01 0. -1.
         -5    1    4    4    0  502 -0.37249094987E+02  0.35650249907E+02 -0.19396350888E+03  0.20075449726E+03  0.47000000000E+01 0. -1.
          5    1    5    5  503    0  0.36562937062E+02 -0.14101547231E+02  0.38851572643E+01  0.39659632473E+02  0.47000000000E+01 0.  1.
         -5    1    5    5    0  503  0.38310112475E+02  0.14088192515E+02 -0.20533038015E+03  0.20940104322E+03  0.47000000000E+01 0.  1.
<mgrwt>
<rscale>  0 0.29319652E+03</rscale>
<asrwt>0</asrwt>
<pdfrwt beam="1">  1        2 0.72394573E-02 0.29319652E+03</pdfrwt>
<pdfrwt beam="2">  1       -2 0.70262713E-01 0.29319652E+03</pdfrwt>
<totfact> 0.18306063E+03</totfact>
</mgrwt>
</event>
<event>
 9    1  0.7997082E-001  0.2699803E+03  0.7818608E-02  0.1101291E+00
         -2   -1    0    0    0  501 -0.00000000000E+00  0.00000000000E+00  0.65312022704E+03  0.65312022704E+03  0.00000000000E+00 0.  1.
          2   -1    0    0  501    0  0.00000000000E+00 -0.00000000000E+00 -0.27900443177E+02  0.27900443177E+02  0.00000000000E+00 0.  1.
         35    2    1    2    0    0  0.00000000000E+00  0.35527136788E-14  0.62521978387E+03  0.68102067022E+03  0.26998032360E+03 0.  0.
         25    2    3    3    0    0 -0.42086656934E+02  0.13138267753E+02  0.34744291661E+03  0.37189609743E+03  0.12508487601E+03 0.  0.
         25    2    3    3    0    0  0.42086656934E+02 -0.13138267753E+02  0.27777686725E+03  0.30912457279E+03  0.12827358555E+03 0.  0.
          5    1    4    4  502    0  0.88993124528E+01  0.11316645241E+02  0.30497034579E+03  0.30534614134E+03  0.47000000000E+01 0.  1.
         -5    1    4    4    0  502 -0.50985969387E+02  0.18216225119E+01  0.42472570826E+02  0.66549956089E+02  0.47000000000E+01 0.  1.
          5    1    5    5  503    0  0.62641326092E+02 -0.54655239213E+02  0.13178103374E+03  0.15588284627E+03  0.47000000000E+01 0.  1.
         -5    1    5    5    0  503 -0.20554669158E+02  0.41516971460E+02  0.14599583352E+03  0.15324172652E+03  0.47000000000E+01 0.  1.
<mgrwt>
<rscale>  0 0.26998032E+03</rscale>
<asrwt>0</asrwt>
<pdfrwt beam="1">  1        2 0.42923764E-02 0.26998032E+03</pdfrwt>
<pdfrwt beam="2">  1       -2 0.10048002E+00 0.26998032E+03</pdfrwt>
<totfact> 0.16322139E+03</totfact>
</mgrwt>
</event>
<event>
 9    1  0.7997082E-001  0.2751638E+03  0.7818608E-02  0.1098360E+00
          2   -1    0    0  501    0  0.00000000000E+00  0.00000000000E+00  0.53078733243E+03  0.53078733243E+03  0.00000000000E+00 0. -1.
         -2   -1    0    0    0  501 -0.00000000000E+00 -0.00000000000E+00 -0.35661713126E+02  0.35661713126E+02  0.00000000000E+00 0. -1.
         35    2    1    2    0    0  0.00000000000E+00 -0.88817841970E-15  0.49512561931E+03  0.56644904556E+03  0.27516384632E+03 0.  0.
         25    2    3    3    0    0 -0.44010606036E+02  0.31466335736E+01  0.16894864355E+03  0.21543763150E+03  0.12618595073E+03 0.  0.
         25    2    3    3    0    0  0.44010606036E+02 -0.31466335736E+01  0.32617697576E+03  0.35101141406E+03  0.12194571964E+03 0.  0.
          5    1    4    4  502    0 -0.26870259681E+02 -0.55428149841E+02  0.12700961878E+03  0.14123676544E+03  0.47000000000E+01 0.  1.
         -5    1    4    4    0  502 -0.17140346355E+02  0.58574783415E+02  0.41939024776E+02  0.74200866063E+02  0.47000000000E+01 0.  1.
          5    1    5    5  503    0 -0.27772956745E+02 -0.74856608076E+01  0.17418901786E+02  0.33954092294E+02  0.47000000000E+01 0. -1.
         -5    1    5    5    0  503  0.71783562781E+02  0.43390272340E+01  0.30875807397E+03  0.31705732177E+03  0.47000000000E+01 0. -1.
<mgrwt>
<rscale>  0 0.27516385E+03</rscale>
<asrwt>0</asrwt>
<pdfrwt beam="1">  1        2 0.81659584E-01 0.27516385E+03</pdfrwt>
<pdfrwt beam="2">  1       -2 0.54864178E-02 0.27516385E+03</pdfrwt>
<totfact> 0.98250446E+03</totfact>
</mgrwt>
</event>
<event>
 9    1  0.7997082E-001  0.2958832E+03  0.7818608E-02  0.1087317E+00
          1   -1    0    0  501    0  0.00000000000E+00  0.00000000000E+00  0.61001396284E+03  0.61001396284E+03  0.00000000000E+00 0.  1.
         -1   -1    0    0    0  501 -0.00000000000E+00 -0.00000000000E+00 -0.35879035101E+02  0.35879035101E+02  0.00000000000E+00 0.  1.
         35    2    1    2    0    0  0.35527136788E-14  0.00000000000E+00  0.57413492774E+03  0.64589299794E+03  0.29588316873E+03 0.  0.
         25    2    3    3    0    0 -0.21500502351E+01 -0.31301197365E+02  0.12825540586E+03  0.18186543288E+03  0.12506477870E+03 0.  0.
         25    2    3    3    0    0  0.21500502351E+01  0.31301197365E+02  0.44587952187E+03  0.46402756506E+03  0.12461398570E+03 0.  0.
          5    1    4    4  502    0 -0.21524759194E+02  0.24375854655E+02 -0.75752223279E+01  0.33719008613E+02  0.47000000000E+01 0.  1.
         -5    1    4    4    0  502  0.19374708959E+02 -0.55677052020E+02  0.13583062819E+03  0.14814642427E+03  0.47000000000E+01 0.  1.
          5    1    5    5  503    0  0.54801868713E+02  0.39657460759E+02  0.32232532310E+03  0.32938072639E+03  0.47000000000E+01 0. -1.
         -5    1    5    5    0  503 -0.52651818478E+02 -0.83562633939E+01  0.12355419877E+03  0.13464683866E+03  0.47000000000E+01 0. -1.
<mgrwt>
<rscale>  0 0.29588317E+03</rscale>
<asrwt>0</asrwt>
<pdfrwt beam="1">  1        1 0.93848294E-01 0.29588317E+03</pdfrwt>
<pdfrwt beam="2">  1       -1 0.55198520E-02 0.29588317E+03</pdfrwt>
<totfact> 0.52049231E+03</totfact>
</mgrwt>
</event>
<event>
 9    1  0.7997082E-001  0.2743935E+03  0.7818608E-02  0.1098791E+00
         -2   -1    0    0    0  501 -0.00000000000E+00  0.00000000000E+00  0.12312020809E+03  0.12312020809E+03  0.00000000000E+00 0.  1.
          2   -1    0    0  501    0  0.00000000000E+00 -0.00000000000E+00 -0.15288264633E+03  0.15288264633E+03  0.00000000000E+00 0.  1.
         35    2    1    2    0    0  0.71054273576E-14 -0.71054273576E-14 -0.29762438248E+02  0.27600285442E+03  0.27439346369E+03 0.  0.
         25    2    3    3    0    0  0.43905925215E+02  0.17359517615E+02  0.68083135390E+01  0.13696836498E+03  0.12839352301E+03 0.  0.
         25    2    3    3    0    0 -0.43905925215E+02 -0.17359517615E+02 -0.36570751787E+02  0.13903448944E+03  0.12555511239E+03 0.  0.
          5    1    4    4  502    0  0.11070192522E+02  0.65767558751E+02  0.30749261323E+02  0.73590271221E+02  0.47000000000E+01 0.  1.
         -5    1    4    4    0  502  0.32835732693E+02 -0.48408041136E+02 -0.23940947784E+02  0.63378093762E+02  0.47000000000E+01 0.  1.
          5    1    5    5  503    0 -0.41732992419E+02  0.78773217216E+01  0.39825636009E+02  0.58411181612E+02  0.47000000000E+01 0.  1.
         -5    1    5    5    0  503 -0.21729327960E+01 -0.25236839336E+02 -0.76396387796E+02  0.80623307827E+02  0.47000000000E+01 0.  1.
<mgrwt>
<rscale>  0 0.27439346E+03</rscale>
<asrwt>0</asrwt>
<pdfrwt beam="1">  1        2 0.23520407E-01 0.27439346E+03</pdfrwt>
<pdfrwt beam="2">  1       -2 0.18941570E-01 0.27439346E+03</pdfrwt>
<totfact> 0.52825655E+03</totfact>
</mgrwt>
</event>
<event>
 9    1  0.7997082E-001  0.2784391E+03  0.7818608E-02  0.1096545E+00
         -1   -1    0    0    0  501 -0.00000000000E+00  0.00000000000E+00  0.84757728022E+01  0.84757728022E+01  0.00000000000E+00 0. -1.
          1   -1    0    0  501    0  0.00000000000E+00 -0.00000000000E+00 -0.22867634643E+04  0.22867634643E+04  0.00000000000E+00 0. -1.
         35    2    1    2    0    0  0.71054273576E-14  0.00000000000E+00 -0.22782876915E+04  0.22952392371E+04  0.27843913213E+03 0.  0.
         25    2    3    3    0    0  0.94799624757E+01  0.59613053332E+02 -0.11859787416E+04  0.11941633670E+04  0.12584508648E+03 0.  0.
         25    2    3    3    0    0 -0.94799624757E+01 -0.59613053332E+02 -0.10923089499E+04  0.11010758701E+04  0.12484247607E+03 0.  0.
          5    1    4    4  502    0  0.64610809748E+02  0.48556252630E+02 -0.59189651300E+03  0.59740759830E+03  0.47000000000E+01 0.  1.
         -5    1    4    4    0  502 -0.55130847272E+02  0.11056800702E+02 -0.59408222858E+03  0.59675576870E+03  0.47000000000E+01 0.  1.
          5    1    5    5  503    0  0.42066910841E+02 -0.39431703489E+01 -0.15607782295E+03  0.16176387235E+03  0.47000000000E+01 0. -1.
         -5    1    5    5    0  503 -0.51546873317E+02 -0.55669882983E+02 -0.93623112696E+03  0.93931199774E+03  0.47000000000E+01 0. -1.
<mgrwt>
<rscale>  0 0.27843913E+03</rscale>
<asrwt>0</asrwt>
<pdfrwt beam="1">  1        1 0.35181015E+00 0.27843913E+03</pdfrwt>
<pdfrwt beam="2">  1       -1 0.13039636E-02 0.27843913E+03</pdfrwt>
<totfact> 0.28063142E+03</totfact>
</mgrwt>
</event>
<event>
 9    1  0.7997082E-001  0.2686786E+03  0.7818608E-02  0.1102038E+00
          1   -1    0    0  501    0  0.00000000000E+00  0.00000000000E+00  0.21155537507E+04  0.21155537507E+04  0.00000000000E+00 0. -1.
         -1   -1    0    0    0  501 -0.00000000000E+00 -0.00000000000E+00 -0.85306511640E+01  0.85306511640E+01  0.00000000000E+00 0. -1.
         35    2    1    2    0    0  0.00000000000E+00  0.71054273576E-14  0.21070230996E+04  0.21240844019E+04  0.26867862636E+03 0.  0.
         25    2    3    3    0    0 -0.35260200813E+02 -0.23688686095E+02  0.86389499368E+03  0.87394350967E+03  0.12513297878E+03 0.  0.
         25    2    3    3    0    0  0.35260200813E+02  0.23688686095E+02  0.12431281059E+04  0.12501408922E+04  0.12522111307E+03 0.  0.
          5    1    4    4  502    0 -0.23111947530E+02 -0.75093386588E+02  0.54925164278E+03  0.55486271809E+03  0.47000000000E+01 0. -1.
         -5    1    4    4    0  502 -0.12148253283E+02  0.51404700493E+02  0.31464335091E+03  0.31908079159E+03  0.47000000000E+01 0. -1.
          5    1    5    5  503    0 -0.24375668054E+02  0.47788834933E+02  0.29887046209E+03  0.30368336973E+03  0.47000000000E+01 0.  1.
         -5    1    5    5    0  503  0.59635868867E+02 -0.24100148838E+02  0.94425764379E+03  0.94645752249E+03  0.47000000000E+01 0.  1.
<mgrwt>
<rscale>  0 0.26867863E+03</rscale>
<asrwt>0</asrwt>
<pdfrwt beam="1">  1        1 0.32546939E+00 0.26867863E+03</pdfrwt>
<pdfrwt beam="2">  1       -1 0.13124096E-02 0.26867863E+03</pdfrwt>
<totfact> 0.35976712E+03</totfact>
</mgrwt>
</event>
<event>
 9    1  0.7997082E-001  0.2750931E+03  0.7818608E-02  0.1098400E+00
          2   -1    0    0  501    0  0.00000000000E+00  0.00000000000E+00  0.60206457754E+03  0.60206457754E+03  0.00000000000E+00 0.  1.
         -2   -1    0    0    0  501 -0.00000000000E+00 -0.00000000000E+00 -0.31423636738E+02  0.31423636738E+02  0.00000000000E+00 0.  1.
         35    2    1    2    0    0  0.35527136788E-14  0.00000000000E+00  0.57064094080E+03  0.63348821428E+03  0.27509313752E+03 0.  0.
         25    2    3    3    0    0 -0.15053929021E+01  0.36394842079E+02  0.17845695493E+03  0.22007210138E+03  0.12352325410E+03 0.  0.
         25    2    3    3    0    0  0.15053929021E+01 -0.36394842079E+02  0.39218398587E+03  0.41341611290E+03  0.12560952549E+03 0.  0.
          5    1    4    4  502    0 -0.19515151202E+02  0.38548544929E+02  0.19206105031E+03  0.19691716149E+03  0.47000000000E+01 0.  1.
         -5    1    4    4    0  502  0.18009758300E+02 -0.21537028497E+01 -0.13604095383E+02  0.23154939887E+02  0.47000000000E+01 0.  1.
          5    1    5    5  503    0 -0.43603009068E+01 -0.50271590921E+02  0.51106354242E+02  0.71973568215E+02  0.47000000000E+01 0.  1.
         -5    1    5    5    0  503  0.58656938090E+01  0.13876748842E+02  0.34107763163E+03  0.34144254469E+03  0.47000000000E+01 0.  1.
<mgrwt>
<rscale>  0 0.27509314E+03</rscale>
<asrwt>0</asrwt>
<pdfrwt beam="1">  1        2 0.92625311E-01 0.27509314E+03</pdfrwt>
<pdfrwt beam="2">  1       -2 0.48344061E-02 0.27509314E+03</pdfrwt>
<totfact> 0.10309817E+04</totfact>
</mgrwt>
</event>
<event>
 9    1  0.7997082E-001  0.2718779E+03  0.7818608E-02  0.1100210E+00
          1   -1    0    0  501    0  0.00000000000E+00  0.00000000000E+00  0.56747614482E+03  0.56747614482E+03  0.00000000000E+00 0.  1.
         -1   -1    0    0    0  501 -0.00000000000E+00 -0.00000000000E+00 -0.32564181429E+02  0.32564181429E+02  0.00000000000E+00 0.  1.
         35    2    1    2    0    0  0.00000000000E+00 -0.71054273576E-14  0.53491196339E+03  0.60004032624E+03  0.27187788535E+03 0.  0.
         25    2    3    3    0    0  0.38640156226E+02 -0.14998075625E+02  0.18987965404E+03  0.23116419591E+03  0.12515829381E+03 0.  0.
         25    2    3    3    0    0 -0.38640156226E+02  0.14998075625E+02  0.34503230935E+03  0.36887613033E+03  0.12371055366E+03 0.  0.
          5    1    4    4  502    0 -0.33474446341E+01  0.50323732816E+02  0.10140167264E+03  0.11334933914E+03  0.47000000000E+01 0.  1.
         -5    1    4    4    0  502  0.41987600860E+02 -0.65321808441E+02  0.88477981397E+02  0.11781485677E+03  0.47000000000E+01 0.  1.
          5    1    5    5  503    0 -0.33547934250E+02  0.62505842810E+02  0.12628537918E+03  0.14492250092E+03  0.47000000000E+01 0. -1.
         -5    1    5    5    0  503 -0.50922219755E+01 -0.47507767185E+02  0.21874693017E+03  0.22395362941E+03  0.47000000000E+01 0. -1.
<mgrwt>
<rscale>  0 0.27187789E+03</rscale>
<asrwt>0</asrwt>
<pdfrwt beam="1">  1        1 0.87304015E-01 0.27187789E+03</pdfrwt>
<pdfrwt beam="2">  1       -1 0.50098745E-02 0.27187789E+03</pdfrwt>
<totfact> 0.66391504E+03</totfact>
</mgrwt>
</event>
<event>
 9    1  0.7997082E-001  0.2761441E+03  0.7818608E-02  0.1097814E+00
         -1   -1    0    0    0  501 -0.00000000000E+00  0.00000000000E+00  0.10536312951E+03  0.10536312951E+03  0.00000000000E+00 0. -1.
          1   -1    0    0  501    0  0.00000000000E+00 -0.00000000000E+00 -0.18093512409E+03  0.18093512409E+03  0.00000000000E+00 0. -1.
         35    2    1    2    0    0 -0.14210854715E-13 -0.35527136788E-14 -0.75571994586E+02  0.28629825360E+03  0.27614409943E+03 0.  0.
         25    2    3    3    0    0  0.46530047531E+02  0.11322384959E+02 -0.71053381591E+02  0.15132114980E+03  0.12472475943E+03 0.  0.
         25    2    3    3    0    0 -0.46530047531E+02 -0.11322384959E+02 -0.45186129942E+01  0.13497710381E+03  0.12611565709E+03 0.  0.
          5    1    4    4  502    0  0.43582329760E+02 -0.17730753556E+02  0.23103649291E+02  0.52627632471E+02  0.47000000000E+01 0.  1.
         -5    1    4    4    0  502  0.29477177707E+01  0.29053138515E+02 -0.94157030882E+02  0.98693517326E+02  0.47000000000E+01 0.  1.
          5    1    5    5  503    0 -0.75573625044E+02  0.11527162723E+02  0.31817914760E+02  0.82938037006E+02  0.47000000000E+01 0.  1.
         -5    1    5    5    0  503  0.29043577513E+02 -0.22849547682E+02 -0.36336527755E+02  0.52039066799E+02  0.47000000000E+01 0.  1.
<mgrwt>
<rscale>  0 0.27614410E+03</rscale>
<asrwt>0</asrwt>
<pdfrwt beam="1">  1        1 0.27836172E-01 0.27614410E+03</pdfrwt>
<pdfrwt beam="2">  1       -1 0.16209712E-01 0.27614410E+03</pdfrwt>
<totfact> 0.46988093E+03</totfact>
</mgrwt>
</event>
<event>
 9    1  0.7997082E-001  0.2750737E+03  0.7818608E-02  0.1098410E+00
          2   -1    0    0  501    0  0.00000000000E+00  0.00000000000E+00  0.13135137715E+04  0.13135137715E+04  0.00000000000E+00 0.  1.
         -2   -1    0    0    0  501 -0.00000000000E+00 -0.00000000000E+00 -0.14401365216E+02  0.14401365216E+02  0.00000000000E+00 0.  1.
         35    2    1    2    0    0 -0.14210854715E-13  0.00000000000E+00  0.12991124063E+04  0.13279151367E+04  0.27507374676E+03 0.  0.
         25    2    3    3    0    0  0.35236428780E+02 -0.61236793566E-01  0.87285018760E+03  0.88246468566E+03  0.12503944089E+03 0.  0.
         25    2    3    3    0    0 -0.35236428780E+02  0.61236793566E-01  0.42626221866E+03  0.44545045103E+03  0.12443880265E+03 0.  0.
          5    1    4    4  502    0  0.38183396068E+02  0.51321292479E+02  0.67266168641E+03  0.67571272088E+03  0.47000000000E+01 0.  1.
         -5    1    4    4    0  502 -0.29469672879E+01 -0.51382529273E+02  0.20018850119E+03  0.20675196478E+03  0.47000000000E+01 0.  1.
          5    1    5    5  503    0 -0.67969799773E+02 -0.38683737101E+02  0.26401722755E+03  0.27539700732E+03  0.47000000000E+01 0. -1.
         -5    1    5    5    0  503  0.32733370992E+02  0.38744973894E+02  0.16224499111E+03  0.17005344371E+03  0.47000000000E+01 0. -1.
<mgrwt>
<rscale>  0 0.27507375E+03</rscale>
<asrwt>0</asrwt>
<pdfrwt beam="1">  1        2 0.20207895E+00 0.27507375E+03</pdfrwt>
<pdfrwt beam="2">  1       -2 0.22155957E-02 0.27507375E+03</pdfrwt>
<totfact> 0.11453244E+04</totfact>
</mgrwt>
</event>
<event>
 9    1  0.7997082E-001  0.2758868E+03  0.7818608E-02  0.1097957E+00
          1   -1    0    0  501    0  0.00000000000E+00  0.00000000000E+00  0.39352376075E+02  0.39352376075E+02  0.00000000000E+00 0.  1.
         -1   -1    0    0    0  501 -0.00000000000E+00 -0.00000000000E+00 -0.48353822293E+03  0.48353822293E+03  0.00000000000E+00 0.  1.
         35    2    1    2    0    0  0.71054273576E-14 -0.17763568394E-14 -0.44418584685E+03  0.52289059900E+03  0.27588677384E+03 0.  0.
         25    2    3    3    0    0 -0.26055930699E+02  0.69050038001E+01 -0.32700507002E+03  0.35058194494E+03  0.12348600608E+03 0.  0.
         25    2    3    3    0    0  0.26055930699E+02 -0.69050038001E+01 -0.11718077684E+03  0.17230865406E+03  0.12341939557E+03 0.  0.
          5    1    4    4  502    0  0.38300238069E+02 -0.79344091841E+01 -0.40399379509E+02  0.56427501717E+02  0.47000000000E+01 0. -1.
         -5    1    4    4    0  502 -0.64356168768E+02  0.14839412984E+02 -0.28660569051E+03  0.29415444322E+03  0.47000000000E+01 0. -1.
          5    1    5    5  503    0 -0.22147959751E+02  0.59642108850E+01  0.17092410796E+02  0.28988695028E+02  0.47000000000E+01 0.  1.
         -5    1    5    5    0  503  0.48203890451E+02 -0.12869214685E+02 -0.13427318763E+03  0.14331995903E+03  0.47000000000E+01 0.  1.
<mgrwt>
<rscale>  0 0.27588677E+03</rscale>
<asrwt>0</asrwt>
<pdfrwt beam="1">  1        1 0.60542117E-02 0.27588677E+03</pdfrwt>
<pdfrwt beam="2">  1       -1 0.74390496E-01 0.27588677E+03</pdfrwt>
<totfact> 0.24138676E+03</totfact>
</mgrwt>
</event>
<event>
 9    1  0.7997082E-001  0.2767914E+03  0.7818608E-02  0.1097454E+00
          1   -1    0    0  501    0  0.00000000000E+00  0.00000000000E+00  0.31872471372E+03  0.31872471372E+03  0.00000000000E+00 0.  1.
         -1   -1    0    0    0  501 -0.00000000000E+00 -0.00000000000E+00 -0.60093752626E+02  0.60093752626E+02  0.00000000000E+00 0.  1.
         35    2    1    2    0    0 -0.71054273576E-14  0.71054273576E-14  0.25863096109E+03  0.37881846634E+03  0.27679135898E+03 0.  0.
         25    2    3    3    0    0 -0.37260843739E+02 -0.32142318512E+02  0.17222157453E+03  0.21828669960E+03  0.12476904012E+03 0.  0.
         25    2    3    3    0    0  0.37260843739E+02  0.32142318512E+02  0.86409386558E+02  0.16053176674E+03  0.12602526307E+03 0.  0.
          5    1    4    4  502    0 -0.82231655132E+02 -0.22506041564E+02  0.90694895453E+02  0.12456412435E+03  0.47000000000E+01 0.  1.
         -5    1    4    4    0  502  0.44970811393E+02 -0.96362769474E+01  0.81526679079E+02  0.93722575254E+02  0.47000000000E+01 0.  1.
          5    1    5    5  503    0 -0.24347807516E+02  0.61293618008E+02  0.33509415806E+02  0.74126205130E+02  0.47000000000E+01 0. -1.
         -5    1    5    5    0  503  0.61608651255E+02 -0.29151299496E+02  0.52899970752E+02  0.86405561611E+02  0.47000000000E+01 0. -1.
<mgrwt>
<rscale>  0 0.27679136E+03</rscale>
<asrwt>0</asrwt>
<pdfrwt beam="1">  1        1 0.49034570E-01 0.27679136E+03</pdfrwt>
<pdfrwt beam="2">  1       -1 0.92451929E-02 0.27679136E+03</pdfrwt>
<totfact> 0.55517491E+03</totfact>
</mgrwt>
</event>
<event>
 9    1  0.7997082E-001  0.2734947E+03  0.7818608E-02  0.1099296E+00
         -1   -1    0    0    0  501 -0.00000000000E+00  0.00000000000E+00  0.31535401684E+03  0.31535401684E+03  0.00000000000E+00 0.  1.
          1   -1    0    0  501    0  0.00000000000E+00 -0.00000000000E+00 -0.59297939673E+02  0.59297939673E+02  0.00000000000E+00 0.  1.
         35    2    1    2    0    0  0.00000000000E+00 -0.71054273576E-14  0.25605607717E+03  0.37465195652E+03  0.27349474193E+03 0.  0.
         25    2    3    3    0    0 -0.19198090473E+02  0.48645917623E+02  0.14213605982E+03  0.19762315833E+03  0.12695377595E+03 0.  0.
         25    2    3    3    0    0  0.19198090473E+02 -0.48645917623E+02  0.11392001735E+03  0.17702879819E+03  0.12500573209E+03 0.  0.
          5    1    4    4  502    0 -0.46926873670E+02  0.29873238133E+02  0.15238558915E+03  0.16228986292E+03  0.47000000000E+01 0. -1.
         -5    1    4    4    0  502  0.27728783197E+02  0.18772679490E+02 -0.10249529324E+02  0.35333295405E+02  0.47000000000E+01 0. -1.
          5    1    5    5  503    0  0.33209337495E+02  0.35022130451E+02  0.56629369807E+02  0.74554578954E+02  0.47000000000E+01 0.  1.
         -5    1    5    5    0  503 -0.14011247022E+02 -0.83668048075E+02  0.57290647543E+02  0.10247421923E+03  0.47000000000E+01 0.  1.
<mgrwt>
<rscale>  0 0.27349474E+03</rscale>
<asrwt>0</asrwt>
<pdfrwt beam="1">  1        1 0.91227602E-02 0.27349474E+03</pdfrwt>
<pdfrwt beam="2">  1       -1 0.48516001E-01 0.27349474E+03</pdfrwt>
<totfact> 0.31447366E+03</totfact>
</mgrwt>
</event>
<event>
 9    1  0.7997082E-001  0.2754634E+03  0.7818608E-02  0.1098193E+00
         -2   -1    0    0    0  501 -0.00000000000E+00  0.00000000000E+00  0.19083101758E+02  0.19083101758E+02  0.00000000000E+00 0.  1.
          2   -1    0    0  501    0  0.00000000000E+00 -0.00000000000E+00 -0.99407449668E+03  0.99407449668E+03  0.00000000000E+00 0.  1.
         35    2    1    2    0    0  0.00000000000E+00  0.00000000000E+00 -0.97499139493E+03  0.10131575984E+04  0.27546342607E+03 0.  0.
         25    2    3    3    0    0 -0.46144155527E+02  0.17146378654E+01 -0.57539319994E+03  0.59187517438E+03  0.13079244793E+03 0.  0.
         25    2    3    3    0    0  0.46144155527E+02 -0.17146378654E+01 -0.39959819498E+03  0.42128242406E+03  0.12517164342E+03 0.  0.
          5    1    4    4  502    0 -0.11409840858E+02 -0.20094367717E+02 -0.52997448992E+03  0.53049883887E+03  0.47000000000E+01 0. -1.
         -5    1    4    4    0  502 -0.34734314669E+02  0.21809005583E+02 -0.45418710022E+02  0.61376335506E+02  0.47000000000E+01 0. -1.
          5    1    5    5  503    0  0.94870911578E+01  0.43227269205E+02 -0.50263214176E+02  0.67134807670E+02  0.47000000000E+01 0.  1.
         -5    1    5    5    0  503  0.36657064369E+02 -0.44941907071E+02 -0.34933498081E+03  0.35414761639E+03  0.47000000000E+01 0.  1.
<mgrwt>
<rscale>  0 0.27546343E+03</rscale>
<asrwt>0</asrwt>
<pdfrwt beam="1">  1        2 0.15293456E+00 0.27546343E+03</pdfrwt>
<pdfrwt beam="2">  1       -2 0.29358613E-02 0.27546343E+03</pdfrwt>
<totfact> 0.11555147E+04</totfact>
</mgrwt>
</event>
<event>
 9    1  0.7997082E-001  0.2730056E+03  0.7818608E-02  0.1099572E+00
          2   -1    0    0  501    0  0.00000000000E+00  0.00000000000E+00  0.91196798603E+03  0.91196798603E+03  0.00000000000E+00 0. -1.
         -2   -1    0    0    0  501 -0.00000000000E+00 -0.00000000000E+00 -0.20431647071E+02  0.20431647071E+02  0.00000000000E+00 0. -1.
         35    2    1    2    0    0 -0.71054273576E-14  0.53290705182E-14  0.89153633896E+03  0.93239963310E+03  0.27300555328E+03 0.  0.
         25    2    3    3    0    0  0.31825285153E+02  0.11448603406E+02  0.59076674916E+03  0.60497181787E+03  0.12586353407E+03 0.  0.
         25    2    3    3    0    0 -0.31825285153E+02 -0.11448603406E+02  0.30076958979E+03  0.32742781523E+03  0.12491080315E+03 0.  0.
          5    1    4    4  502    0  0.58351508121E+02  0.14095764089E+02  0.56293900017E+03  0.56615015409E+03  0.47000000000E+01 0.  1.
         -5    1    4    4    0  502 -0.26526222968E+02 -0.26471606830E+01  0.27827748992E+02  0.38821663779E+02  0.47000000000E+01 0.  1.
          5    1    5    5  503    0 -0.52204287549E+02 -0.58087565612E+02  0.18656206932E+03  0.20230409938E+03  0.47000000000E+01 0.  1.
         -5    1    5    5    0  503  0.20379002396E+02  0.46638962206E+02  0.11420752047E+03  0.12512371585E+03  0.47000000000E+01 0.  1.
<mgrwt>
<rscale>  0 0.27300555E+03</rscale>
<asrwt>0</asrwt>
<pdfrwt beam="1">  1        2 0.14030274E+00 0.27300555E+03</pdfrwt>
<pdfrwt beam="2">  1       -2 0.31433310E-02 0.27300555E+03</pdfrwt>
<totfact> 0.11748995E+04</totfact>
</mgrwt>
</event>
<event>
 9    1  0.7997082E-001  0.2776551E+03  0.7818608E-02  0.1096977E+00
         -2   -1    0    0    0  501 -0.00000000000E+00  0.00000000000E+00  0.22395069748E+03  0.22395069748E+03  0.00000000000E+00 0.  1.
          2   -1    0    0  501    0  0.00000000000E+00 -0.00000000000E+00 -0.86059492791E+02  0.86059492791E+02  0.00000000000E+00 0.  1.
         35    2    1    2    0    0  0.00000000000E+00  0.35527136788E-14  0.13789120469E+03  0.31001019027E+03  0.27765506252E+03 0.  0.
         25    2    3    3    0    0  0.46945848870E+02 -0.27813422395E+02  0.41193085708E+02  0.14232208631E+03  0.12482470408E+03 0.  0.
         25    2    3    3    0    0 -0.46945848870E+02  0.27813422395E+02  0.96698118984E+02  0.16768810397E+03  0.12566333915E+03 0.  0.
          5    1    4    4  502    0  0.84139587579E+02 -0.43930679269E+02  0.23841289868E+02  0.97978935908E+02  0.47000000000E+01 0. -1.
         -5    1    4    4    0  502 -0.37193738709E+02  0.16117256874E+02  0.17351795840E+02  0.44343150398E+02  0.47000000000E+01 0. -1.
          5    1    5    5  503    0 -0.25926786158E+02 -0.15965419347E+02  0.11231156396E+03  0.11646059529E+03  0.47000000000E+01 0.  1.
         -5    1    5    5    0  503 -0.21019062712E+02  0.43778841742E+02 -0.15613444978E+02  0.51227508681E+02  0.47000000000E+01 0.  1.
<mgrwt>
<rscale>  0 0.27765506E+03</rscale>
<asrwt>0</asrwt>
<pdfrwt beam="1">  1        2 0.13239922E-01 0.27765506E+03</pdfrwt>
<pdfrwt beam="2">  1       -2 0.34453953E-01 0.27765506E+03</pdfrwt>
<totfact> 0.35684896E+03</totfact>
</mgrwt>
</event>
<event>
 9    1  0.7997082E-001  0.2736333E+03  0.7818608E-02  0.1099218E+00
         -1   -1    0    0    0  501 -0.00000000000E+00  0.00000000000E+00  0.97142150212E+01  0.97142150212E+01  0.00000000000E+00 0. -1.
          1   -1    0    0  501    0  0.00000000000E+00 -0.00000000000E+00 -0.19269483507E+04  0.19269483507E+04  0.00000000000E+00 0. -1.
         35    2    1    2    0    0  0.71054273576E-14 -0.71054273576E-14 -0.19172341357E+04  0.19366625657E+04  0.27363326270E+03 0.  0.
         25    2    3    3    0    0  0.21918719580E+02 -0.33328853171E+02 -0.69635618469E+03  0.70879667488E+03  0.12605374901E+03 0.  0.
         25    2    3    3    0    0 -0.21918719580E+02  0.33328853171E+02 -0.12208779510E+04  0.12278658908E+04  0.12458102570E+03 0.  0.
          5    1    4    4  502    0 -0.47908523153E+02  0.61055276116E+01 -0.34360644091E+03  0.34701582139E+03  0.47000000000E+01 0. -1.
         -5    1    4    4    0  502  0.69827242733E+02 -0.39434380782E+02 -0.35274974378E+03  0.36178085349E+03  0.47000000000E+01 0. -1.
          5    1    5    5  503    0  0.24223242390E+02  0.34259824532E+02 -0.14586642603E+03  0.15185389456E+03  0.47000000000E+01 0.  1.
         -5    1    5    5    0  503 -0.46141961971E+02 -0.93097136179E+00 -0.10750115250E+04  0.10760119963E+04  0.47000000000E+01 0.  1.
<mgrwt>
<rscale>  0 0.27363326E+03</rscale>
<asrwt>0</asrwt>
<pdfrwt beam="1">  1        1 0.29645362E+00 0.27363326E+03</pdfrwt>
<pdfrwt beam="2">  1       -1 0.14944945E-02 0.27363326E+03</pdfrwt>
<totfact> 0.39488241E+03</totfact>
</mgrwt>
</event>
<event>
 9    1  0.7997082E-001  0.2761680E+03  0.7818608E-02  0.1097801E+00
          3   -1    0    0  501    0  0.00000000000E+00  0.00000000000E+00  0.67419949956E+03  0.67419949956E+03  0.00000000000E+00 0. -1.
         -3   -1    0    0    0  501 -0.00000000000E+00 -0.00000000000E+00 -0.28281223089E+02  0.28281223089E+02  0.00000000000E+00 0. -1.
         35    2    1    2    0    0 -0.35527136788E-14 -0.71054273576E-14  0.64591827648E+03  0.70248072265E+03  0.27616796667E+03 0.  0.
         25    2    3    3    0    0 -0.25122219551E+02 -0.25745675156E+02  0.43882836878E+03  0.45778898966E+03  0.12532540087E+03 0.  0.
         25    2    3    3    0    0  0.25122219551E+02  0.25745675156E+02  0.20708990769E+03  0.24469173299E+03  0.12527509179E+03 0.  0.
          5    1    4    4  502    0 -0.29593304715E+02 -0.41032030628E+02  0.60108468063E+02  0.78705204112E+02  0.47000000000E+01 0.  1.
         -5    1    4    4    0  502  0.44710851638E+01  0.15286355473E+02  0.37871990072E+03  0.37908378555E+03  0.47000000000E+01 0.  1.
          5    1    5    5  503    0  0.20108805454E+01 -0.30973852102E+02  0.17013057409E+03  0.17300267453E+03  0.47000000000E+01 0.  1.
         -5    1    5    5    0  503  0.23111339006E+02  0.56719527257E+02  0.36959333608E+02  0.71689058466E+02  0.47000000000E+01 0.  1.
<mgrwt>
<rscale>  0 0.27616797E+03</rscale>
<asrwt>0</asrwt>
<pdfrwt beam="1">  1        3 0.10372299E+00 0.27616797E+03</pdfrwt>
<pdfrwt beam="2">  1       -3 0.43509579E-02 0.27616797E+03</pdfrwt>
<totfact> 0.60164834E+02</totfact>
</mgrwt>
</event>
<event>
 9    1  0.7997082E-001  0.2755895E+03  0.7818608E-02  0.1098123E+00
          2   -1    0    0  501    0  0.00000000000E+00  0.00000000000E+00  0.60127125378E+03  0.60127125378E+03  0.00000000000E+00 0. -1.
         -2   -1    0    0    0  501 -0.00000000000E+00 -0.00000000000E+00 -0.31578743951E+02  0.31578743951E+02  0.00000000000E+00 0. -1.
         35    2    1    2    0    0  0.00000000000E+00  0.00000000000E+00  0.56969250982E+03  0.63284999773E+03  0.27558948433E+03 0.  0.
         25    2    3    3    0    0  0.42305432349E+02  0.39220689635E+02  0.31748760257E+03  0.34592583441E+03  0.12465268962E+03 0.  0.
         25    2    3    3    0    0 -0.42305432349E+02 -0.39220689635E+02  0.25220490726E+03  0.28692416331E+03  0.12405703586E+03 0.  0.
          5    1    4    4  502    0  0.76386242628E+02  0.13340738484E+02  0.27373405531E+03  0.28454394459E+03  0.47000000000E+01 0. -1.
         -5    1    4    4    0  502 -0.34080810279E+02  0.25879951151E+02  0.43753547261E+02  0.61381889827E+02  0.47000000000E+01 0. -1.
          5    1    5    5  503    0  0.73467204672E+01 -0.16329609608E+02 -0.85969238870E+01  0.20411456388E+02  0.47000000000E+01 0.  1.
         -5    1    5    5    0  503 -0.49652152816E+02 -0.22891080027E+02  0.26080183114E+03  0.26651270692E+03  0.47000000000E+01 0.  1.
<mgrwt>
<rscale>  0 0.27558948E+03</rscale>
<asrwt>0</asrwt>
<pdfrwt beam="1">  1        2 0.92503261E-01 0.27558948E+03</pdfrwt>
<pdfrwt beam="2">  1       -2 0.48582687E-02 0.27558948E+03</pdfrwt>
<totfact> 0.10249466E+04</totfact>
</mgrwt>
</event>
<event>
 9    1  0.7997082E-001  0.2741189E+03  0.7818608E-02  0.1098945E+00
          1   -1    0    0  501    0  0.00000000000E+00  0.00000000000E+00  0.13243719831E+04  0.13243719831E+04  0.00000000000E+00 0. -1.
         -1   -1    0    0    0  501 -0.00000000000E+00 -0.00000000000E+00 -0.14184302313E+02  0.14184302313E+02  0.00000000000E+00 0. -1.
         35    2    1    2    0    0  0.00000000000E+00  0.00000000000E+00  0.13101876808E+04  0.13385562855E+04  0.27411889817E+03 0.  0.
         25    2    3    3    0    0 -0.39175732655E+02  0.37233374952E+02  0.59092918053E+03  0.60639818119E+03  0.12490154325E+03 0.  0.
         25    2    3    3    0    0  0.39175732655E+02 -0.37233374952E+02  0.71925850030E+03  0.73215810427E+03  0.12570456298E+03 0.  0.
          5    1    4    4  502    0 -0.12844083485E+02  0.82092553648E+02  0.33381556844E+03  0.34403354717E+03  0.47000000000E+01 0.  1.
         -5    1    4    4    0  502 -0.26331649170E+02 -0.44859178696E+02  0.25711361210E+03  0.26236463402E+03  0.47000000000E+01 0.  1.
          5    1    5    5  503    0 -0.27675743828E+02 -0.14396289777E+02  0.49705242539E+02  0.58871904094E+02  0.47000000000E+01 0.  1.
         -5    1    5    5    0  503  0.66851476483E+02 -0.22837085175E+02  0.66955325776E+03  0.67328620018E+03  0.47000000000E+01 0.  1.
<mgrwt>
<rscale>  0 0.27411890E+03</rscale>
<asrwt>0</asrwt>
<pdfrwt beam="1">  1        1 0.20374944E+00 0.27411890E+03</pdfrwt>
<pdfrwt beam="2">  1       -1 0.21822014E-02 0.27411890E+03</pdfrwt>
<totfact> 0.56656284E+03</totfact>
</mgrwt>
</event>
<event>
 9    1  0.7997082E-001  0.2715139E+03  0.7818608E-02  0.1100416E+00
         -2   -1    0    0    0  501 -0.00000000000E+00  0.00000000000E+00  0.19859011272E+03  0.19859011272E+03  0.00000000000E+00 0. -1.
          2   -1    0    0  501    0  0.00000000000E+00 -0.00000000000E+00 -0.92803969780E+02  0.92803969780E+02  0.00000000000E+00 0. -1.
         35    2    1    2    0    0  0.00000000000E+00  0.17763568394E-14  0.10578614294E+03  0.29139408250E+03  0.27151390992E+03 0.  0.
         25    2    3    3    0    0  0.39344054059E+02  0.47571104942E+01  0.91125058087E+02  0.15968477292E+03  0.12499946320E+03 0.  0.
         25    2    3    3    0    0 -0.39344054059E+02 -0.47571104942E+01  0.14661084855E+02  0.13170930958E+03  0.12474698446E+03 0.  0.
          5    1    4    4  502    0 -0.14654689303E+02  0.55061475384E+02  0.38735399450E+02  0.69058288138E+02  0.47000000000E+01 0. -1.
         -5    1    4    4    0  502  0.53998743362E+02 -0.50304364890E+02  0.52389658637E+02  0.90626484781E+02  0.47000000000E+01 0. -1.
          5    1    5    5  503    0 -0.78821943545E+02  0.15345113027E+02 -0.95524638985E+01  0.81004387810E+02  0.47000000000E+01 0. -1.
         -5    1    5    5    0  503  0.39477889486E+02 -0.20102223521E+02  0.24213548753E+02  0.50704921773E+02  0.47000000000E+01 0. -1.
<mgrwt>
<rscale>  0 0.27151391E+03</rscale>
<asrwt>0</asrwt>
<pdfrwt beam="1">  1        2 0.14277534E-01 0.27151391E+03</pdfrwt>
<pdfrwt beam="2">  1       -2 0.30552325E-01 0.27151391E+03</pdfrwt>
<totfact> 0.40641422E+03</totfact>
</mgrwt>
</event>
<event>
 9    1  0.7997082E-001  0.2735908E+03  0.7818608E-02  0.1099242E+00
         -2   -1    0    0    0  501 -0.00000000000E+00  0.00000000000E+00  0.56068998200E+02  0.56068998200E+02  0.00000000000E+00 0.  1.
          2   -1    0    0  501    0  0.00000000000E+00 -0.00000000000E+00 -0.33374922628E+03  0.33374922628E+03  0.00000000000E+00 0.  1.
         35    2    1    2    0    0  0.00000000000E+00  0.10658141036E-13 -0.27768022808E+03  0.38981822448E+03  0.27359082417E+03 0.  0.
         25    2    3    3    0    0  0.14704620621E+02  0.25905845184E+02 -0.20523975536E+03  0.24215151001E+03  0.12500663158E+03 0.  0.
         25    2    3    3    0    0 -0.14704620621E+02 -0.25905845184E+02 -0.72440472722E+02  0.14766671447E+03  0.12518185888E+03 0.  0.
          5    1    4    4  502    0  0.22888789923E+01  0.12416524765E+02  0.15537306834E+02  0.20564701747E+02  0.47000000000E+01 0. -1.
         -5    1    4    4    0  502  0.12415741629E+02  0.13489320418E+02 -0.22077706220E+03  0.22158680827E+03  0.47000000000E+01 0. -1.
          5    1    5    5  503    0 -0.80587281204E+01 -0.76247845554E+02 -0.51812050679E+02  0.92656654624E+02  0.47000000000E+01 0. -1.
         -5    1    5    5    0  503 -0.66458925009E+01  0.50342000370E+02 -0.20628422043E+02  0.55010059847E+02  0.47000000000E+01 0. -1.
<mgrwt>
<rscale>  0 0.27359082E+03</rscale>
<asrwt>0</asrwt>
<pdfrwt beam="1">  1        2 0.51346034E-01 0.27359082E+03</pdfrwt>
<pdfrwt beam="2">  1       -2 0.86259998E-02 0.27359082E+03</pdfrwt>
<totfact> 0.81109685E+03</totfact>
</mgrwt>
</event>
<event>
 9    1  0.7997082E-001  0.2737214E+03  0.7818608E-02  0.1099168E+00
          2   -1    0    0  501    0  0.00000000000E+00  0.00000000000E+00  0.29450430505E+04  0.29450430505E+04  0.00000000000E+00 0. -1.
         -2   -1    0    0    0  501 -0.00000000000E+00 -0.00000000000E+00 -0.63601262719E+01  0.63601262719E+01  0.00000000000E+00 0. -1.
         35    2    1    2    0    0 -0.10658141036E-13  0.00000000000E+00  0.29386829242E+04  0.29514031768E+04  0.27372135961E+03 0.  0.
         25    2    3    3    0    0 -0.20856444114E+02  0.34379951671E+02  0.14998576359E+04  0.15055841244E+04  0.12487455841E+03 0.  0.
         25    2    3    3    0    0  0.20856444114E+02 -0.34379951671E+02  0.14388252883E+04  0.14458190523E+04  0.13622609710E+03 0.  0.
          5    1    4    4  502    0 -0.32964144940E+02  0.25182046105E+02  0.15189727449E+03  0.15752981399E+03  0.47000000000E+01 0.  1.
         -5    1    4    4    0  502  0.12107700826E+02  0.91979055661E+01  0.13479603615E+04  0.13480543105E+04  0.47000000000E+01 0.  1.
          5    1    5    5  503    0  0.34330566434E+02 -0.51837247686E+02  0.28358721201E+03  0.29036095615E+03  0.47000000000E+01 0.  1.
         -5    1    5    5    0  503 -0.13474122320E+02  0.17457296014E+02  0.11552380763E+04  0.11554580962E+04  0.47000000000E+01 0.  1.
<mgrwt>
<rscale>  0 0.27372136E+03</rscale>
<asrwt>0</asrwt>
<pdfrwt beam="1">  1        2 0.45308246E+00 0.27372136E+03</pdfrwt>
<pdfrwt beam="2">  1       -2 0.97848332E-03 0.27372136E+03</pdfrwt>
<totfact> 0.49409502E+03</totfact>
</mgrwt>
</event>
<event>
 9    1  0.7997082E-001  0.2754668E+03  0.7818608E-02  0.1098191E+00
         -1   -1    0    0    0  501 -0.00000000000E+00  0.00000000000E+00  0.21655972528E+02  0.21655972528E+02  0.00000000000E+00 0. -1.
          1   -1    0    0  501    0  0.00000000000E+00 -0.00000000000E+00 -0.87599326083E+03  0.87599326083E+03  0.00000000000E+00 0. -1.
         35    2    1    2    0    0  0.71054273576E-14 -0.35527136788E-14 -0.85433728830E+03  0.89764923335E+03  0.27546677470E+03 0.  0.
         25    2    3    3    0    0 -0.51543352665E+02  0.74621121998E+01 -0.45604637720E+03  0.47673855198E+03  0.12879809186E+03 0.  0.
         25    2    3    3    0    0  0.51543352665E+02 -0.74621121998E+01 -0.39829091110E+03  0.42091068137E+03  0.12576864278E+03 0.  0.
          5    1    4    4  502    0 -0.38373261001E+02  0.66610907776E+02 -0.22428334179E+03  0.23713841443E+03  0.47000000000E+01 0. -1.
         -5    1    4    4    0  502 -0.13170091664E+02 -0.59148795576E+02 -0.23176303541E+03  0.23960013755E+03  0.47000000000E+01 0. -1.
          5    1    5    5  503    0  0.36262032664E+02 -0.50851121234E+01 -0.40251494151E+03  0.40420435613E+03  0.47000000000E+01 0. -1.
         -5    1    5    5    0  503  0.15281320001E+02 -0.23770000764E+01  0.42240304043E+01  0.16706325245E+02  0.47000000000E+01 0. -1.
<mgrwt>
<rscale>  0 0.27546677E+03</rscale>
<asrwt>0</asrwt>
<pdfrwt beam="1">  1        1 0.13476815E+00 0.27546677E+03</pdfrwt>
<pdfrwt beam="2">  1       -1 0.33316891E-02 0.27546677E+03</pdfrwt>
<totfact> 0.64351867E+03</totfact>
</mgrwt>
</event>
<event>
 9    1  0.7997082E-001  0.2726708E+03  0.7818608E-02  0.1099761E+00
         -2   -1    0    0    0  501 -0.00000000000E+00  0.00000000000E+00  0.32850231833E+02  0.32850231833E+02  0.00000000000E+00 0.  1.
          2   -1    0    0  501    0  0.00000000000E+00 -0.00000000000E+00 -0.56582064259E+03  0.56582064259E+03  0.00000000000E+00 0.  1.
         35    2    1    2    0    0  0.00000000000E+00  0.00000000000E+00 -0.53297041076E+03  0.59867087442E+03  0.27267078527E+03 0.  0.
         25    2    3    3    0    0  0.45174759533E+02 -0.34212696189E+02 -0.25938395766E+03  0.29350621337E+03  0.12511831328E+03 0.  0.
         25    2    3    3    0    0 -0.45174759533E+02  0.34212696189E+02 -0.27358645310E+03  0.30516466105E+03  0.12273815851E+03 0.  0.
          5    1    4    4  502    0  0.58220360190E+02  0.29010525985E+02 -0.82581941345E+02  0.10522874130E+03  0.47000000000E+01 0. -1.
         -5    1    4    4    0  502 -0.13045600657E+02 -0.63223222174E+02 -0.17680201632E+03  0.18827747208E+03  0.47000000000E+01 0. -1.
          5    1    5    5  503    0  0.43038265792E+01 -0.37569767974E+02 -0.14365733516E+03  0.14862547000E+03  0.47000000000E+01 0.  1.
         -5    1    5    5    0  503 -0.49478586112E+02  0.71782464163E+02 -0.12992911794E+03  0.15653919105E+03  0.47000000000E+01 0.  1.
<mgrwt>
<rscale>  0 0.27267079E+03</rscale>
<asrwt>0</asrwt>
<pdfrwt beam="1">  1        2 0.87049332E-01 0.27267079E+03</pdfrwt>
<pdfrwt beam="2">  1       -2 0.50538817E-02 0.27267079E+03</pdfrwt>
<totfact> 0.10349752E+04</totfact>
</mgrwt>
</event>
<event>
 9    1  0.7997082E-001  0.2786747E+03  0.7818608E-02  0.1096415E+00
         -2   -1    0    0    0  501 -0.00000000000E+00  0.00000000000E+00  0.18679602215E+02  0.18679602215E+02  0.00000000000E+00 0. -1.
          2   -1    0    0  501    0  0.00000000000E+00 -0.00000000000E+00 -0.10393634076E+04  0.10393634076E+04  0.00000000000E+00 0. -1.
         35    2    1    2    0    0 -0.35527136788E-14  0.71054273576E-14 -0.10206838053E+04  0.10580430098E+04  0.27867468496E+03 0.  0.
         25    2    3    3    0    0 -0.86826310078E+01  0.58676281922E+02 -0.54682003320E+03  0.56436716733E+03  0.12641145798E+03 0.  0.
         25    2    3    3    0    0  0.86826310078E+01 -0.58676281922E+02 -0.47386377214E+03  0.49367584244E+03  0.12510263275E+03 0.  0.
          5    1    4    4  502    0  0.53053571212E+02  0.14041091905E+01 -0.26002493254E+03  0.26542740718E+03  0.47000000000E+01 0. -1.
         -5    1    4    4    0  502 -0.61736202220E+02  0.57272172732E+02 -0.28679510066E+03  0.29893976014E+03  0.47000000000E+01 0. -1.
          5    1    5    5  503    0  0.19184937964E+02  0.33254507050E+02 -0.22131180692E+03  0.22466626352E+03  0.47000000000E+01 0. -1.
         -5    1    5    5    0  503 -0.10502306956E+02 -0.91930788972E+02 -0.25255196523E+03  0.26900957892E+03  0.47000000000E+01 0. -1.
<mgrwt>
<rscale>  0 0.27867468E+03</rscale>
<asrwt>0</asrwt>
<pdfrwt beam="1">  1        2 0.15990212E+00 0.27867468E+03</pdfrwt>
<pdfrwt beam="2">  1       -2 0.28737840E-02 0.27867468E+03</pdfrwt>
<totfact> 0.11199287E+04</totfact>
</mgrwt>
</event>
<event>
 9    1  0.7997082E-001  0.2730027E+03  0.7818608E-02  0.1099573E+00
         -2   -1    0    0    0  501 -0.00000000000E+00  0.00000000000E+00  0.14169103306E+03  0.14169103306E+03  0.00000000000E+00 0.  1.
          2   -1    0    0  501    0  0.00000000000E+00 -0.00000000000E+00 -0.13150174832E+03  0.13150174832E+03  0.00000000000E+00 0.  1.
         35    2    1    2    0    0 -0.71054273576E-14  0.00000000000E+00  0.10189284739E+02  0.27319278137E+03  0.27300270011E+03 0.  0.
         25    2    3    3    0    0  0.35853835546E+02  0.30435200314E+02  0.31338712260E+02  0.13787704839E+03  0.12576234192E+03 0.  0.
         25    2    3    3    0    0 -0.35853835546E+02 -0.30435200314E+02 -0.21149427521E+02  0.13531573298E+03  0.12510495740E+03 0.  0.
          5    1    4    4  502    0  0.56829655443E+02  0.85132176251E+01  0.68590282261E+02  0.89603579352E+02  0.47000000000E+01 0. -1.
         -5    1    4    4    0  502 -0.20975819897E+02  0.21921982689E+02 -0.37251570001E+02  0.48273469038E+02  0.47000000000E+01 0. -1.
          5    1    5    5  503    0 -0.67979131305E+02 -0.57475215733E+02 -0.26302218702E+01  0.89182794213E+02  0.47000000000E+01 0. -1.
         -5    1    5    5    0  503  0.32125295759E+02  0.27040015419E+02 -0.18519205650E+02  0.46132938768E+02  0.47000000000E+01 0. -1.
<mgrwt>
<rscale>  0 0.27300270E+03</rscale>
<asrwt>0</asrwt>
<pdfrwt beam="1">  1        2 0.20231038E-01 0.27300270E+03</pdfrwt>
<pdfrwt beam="2">  1       -2 0.21798620E-01 0.27300270E+03</pdfrwt>
<totfact> 0.49244999E+03</totfact>
</mgrwt>
</event>
<event>
 9    1  0.7997082E-001  0.2757846E+03  0.7818608E-02  0.1098014E+00
          2   -1    0    0  501    0  0.00000000000E+00  0.00000000000E+00  0.42594504607E+03  0.42594504607E+03  0.00000000000E+00 0. -1.
         -2   -1    0    0    0  501 -0.00000000000E+00 -0.00000000000E+00 -0.44640240143E+02  0.44640240143E+02  0.00000000000E+00 0. -1.
         35    2    1    2    0    0  0.00000000000E+00  0.71054273576E-14  0.38130480593E+03  0.47058528622E+03  0.27578461991E+03 0.  0.
         25    2    3    3    0    0 -0.39637895924E+02 -0.26840815959E+02  0.24422900370E+03  0.27866326462E+03  0.12535476299E+03 0.  0.
         25    2    3    3    0    0  0.39637895924E+02  0.26840815959E+02  0.13707580223E+03  0.19192202160E+03  0.12550973915E+03 0.  0.
          5    1    4    4  502    0  0.39950022498E+01  0.37795768465E+02  0.24510369397E+02  0.45467882783E+02  0.47000000000E+01 0. -1.
         -5    1    4    4    0  502 -0.43632898174E+02 -0.64636584424E+02  0.21971863430E+03  0.23319538183E+03  0.47000000000E+01 0. -1.
          5    1    5    5  503    0  0.85203041097E+02  0.20291995799E+02  0.96157980807E+02  0.13015287388E+03  0.47000000000E+01 0.  1.
         -5    1    5    5    0  503 -0.45565145173E+02  0.65488201595E+01  0.40917821422E+02  0.61769147720E+02  0.47000000000E+01 0.  1.
<mgrwt>
<rscale>  0 0.27578462E+03</rscale>
<asrwt>0</asrwt>
<pdfrwt beam="1">  1        2 0.65530005E-01 0.27578462E+03</pdfrwt>
<pdfrwt beam="2">  1       -2 0.68677295E-02 0.27578462E+03</pdfrwt>
<totfact> 0.88853333E+03</totfact>
</mgrwt>
</event>
<event>
 9    1  0.7997082E-001  0.2760088E+03  0.7818608E-02  0.1097889E+00
          2   -1    0    0  501    0  0.00000000000E+00  0.00000000000E+00  0.18113598684E+03  0.18113598684E+03  0.00000000000E+00 0.  1.
         -2   -1    0    0    0  501 -0.00000000000E+00 -0.00000000000E+00 -0.10514317302E+03  0.10514317302E+03  0.00000000000E+00 0.  1.
         35    2    1    2    0    0  0.00000000000E+00  0.00000000000E+00  0.75992813826E+02  0.28627915986E+03  0.27600878540E+03 0.  0.
         25    2    3    3    0    0  0.56570844255E+02  0.19008676615E+02  0.21590208128E+02  0.13836818434E+03  0.12295538680E+03 0.  0.
         25    2    3    3    0    0 -0.56570844255E+02 -0.19008676615E+02  0.54402605698E+02  0.14791097552E+03  0.12392103521E+03 0.  0.
          5    1    4    4  502    0  0.37907004337E+02  0.66409992722E+02  0.36805441204E+02  0.84993873976E+02  0.47000000000E+01 0. -1.
         -5    1    4    4    0  502  0.18663839919E+02 -0.47401316108E+02 -0.15215233076E+02  0.53374310364E+02  0.47000000000E+01 0. -1.
          5    1    5    5  503    0 -0.52306880666E+02  0.37187506276E+01  0.90549842722E+02  0.10474351001E+03  0.47000000000E+01 0. -1.
         -5    1    5    5    0  503 -0.42639635893E+01 -0.22727427242E+02 -0.36147237024E+02  0.43167465515E+02  0.47000000000E+01 0. -1.
<mgrwt>
<rscale>  0 0.27600879E+03</rscale>
<asrwt>0</asrwt>
<pdfrwt beam="1">  1        2 0.27867075E-01 0.27600879E+03</pdfrwt>
<pdfrwt beam="2">  1       -2 0.16175873E-01 0.27600879E+03</pdfrwt>
<totfact> 0.57030629E+03</totfact>
</mgrwt>
</event>
<event>
 9    1  0.7997082E-001  0.2747168E+03  0.7818608E-02  0.1098610E+00
         -1   -1    0    0    0  501 -0.00000000000E+00  0.00000000000E+00  0.22327320742E+03  0.22327320742E+03  0.00000000000E+00 0.  1.
          1   -1    0    0  501    0  0.00000000000E+00 -0.00000000000E+00 -0.84503350595E+02  0.84503350595E+02  0.00000000000E+00 0.  1.
         35    2    1    2    0    0  0.00000000000E+00 -0.35527136788E-14  0.13876985683E+03  0.30777655802E+03  0.27471682966E+03 0.  0.
         25    2    3    3    0    0  0.43512288234E+02 -0.28341262302E+02  0.39657412035E+02  0.14052591674E+03  0.12441172199E+03 0.  0.
         25    2    3    3    0    0 -0.43512288234E+02  0.28341262302E+02  0.99112444791E+02  0.16725064128E+03  0.12430991079E+03 0.  0.
          5    1    4    4  502    0  0.50096693412E+02  0.43621140948E+01  0.75820599447E+02  0.91101921115E+02  0.47000000000E+01 0.  1.
         -5    1    4    4    0  502 -0.65844051785E+01 -0.32703376397E+02 -0.36163187412E+02  0.49423995621E+02  0.47000000000E+01 0.  1.
          5    1    5    5  503    0 -0.26425836910E+02  0.33494234898E+02 -0.19548035819E+02  0.47163591172E+02  0.47000000000E+01 0. -1.
         -5    1    5    5    0  503 -0.17086451324E+02 -0.51529725962E+01  0.11866048061E+03  0.12008705011E+03  0.47000000000E+01 0. -1.
<mgrwt>
<rscale>  0 0.27471683E+03</rscale>
<asrwt>0</asrwt>
<pdfrwt beam="1">  1        1 0.13000516E-01 0.27471683E+03</pdfrwt>
<pdfrwt beam="2">  1       -1 0.34349724E-01 0.27471683E+03</pdfrwt>
<totfact> 0.36242208E+03</totfact>
</mgrwt>
</event>
<event>
 9    1  0.7997082E-001  0.2745541E+03  0.7818608E-02  0.1098701E+00
          3   -1    0    0  501    0  0.00000000000E+00  0.00000000000E+00  0.28199919048E+03  0.28199919048E+03  0.00000000000E+00 0.  1.
         -3   -1    0    0    0  501 -0.00000000000E+00 -0.00000000000E+00 -0.66826369752E+02  0.66826369752E+02  0.00000000000E+00 0.  1.
         35    2    1    2    0    0  0.71054273576E-14  0.35527136788E-14  0.21517282073E+03  0.34882556023E+03  0.27455405423E+03 0.  0.
         25    2    3    3    0    0 -0.48814506025E+02  0.76111713755E+00  0.14026988063E+03  0.19394527145E+03  0.12472246634E+03 0.  0.
         25    2    3    3    0    0  0.48814506025E+02 -0.76111713755E+00  0.74902940104E+02  0.15488028878E+03  0.12646745874E+03 0.  0.
          5    1    4    4  502    0 -0.29416387876E+02  0.45134494817E+02  0.10146322195E+02  0.55022580384E+02  0.47000000000E+01 0. -1.
         -5    1    4    4    0  502 -0.19398118150E+02 -0.44373377680E+02  0.13012355843E+03  0.13892269107E+03  0.47000000000E+01 0. -1.
          5    1    5    5  503    0 -0.40659238679E+02  0.91170587139E+01  0.81581751671E+01  0.42719319653E+02  0.47000000000E+01 0.  1.
         -5    1    5    5    0  503  0.89473744705E+02 -0.98781758515E+01  0.66744764936E+02  0.11216096913E+03  0.47000000000E+01 0.  1.
<mgrwt>
<rscale>  0 0.27455405E+03</rscale>
<asrwt>0</asrwt>
<pdfrwt beam="1">  1        3 0.43384490E-01 0.27455405E+03</pdfrwt>
<pdfrwt beam="2">  1       -3 0.10280980E-01 0.27455405E+03</pdfrwt>
<totfact> 0.94924767E+02</totfact>
</mgrwt>
</event>
<event>
 9    1  0.7997082E-001  0.2764047E+03  0.7818608E-02  0.1097669E+00
          2   -1    0    0  501    0  0.00000000000E+00  0.00000000000E+00  0.38936194295E+02  0.38936194295E+02  0.00000000000E+00 0. -1.
         -2   -1    0    0    0  501 -0.00000000000E+00 -0.00000000000E+00 -0.49054344795E+03  0.49054344795E+03  0.00000000000E+00 0. -1.
         35    2    1    2    0    0  0.14210854715E-13 -0.71054273576E-14 -0.45160725365E+03  0.52947964224E+03  0.27640473946E+03 0.  0.
         25    2    3    3    0    0 -0.59674556236E+02  0.31305682309E+02 -0.24788730176E+03  0.28457177473E+03  0.12244134185E+03 0.  0.
         25    2    3    3    0    0  0.59674556236E+02 -0.31305682309E+02 -0.20371995189E+03  0.24490786751E+03  0.11805484472E+03 0.  0.
          5    1    4    4  502    0 -0.65008705032E+01 -0.13049279718E+02 -0.19921295554E+03  0.19980099268E+03  0.47000000000E+01 0.  1.
         -5    1    4    4    0  502 -0.53173685732E+02  0.44354962026E+02 -0.48674346216E+02  0.84770782055E+02  0.47000000000E+01 0.  1.
          5    1    5    5  503    0  0.89863642990E+02 -0.32891200212E+02 -0.18682383007E+03  0.20995842175E+03  0.47000000000E+01 0.  1.
         -5    1    5    5    0  503 -0.30189086754E+02  0.15855179034E+01 -0.16896121823E+02  0.34949445757E+02  0.47000000000E+01 0.  1.
<mgrwt>
<rscale>  0 0.27640474E+03</rscale>
<asrwt>0</asrwt>
<pdfrwt beam="1">  1        2 0.59901843E-02 0.27640474E+03</pdfrwt>
<pdfrwt beam="2">  1       -2 0.75468216E-01 0.27640474E+03</pdfrwt>
<totfact> 0.20018017E+03</totfact>
</mgrwt>
</event>
<event>
 9    1  0.7997082E-001  0.2719541E+03  0.7818608E-02  0.1100166E+00
          3   -1    0    0  501    0  0.00000000000E+00  0.00000000000E+00  0.50954735367E+03  0.50954735367E+03  0.00000000000E+00 0. -1.
         -3   -1    0    0    0  501 -0.00000000000E+00 -0.00000000000E+00 -0.36286628752E+02  0.36286628752E+02  0.00000000000E+00 0. -1.
         35    2    1    2    0    0  0.00000000000E+00  0.71054273576E-14  0.47326072491E+03  0.54583398242E+03  0.27195408182E+03 0.  0.
         25    2    3    3    0    0 -0.27374387942E+02  0.14715774321E+02  0.33758975249E+03  0.36082040054E+03  0.12352574361E+03 0.  0.
         25    2    3    3    0    0  0.27374387942E+02 -0.14715774321E+02  0.13567097242E+03  0.18501358187E+03  0.12189135158E+03 0.  0.
          5    1    4    4  502    0  0.19796011804E+01  0.64731191108E+02  0.13123358384E+03  0.14641854203E+03  0.47000000000E+01 0.  1.
         -5    1    4    4    0  502 -0.29353989122E+02 -0.50015416787E+02  0.20635616865E+03  0.21440185851E+03  0.47000000000E+01 0.  1.
          5    1    5    5  503    0 -0.22395200911E+02  0.36249571684E+02  0.16178341131E+02  0.45819266612E+02  0.47000000000E+01 0. -1.
         -5    1    5    5    0  503  0.49769588853E+02 -0.50965346005E+02  0.11949263129E+03  0.13919431526E+03  0.47000000000E+01 0. -1.
<mgrwt>
<rscale>  0 0.27195408E+03</rscale>
<asrwt>0</asrwt>
<pdfrwt beam="1">  1        3 0.78391895E-01 0.27195408E+03</pdfrwt>
<pdfrwt beam="2">  1       -3 0.55825586E-02 0.27195408E+03</pdfrwt>
<totfact> 0.75681269E+02</totfact>
</mgrwt>
</event>
<event>
 9    1  0.7997082E-001  0.2750236E+03  0.7818608E-02  0.1098438E+00
         -2   -1    0    0    0  501 -0.00000000000E+00  0.00000000000E+00  0.50545907372E+03  0.50545907372E+03  0.00000000000E+00 0. -1.
          2   -1    0    0  501    0  0.00000000000E+00 -0.00000000000E+00 -0.37410535412E+02  0.37410535412E+02  0.00000000000E+00 0. -1.
         35    2    1    2    0    0  0.00000000000E+00  0.71054273576E-14  0.46804853831E+03  0.54286960913E+03  0.27502359591E+03 0.  0.
         25    2    3    3    0    0  0.33654353571E+01  0.29729391136E+02  0.19306839720E+03  0.23953494193E+03  0.13858722724E+03 0.  0.
         25    2    3    3    0    0 -0.33654353571E+01 -0.29729391136E+02  0.27498014110E+03  0.30333466720E+03  0.12450975654E+03 0.  0.
          5    1    4    4  502    0  0.13003697734E+02  0.44488133308E+02  0.20972177602E+03  0.21483389746E+03  0.47000000000E+01 0. -1.
         -5    1    4    4    0  502 -0.96382623769E+01 -0.14758742172E+02 -0.16653378814E+02  0.24701044474E+02  0.47000000000E+01 0. -1.
          5    1    5    5  503    0 -0.12535378045E+02 -0.71469341339E+02  0.10311518538E+03  0.12617382419E+03  0.47000000000E+01 0.  1.
         -5    1    5    5    0  503  0.91699426875E+01  0.41739950203E+02  0.17186495572E+03  0.17716084301E+03  0.47000000000E+01 0.  1.
<mgrwt>
<rscale>  0 0.27502360E+03</rscale>
<asrwt>0</asrwt>
<pdfrwt beam="1">  1        2 0.57554673E-02 0.27502360E+03</pdfrwt>
<pdfrwt beam="2">  1       -2 0.77762930E-01 0.27502360E+03</pdfrwt>
<totfact> 0.19752155E+03</totfact>
</mgrwt>
</event>
<event>
 9    1  0.7997082E-001  0.2898340E+03  0.7818608E-02  0.1090436E+00
         -1   -1    0    0    0  501 -0.00000000000E+00  0.00000000000E+00  0.65822480507E+03  0.65822480507E+03  0.00000000000E+00 0.  1.
          1   -1    0    0  501    0  0.00000000000E+00 -0.00000000000E+00 -0.31905413912E+02  0.31905413912E+02  0.00000000000E+00 0.  1.
         35    2    1    2    0    0  0.71054273576E-14 -0.62172489379E-14  0.62631939116E+03  0.69013021898E+03  0.28983398595E+03 0.  0.
         25    2    3    3    0    0  0.44350318304E+02 -0.78405375625E+01  0.45333376830E+03  0.47263543126E+03  0.12587422546E+03 0.  0.
         25    2    3    3    0    0 -0.44350318304E+02  0.78405375625E+01  0.17298562286E+03  0.21749478773E+03  0.12390130027E+03 0.  0.
          5    1    4    4  502    0  0.86590929678E+02 -0.41922990766E+01  0.35473031185E+03  0.36520028563E+03  0.47000000000E+01 0.  1.
         -5    1    4    4    0  502 -0.42240611374E+02 -0.36482384859E+01  0.98603456449E+02  0.10743514563E+03  0.47000000000E+01 0.  1.
          5    1    5    5  503    0 -0.33444903650E+02  0.65083285483E+02  0.99126109148E+02  0.12329830147E+03  0.47000000000E+01 0. -1.
         -5    1    5    5    0  503 -0.10905414654E+02 -0.57242747921E+02  0.73859513712E+02  0.94196486262E+02  0.47000000000E+01 0. -1.
<mgrwt>
<rscale>  0 0.28983399E+03</rscale>
<asrwt>0</asrwt>
<pdfrwt beam="1">  1        1 0.49085257E-02 0.28983399E+03</pdfrwt>
<pdfrwt beam="2">  1       -1 0.10126534E+00 0.28983399E+03</pdfrwt>
<totfact> 0.16744407E+03</totfact>
</mgrwt>
</event>
<event>
 9    1  0.7997082E-001  0.2768086E+03  0.7818608E-02  0.1097445E+00
          2   -1    0    0  501    0  0.00000000000E+00  0.00000000000E+00  0.82633882876E+03  0.82633882876E+03  0.00000000000E+00 0.  1.
         -2   -1    0    0    0  501 -0.00000000000E+00 -0.00000000000E+00 -0.23181468401E+02  0.23181468401E+02  0.00000000000E+00 0.  1.
         35    2    1    2    0    0  0.35527136788E-14 -0.71054273576E-14  0.80315736036E+03  0.84952029716E+03  0.27680857969E+03 0.  0.
         25    2    3    3    0    0 -0.30985756422E+02 -0.40229521492E+02  0.47576580821E+03  0.49473814741E+03  0.12583401265E+03 0.  0.
         25    2    3    3    0    0  0.30985756422E+02  0.40229521492E+02  0.32739155215E+03  0.35478214975E+03  0.12691183500E+03 0.  0.
          5    1    4    4  502    0  0.18422113643E+02  0.37628585289E+02  0.18124336304E+03  0.18608205542E+03  0.47000000000E+01 0. -1.
         -5    1    4    4    0  502 -0.49407870065E+02 -0.77858106781E+02  0.29452244517E+03  0.30865609199E+03  0.47000000000E+01 0. -1.
          5    1    5    5  503    0 -0.31926827892E+02  0.86347039481E+01  0.24069825712E+03  0.24300539383E+03  0.47000000000E+01 0.  1.
         -5    1    5    5    0  503  0.62912584313E+02  0.31594817544E+02  0.86693295029E+02  0.11177675592E+03  0.47000000000E+01 0.  1.
<mgrwt>
<rscale>  0 0.27680858E+03</rscale>
<asrwt>0</asrwt>
<pdfrwt beam="1">  1        2 0.12712903E+00 0.27680858E+03</pdfrwt>
<pdfrwt beam="2">  1       -2 0.35663804E-02 0.27680858E+03</pdfrwt>
<totfact> 0.11083947E+04</totfact>
</mgrwt>
</event>
<event>
 9    1  0.7997082E-001  0.2747791E+03  0.7818608E-02  0.1098575E+00
          2   -1    0    0  501    0  0.00000000000E+00  0.00000000000E+00  0.72293156821E+02  0.72293156821E+02  0.00000000000E+00 0.  1.
         -2   -1    0    0    0  501 -0.00000000000E+00 -0.00000000000E+00 -0.26110194506E+03  0.26110194506E+03  0.00000000000E+00 0.  1.
         35    2    1    2    0    0  0.00000000000E+00  0.00000000000E+00 -0.18880878823E+03  0.33339510188E+03  0.27477906660E+03 0.  0.
         25    2    3    3    0    0 -0.43657116115E+02 -0.35254829100E+02 -0.86000245245E+02  0.16185558421E+03  0.12510931698E+03 0.  0.
         25    2    3    3    0    0  0.43657116115E+02  0.35254829100E+02 -0.10280854299E+03  0.17153951767E+03  0.12532901838E+03 0.  0.
          5    1    4    4  502    0 -0.62709641639E+02 -0.31806671354E+01  0.52276449616E+01  0.63182545610E+02  0.47000000000E+01 0. -1.
         -5    1    4    4    0  502  0.19052525524E+02 -0.32074161965E+02 -0.91227890206E+02  0.98673038597E+02  0.47000000000E+01 0. -1.
          5    1    5    5  503    0  0.64000715459E+02 -0.23876562782E+02 -0.28131374484E+02  0.74024631441E+02  0.47000000000E+01 0. -1.
         -5    1    5    5    0  503 -0.20343599345E+02  0.59131391882E+02 -0.74677168506E+02  0.97514886229E+02  0.47000000000E+01 0. -1.
<mgrwt>
<rscale>  0 0.27477907E+03</rscale>
<asrwt>0</asrwt>
<pdfrwt beam="1">  1        2 0.11122024E-01 0.27477907E+03</pdfrwt>
<pdfrwt beam="2">  1       -2 0.40169530E-01 0.27477907E+03</pdfrwt>
<totfact> 0.33016804E+03</totfact>
</mgrwt>
</event>
<event>
 9    1  0.7997082E-001  0.2732880E+03  0.7818608E-02  0.1099412E+00
         -2   -1    0    0    0  501 -0.00000000000E+00  0.00000000000E+00  0.24207581878E+02  0.24207581878E+02  0.00000000000E+00 0.  1.
          2   -1    0    0  501    0  0.00000000000E+00 -0.00000000000E+00 -0.77131136290E+03  0.77131136290E+03  0.00000000000E+00 0.  1.
         35    2    1    2    0    0  0.00000000000E+00 -0.71054273576E-14 -0.74710378102E+03  0.79551894478E+03  0.27328800172E+03 0.  0.
         25    2    3    3    0    0 -0.42391352802E+02  0.30547860413E+02 -0.33646992960E+03  0.36299652815E+03  0.12579454423E+03 0.  0.
         25    2    3    3    0    0  0.42391352802E+02 -0.30547860413E+02 -0.41063385142E+03  0.43252241663E+03  0.12540048796E+03 0.  0.
          5    1    4    4  502    0 -0.23421444616E+01 -0.41768843357E+02 -0.19126690627E+03  0.19584494211E+03  0.47000000000E+01 0.  1.
         -5    1    4    4    0  502 -0.40049208340E+02  0.72316703770E+02 -0.14520302334E+03  0.16715158605E+03  0.47000000000E+01 0.  1.
          5    1    5    5  503    0 -0.14675512951E+02 -0.26697506101E+01 -0.32713343478E+03  0.32750705702E+03  0.47000000000E+01 0. -1.
         -5    1    5    5    0  503  0.57066865753E+02 -0.27878109803E+02 -0.83500416640E+02  0.10501535960E+03  0.47000000000E+01 0. -1.
<mgrwt>
<rscale>  0 0.27328800E+03</rscale>
<asrwt>0</asrwt>
<pdfrwt beam="1">  1        2 0.11866330E+00 0.27328800E+03</pdfrwt>
<pdfrwt beam="2">  1       -2 0.37242429E-02 0.27328800E+03</pdfrwt>
<totfact> 0.11333953E+04</totfact>
</mgrwt>
</event>
<event>
 9    1  0.7997082E-001  0.2748662E+03  0.7818608E-02  0.1098526E+00
          2   -1    0    0  501    0  0.00000000000E+00  0.00000000000E+00  0.68536592270E+02  0.68536592270E+02  0.00000000000E+00 0. -1.
         -2   -1    0    0    0  501 -0.00000000000E+00 -0.00000000000E+00 -0.27558797835E+03  0.27558797835E+03  0.00000000000E+00 0. -1.
         35    2    1    2    0    0 -0.71054273576E-14  0.35527136788E-14 -0.20705138608E+03  0.34412457062E+03  0.27486622860E+03 0.  0.
         25    2    3    3    0    0  0.31349841807E+02  0.21107029722E+02 -0.15954851218E+03  0.20504630991E+03  0.12312571698E+03 0.  0.
         25    2    3    3    0    0 -0.31349841807E+02 -0.21107029722E+02 -0.47502873898E+02  0.13907826071E+03  0.12513161187E+03 0.  0.
          5    1    4    4  502    0  0.23613224858E+02 -0.48211984582E+02 -0.98302701136E+02  0.11210482102E+03  0.47000000000E+01 0.  1.
         -5    1    4    4    0  502  0.77366169489E+01  0.69319014304E+02 -0.61245811048E+02  0.92941488889E+02  0.47000000000E+01 0.  1.
          5    1    5    5  503    0  0.38584751491E+02  0.24421390992E+02 -0.26076975435E+02  0.52794753844E+02  0.47000000000E+01 0.  1.
         -5    1    5    5    0  503 -0.69934593298E+02 -0.45528420714E+02 -0.21425898463E+02  0.86283506868E+02  0.47000000000E+01 0.  1.
<mgrwt>
<rscale>  0 0.27486623E+03</rscale>
<asrwt>0</asrwt>
<pdfrwt beam="1">  1        2 0.10544091E-01 0.27486623E+03</pdfrwt>
<pdfrwt beam="2">  1       -2 0.42398151E-01 0.27486623E+03</pdfrwt>
<totfact> 0.31785095E+03</totfact>
</mgrwt>
</event>
<event>
 9    1  0.7997082E-001  0.2746362E+03  0.7818608E-02  0.1098655E+00
         -2   -1    0    0    0  501 -0.00000000000E+00  0.00000000000E+00  0.33497578006E+03  0.33497578006E+03  0.00000000000E+00 0.  1.
          2   -1    0    0  501    0  0.00000000000E+00 -0.00000000000E+00 -0.56291424744E+02  0.56291424744E+02  0.00000000000E+00 0.  1.
         35    2    1    2    0    0 -0.71054273576E-14  0.71054273576E-14  0.27868435532E+03  0.39126720480E+03  0.27463622423E+03 0.  0.
         25    2    3    3    0    0  0.46513187867E+01 -0.16251369375E+02  0.66692232755E+02  0.14352442975E+03  0.12595898639E+03 0.  0.
         25    2    3    3    0    0 -0.46513187867E+01  0.16251369375E+02  0.21199212256E+03  0.24774277506E+03  0.12708296814E+03 0.  0.
          5    1    4    4  502    0  0.41378469911E+02  0.40245023630E+02  0.42261487776E+02  0.71693535610E+02  0.47000000000E+01 0.  1.
         -5    1    4    4    0  502 -0.36727151125E+02 -0.56496393005E+02  0.24430744978E+02  0.71830894137E+02  0.47000000000E+01 0.  1.
          5    1    5    5  503    0 -0.56026519128E+02  0.37829225880E+02  0.82993268440E+02  0.10714473287E+03  0.47000000000E+01 0. -1.
         -5    1    5    5    0  503  0.51375200341E+02 -0.21577856505E+02  0.12899885412E+03  0.14059804218E+03  0.47000000000E+01 0. -1.
<mgrwt>
<rscale>  0 0.27463622E+03</rscale>
<asrwt>0</asrwt>
<pdfrwt beam="1">  1        2 0.86602194E-02 0.27463622E+03</pdfrwt>
<pdfrwt beam="2">  1       -2 0.51534734E-01 0.27463622E+03</pdfrwt>
<totfact> 0.27674212E+03</totfact>
</mgrwt>
</event>
<event>
 9    1  0.7997082E-001  0.2759017E+03  0.7818608E-02  0.1097949E+00
          1   -1    0    0  501    0  0.00000000000E+00  0.00000000000E+00  0.65645087722E+03  0.65645087722E+03  0.00000000000E+00 0. -1.
         -1   -1    0    0    0  501 -0.00000000000E+00 -0.00000000000E+00 -0.28989897797E+02  0.28989897797E+02  0.00000000000E+00 0. -1.
         35    2    1    2    0    0  0.00000000000E+00  0.00000000000E+00  0.62746097942E+03  0.68544077501E+03  0.27590174946E+03 0.  0.
         25    2    3    3    0    0 -0.23511417885E+02  0.31482617615E+02  0.26834743038E+03  0.29915564256E+03  0.12625297262E+03 0.  0.
         25    2    3    3    0    0  0.23511417885E+02 -0.31482617615E+02  0.35911354904E+03  0.38628513246E+03  0.13678348027E+03 0.  0.
          5    1    4    4  502    0 -0.21660438042E+02  0.29635621110E+02  0.68903077713E+01  0.37643205973E+02  0.47000000000E+01 0.  1.
         -5    1    4    4    0  502 -0.18509798427E+01  0.18469965046E+01  0.26145712261E+03  0.26151243658E+03  0.47000000000E+01 0.  1.
          5    1    5    5  503    0 -0.59094850591E+01 -0.25387231694E+01  0.34079303757E+03  0.34088612700E+03  0.47000000000E+01 0.  1.
         -5    1    5    5    0  503  0.29420902944E+02 -0.28943894445E+02  0.18320511468E+02  0.45399005453E+02  0.47000000000E+01 0.  1.
<mgrwt>
<rscale>  0 0.27590175E+03</rscale>
<asrwt>0</asrwt>
<pdfrwt beam="1">  1        1 0.10099243E+00 0.27590175E+03</pdfrwt>
<pdfrwt beam="2">  1       -1 0.44599848E-02 0.27590175E+03</pdfrwt>
<totfact> 0.64488077E+03</totfact>
</mgrwt>
</event>
<event>
 9    1  0.7997082E-001  0.2623430E+03  0.7818608E-02  0.1105744E+00
          1   -1    0    0  501    0  0.00000000000E+00  0.00000000000E+00  0.32644456877E+02  0.32644456877E+02  0.00000000000E+00 0.  1.
         -1   -1    0    0    0  501 -0.00000000000E+00 -0.00000000000E+00 -0.52707135194E+03  0.52707135194E+03  0.00000000000E+00 0.  1.
         35    2    1    2    0    0  0.00000000000E+00  0.00000000000E+00 -0.49442689506E+03  0.55971580882E+03  0.26234296651E+03 0.  0.
         25    2    3    3    0    0  0.19325980278E+01  0.37198925989E+02 -0.27230976727E+03  0.30215190383E+03  0.12552158621E+03 0.  0.
         25    2    3    3    0    0 -0.19325980278E+01 -0.37198925989E+02 -0.22211712779E+03  0.25756390499E+03  0.12496260107E+03 0.  0.
          5    1    4    4  502    0  0.19455810666E+02  0.79038617884E+02 -0.13771394550E+03  0.16004015893E+03  0.47000000000E+01 0.  1.
         -5    1    4    4    0  502 -0.17523212639E+02 -0.41839691895E+02 -0.13459582177E+03  0.14211174490E+03  0.47000000000E+01 0.  1.
          5    1    5    5  503    0 -0.32856356318E+02 -0.26535617010E+02 -0.11025734392E+02  0.43901434367E+02  0.47000000000E+01 0. -1.
         -5    1    5    5    0  503  0.30923758290E+02 -0.10663308980E+02 -0.21109139340E+03  0.21366247062E+03  0.47000000000E+01 0. -1.
<mgrwt>
<rscale>  0 0.26234297E+03</rscale>
<asrwt>0</asrwt>
<pdfrwt beam="1">  1        1 0.50222242E-02 0.26234297E+03</pdfrwt>
<pdfrwt beam="2">  1       -1 0.81087899E-01 0.26234297E+03</pdfrwt>
<totfact> 0.26137899E+03</totfact>
</mgrwt>
</event>
<event>
 9    1  0.7997082E-001  0.2770537E+03  0.7818608E-02  0.1097309E+00
         -1   -1    0    0    0  501 -0.00000000000E+00  0.00000000000E+00  0.64492288281E+02  0.64492288281E+02  0.00000000000E+00 0.  1.
          1   -1    0    0  501    0  0.00000000000E+00 -0.00000000000E+00 -0.29755006153E+03  0.29755006153E+03  0.00000000000E+00 0.  1.
         35    2    1    2    0    0 -0.14210854715E-13  0.71054273576E-14 -0.23305777325E+03  0.36204234981E+03  0.27705367239E+03 0.  0.
         25    2    3    3    0    0 -0.46251985002E+02  0.34040443109E+02 -0.14233124632E+03  0.19706362575E+03  0.12360376626E+03 0.  0.
         25    2    3    3    0    0  0.46251985002E+02 -0.34040443109E+02 -0.90726526931E+02  0.16497872405E+03  0.12525445628E+03 0.  0.
          5    1    4    4  502    0 -0.17262593611E+02  0.13068024170E+01  0.21171849599E+02  0.27749632181E+02  0.47000000000E+01 0. -1.
         -5    1    4    4    0  502 -0.28989391392E+02  0.32733640692E+02 -0.16350309592E+03  0.16931399357E+03  0.47000000000E+01 0. -1.
          5    1    5    5  503    0  0.95067783130E+01 -0.67504112737E+02 -0.86015423864E+01  0.68871333672E+02  0.47000000000E+01 0.  1.
         -5    1    5    5    0  503  0.36745206689E+02  0.33463669628E+02 -0.82124984545E+02  0.96107390383E+02  0.47000000000E+01 0.  1.
<mgrwt>
<rscale>  0 0.27705367E+03</rscale>
<asrwt>0</asrwt>
<pdfrwt beam="1">  1        1 0.45776932E-01 0.27705367E+03</pdfrwt>
<pdfrwt beam="2">  1       -1 0.99218906E-02 0.27705367E+03</pdfrwt>
<totfact> 0.54291326E+03</totfact>
</mgrwt>
</event>
<event>
 9    1  0.7997082E-001  0.2777129E+03  0.7818608E-02  0.1096945E+00
         -2   -1    0    0    0  501 -0.00000000000E+00  0.00000000000E+00  0.24660343339E+02  0.24660343339E+02  0.00000000000E+00 0.  1.
          2   -1    0    0  501    0  0.00000000000E+00 -0.00000000000E+00 -0.78186706106E+03  0.78186706106E+03  0.00000000000E+00 0.  1.
         35    2    1    2    0    0 -0.71054273576E-14  0.00000000000E+00 -0.75720671772E+03  0.80652740440E+03  0.27771287454E+03 0.  0.
         25    2    3    3    0    0  0.48633006563E+02  0.17685964408E+02 -0.29104178404E+03  0.32099074510E+03  0.12510705701E+03 0.  0.
         25    2    3    3    0    0 -0.48633006563E+02 -0.17685964408E+02 -0.46616493368E+03  0.48553665930E+03  0.12553142822E+03 0.  0.
          5    1    4    4  502    0  0.33959889861E+02 -0.28275143449E+00 -0.29500565804E+03  0.29699121594E+03  0.47000000000E+01 0.  1.
         -5    1    4    4    0  502  0.14673116702E+02  0.17968715843E+02  0.39638739987E+01  0.23999529160E+02  0.47000000000E+01 0.  1.
          5    1    5    5  503    0  0.41533109951E+02  0.32773910771E+01 -0.17609215747E+03  0.18101458073E+03  0.47000000000E+01 0. -1.
         -5    1    5    5    0  503 -0.90166116514E+02 -0.20963355485E+02 -0.29007277621E+03  0.30452207857E+03  0.47000000000E+01 0. -1.
<mgrwt>
<rscale>  0 0.27771287E+03</rscale>
<asrwt>0</asrwt>
<pdfrwt beam="1">  1        2 0.12028723E+00 0.27771287E+03</pdfrwt>
<pdfrwt beam="2">  1       -2 0.37938993E-02 0.27771287E+03</pdfrwt>
<totfact> 0.10842329E+04</totfact>
</mgrwt>
</event>
<event>
 9    1  0.7997082E-001  0.2755775E+03  0.7818608E-02  0.1098129E+00
          2   -1    0    0  501    0  0.00000000000E+00  0.00000000000E+00  0.85967517643E+02  0.85967517643E+02  0.00000000000E+00 0. -1.
         -2   -1    0    0    0  501 -0.00000000000E+00 -0.00000000000E+00 -0.22084780738E+03  0.22084780738E+03  0.00000000000E+00 0. -1.
         35    2    1    2    0    0  0.17763568394E-14  0.71054273576E-14 -0.13488028974E+03  0.30681532503E+03  0.27557748658E+03 0.  0.
         25    2    3    3    0    0 -0.76659133895E+01  0.25083400890E+02 -0.12534771745E+03  0.17860299352E+03  0.12449512359E+03 0.  0.
         25    2    3    3    0    0  0.76659133895E+01 -0.25083400890E+02 -0.95325722956E+01  0.12821233151E+03  0.12513827867E+03 0.  0.
          5    1    4    4  502    0 -0.37447860351E+01 -0.50560660138E+02 -0.57522664442E+02  0.76820249288E+02  0.47000000000E+01 0. -1.
         -5    1    4    4    0  502 -0.39211273544E+01  0.75644061028E+02 -0.67825053003E+02  0.10178274423E+03  0.47000000000E+01 0. -1.
          5    1    5    5  503    0 -0.16482617755E+02  0.26061635108E+02  0.41481330161E+02  0.51900638382E+02  0.47000000000E+01 0.  1.
         -5    1    5    5    0  503  0.24148531145E+02 -0.51145035998E+02 -0.51013902456E+02  0.76311693124E+02  0.47000000000E+01 0.  1.
<mgrwt>
<rscale>  0 0.27557749E+03</rscale>
<asrwt>0</asrwt>
<pdfrwt beam="1">  1        2 0.13225772E-01 0.27557749E+03</pdfrwt>
<pdfrwt beam="2">  1       -2 0.33976585E-01 0.27557749E+03</pdfrwt>
<totfact> 0.36660114E+03</totfact>
</mgrwt>
</event>
<event>
 9    1  0.7997082E-001  0.2655847E+03  0.7818608E-02  0.1103834E+00
          2   -1    0    0  501    0  0.00000000000E+00  0.00000000000E+00  0.13948749210E+03  0.13948749210E+03  0.00000000000E+00 0. -1.
         -2   -1    0    0    0  501 -0.00000000000E+00 -0.00000000000E+00 -0.12641855195E+03  0.12641855195E+03  0.00000000000E+00 0. -1.
         35    2    1    2    0    0 -0.71054273576E-14  0.35527136788E-14  0.13068940148E+02  0.26590604406E+03  0.26558468907E+03 0.  0.
         25    2    3    3    0    0  0.78143714525E+01 -0.21470173540E+02  0.43157909605E+02  0.13411464454E+03  0.12490836627E+03 0.  0.
         25    2    3    3    0    0 -0.78143714525E+01  0.21470173540E+02 -0.30088969457E+02  0.13179139952E+03  0.12626002594E+03 0.  0.
          5    1    4    4  502    0 -0.11973344486E+02  0.47455570134E+02 -0.20555107251E+01  0.49210844733E+02  0.47000000000E+01 0.  1.
         -5    1    4    4    0  502  0.19787715939E+02 -0.68925743675E+02  0.45213420330E+02  0.84903799804E+02  0.47000000000E+01 0.  1.
          5    1    5    5  503    0 -0.64585361923E+02  0.24853053090E+02 -0.27662475790E+02  0.74674264572E+02  0.47000000000E+01 0. -1.
         -5    1    5    5    0  503  0.56770990470E+02 -0.33828795497E+01 -0.24264936672E+01  0.57117134947E+02  0.47000000000E+01 0. -1.
<mgrwt>
<rscale>  0 0.26558469E+03</rscale>
<asrwt>0</asrwt>
<pdfrwt beam="1">  1        2 0.21459614E-01 0.26558469E+03</pdfrwt>
<pdfrwt beam="2">  1       -2 0.19449008E-01 0.26558469E+03</pdfrwt>
<totfact> 0.55948392E+03</totfact>
</mgrwt>
</event>
<event>
 9    1  0.7997082E-001  0.2759895E+03  0.7818608E-02  0.1097900E+00
          2   -1    0    0  501    0  0.00000000000E+00  0.00000000000E+00  0.42523361228E+02  0.42523361228E+02  0.00000000000E+00 0. -1.
         -2   -1    0    0    0  501 -0.00000000000E+00 -0.00000000000E+00 -0.44781372229E+03  0.44781372229E+03  0.00000000000E+00 0. -1.
         35    2    1    2    0    0  0.00000000000E+00 -0.71054273576E-14 -0.40529036106E+03  0.49033708352E+03  0.27598945397E+03 0.  0.
         25    2    3    3    0    0 -0.18176034196E+01  0.58393392982E+02 -0.23284131688E+03  0.27055511807E+03  0.12478742341E+03 0.  0.
         25    2    3    3    0    0  0.18176034196E+01 -0.58393392982E+02 -0.17244904418E+03  0.21978196545E+03  0.12309487183E+03 0.  0.
          5    1    4    4  502    0  0.39063211687E+02 -0.20611058815E+02 -0.48171879252E+02  0.65523814018E+02  0.47000000000E+01 0. -1.
         -5    1    4    4    0  502 -0.40880815106E+02  0.79004451797E+02 -0.18466943763E+03  0.20503130405E+03  0.47000000000E+01 0. -1.
          5    1    5    5  503    0 -0.27481500576E+02 -0.33750444675E+02 -0.17570153543E+03  0.18107303759E+03  0.47000000000E+01 0. -1.
         -5    1    5    5    0  503  0.29299103996E+02 -0.24642948307E+02  0.32524912533E+01  0.38708927854E+02  0.47000000000E+01 0. -1.
<mgrwt>
<rscale>  0 0.27598945E+03</rscale>
<asrwt>0</asrwt>
<pdfrwt beam="1">  1        2 0.65420554E-02 0.27598945E+03</pdfrwt>
<pdfrwt beam="2">  1       -2 0.68894421E-01 0.27598945E+03</pdfrwt>
<totfact> 0.21726409E+03</totfact>
</mgrwt>
</event>
<event>
 9    1  0.7997082E-001  0.2780007E+03  0.7818608E-02  0.1096786E+00
         -4   -1    0    0    0  501 -0.00000000000E+00  0.00000000000E+00  0.16805310272E+03  0.16805310272E+03  0.00000000000E+00 0.  1.
          4   -1    0    0  501    0  0.00000000000E+00 -0.00000000000E+00 -0.11497016116E+03  0.11497016116E+03  0.00000000000E+00 0.  1.
         35    2    1    2    0    0  0.00000000000E+00  0.14210854715E-13  0.53082941560E+02  0.28302326387E+03  0.27800066404E+03 0.  0.
         25    2    3    3    0    0 -0.19722527687E+02 -0.58379727218E+02  0.16842456905E+02  0.13885281235E+03  0.12328529716E+03 0.  0.
         25    2    3    3    0    0  0.19722527687E+02  0.58379727218E+02  0.36240484655E+02  0.14417045152E+03  0.12519814581E+03 0.  0.
          5    1    4    4  502    0  0.39408613815E+02  0.69837881889E+01 -0.17771000725E+02  0.44042145805E+02  0.47000000000E+01 0. -1.
         -5    1    4    4    0  502 -0.59131141503E+02 -0.65363515407E+02  0.34613457630E+02  0.94810666546E+02  0.47000000000E+01 0. -1.
          5    1    5    5  503    0  0.15215145554E+02 -0.29988627896E+02 -0.19821487532E+02  0.39316660912E+02  0.47000000000E+01 0.  1.
         -5    1    5    5    0  503  0.45073821331E+01  0.88368355114E+02  0.56061972188E+02  0.10485379061E+03  0.47000000000E+01 0.  1.
<mgrwt>
<rscale>  0 0.27800066E+03</rscale>
<asrwt>0</asrwt>
<pdfrwt beam="1">  1        4 0.17687717E-01 0.27800066E+03</pdfrwt>
<pdfrwt beam="2">  1       -4 0.25854323E-01 0.27800066E+03</pdfrwt>
<totfact> 0.74384588E+02</totfact>
</mgrwt>
</event>
<event>
 9    1  0.7997082E-001  0.2731820E+03  0.7818608E-02  0.1099472E+00
          2   -1    0    0  501    0  0.00000000000E+00  0.00000000000E+00  0.14924054404E+03  0.14924054404E+03  0.00000000000E+00 0. -1.
         -2   -1    0    0    0  501 -0.00000000000E+00 -0.00000000000E+00 -0.12501365319E+03  0.12501365319E+03  0.00000000000E+00 0. -1.
         35    2    1    2    0    0  0.14210854715E-13  0.35527136788E-14  0.24226890847E+02  0.27425419723E+03  0.27318203173E+03 0.  0.
         25    2    3    3    0    0 -0.44713839763E+02 -0.21628461482E+02  0.40780892594E+02  0.13870684726E+03  0.12292026059E+03 0.  0.
         25    2    3    3    0    0  0.44713839763E+02  0.21628461482E+02 -0.16554001747E+02  0.13554734997E+03  0.12502772212E+03 0.  0.
          5    1    4    4  502    0  0.40559031704E+02  0.72603030031E+01  0.20662657976E+02  0.46333384153E+02  0.47000000000E+01 0.  1.
         -5    1    4    4    0  502 -0.85272871467E+02 -0.28888764485E+02  0.20118234618E+02  0.92373463104E+02  0.47000000000E+01 0.  1.
          5    1    5    5  503    0  0.24075901665E+02  0.67393057705E+02  0.18586428649E+02  0.74087911279E+02  0.47000000000E+01 0.  1.
         -5    1    5    5    0  503  0.20637938098E+02 -0.45764596223E+02 -0.35140430395E+02  0.61459438696E+02  0.47000000000E+01 0.  1.
<mgrwt>
<rscale>  0 0.27318203E+03</rscale>
<asrwt>0</asrwt>
<pdfrwt beam="1">  1        2 0.22960084E-01 0.27318203E+03</pdfrwt>
<pdfrwt beam="2">  1       -2 0.19232870E-01 0.27318203E+03</pdfrwt>
<totfact> 0.52880762E+03</totfact>
</mgrwt>
</event>
<event>
 9    1  0.7997082E-001  0.2760897E+03  0.7818608E-02  0.1097844E+00
          1   -1    0    0  501    0  0.00000000000E+00  0.00000000000E+00  0.93081207102E+03  0.93081207102E+03  0.00000000000E+00 0. -1.
         -1   -1    0    0    0  501 -0.00000000000E+00 -0.00000000000E+00 -0.20472855840E+02  0.20472855840E+02  0.00000000000E+00 0. -1.
         35    2    1    2    0    0  0.17763568394E-14  0.00000000000E+00  0.91033921518E+03  0.95128492686E+03  0.27608970531E+03 0.  0.
         25    2    3    3    0    0  0.45200186544E+01 -0.36930319999E+02  0.59963669280E+03  0.61385135647E+03  0.12595652180E+03 0.  0.
         25    2    3    3    0    0 -0.45200186544E+01  0.36930319999E+02  0.31070252238E+03  0.33743357039E+03  0.12625798157E+03 0.  0.
          5    1    4    4  502    0 -0.77464465855E+01 -0.80953740322E+02  0.30667116054E+03  0.31730554079E+03  0.47000000000E+01 0. -1.
         -5    1    4    4    0  502  0.12266465240E+02  0.44023420323E+02  0.29296553226E+03  0.29654581568E+03  0.47000000000E+01 0. -1.
          5    1    5    5  503    0 -0.23960751250E+02  0.42882702347E+02  0.33955318996E+02  0.59900729955E+02  0.47000000000E+01 0.  1.
         -5    1    5    5    0  503  0.19440732596E+02 -0.59523823480E+01  0.27674720338E+03  0.27753284043E+03  0.47000000000E+01 0.  1.
<mgrwt>
<rscale>  0 0.27608971E+03</rscale>
<asrwt>0</asrwt>
<pdfrwt beam="1">  1        1 0.14320182E+00 0.27608971E+03</pdfrwt>
<pdfrwt beam="2">  1       -1 0.31496709E-02 0.27608971E+03</pdfrwt>
<totfact> 0.63336569E+03</totfact>
</mgrwt>
</event>
<event>
 9    1  0.7997082E-001  0.2660694E+03  0.7818608E-02  0.1103550E+00
         -1   -1    0    0    0  501 -0.00000000000E+00  0.00000000000E+00  0.24739801620E+03  0.24739801620E+03  0.00000000000E+00 0. -1.
          1   -1    0    0  501    0  0.00000000000E+00 -0.00000000000E+00 -0.71537508174E+02  0.71537508174E+02  0.00000000000E+00 0. -1.
         35    2    1    2    0    0  0.71054273576E-14  0.00000000000E+00  0.17586050803E+03  0.31893552437E+03  0.26606944662E+03 0.  0.
         25    2    3    3    0    0  0.18769964824E+02  0.27122844081E+02  0.12428685701E+03  0.17916545297E+03  0.12476007559E+03 0.  0.
         25    2    3    3    0    0 -0.18769964824E+02 -0.27122844081E+02  0.51573651018E+02  0.13977007141E+03  0.12564979559E+03 0.  0.
          5    1    4    4  502    0 -0.10996435541E+02 -0.32916971702E+02 -0.30913123116E+01  0.35158140344E+02  0.47000000000E+01 0. -1.
         -5    1    4    4    0  502  0.29766400366E+02  0.60039815783E+02  0.12737816932E+03  0.14400731262E+03  0.47000000000E+01 0. -1.
          5    1    5    5  503    0  0.41734002960E+02  0.99700232400E+01  0.53347484051E+02  0.68623410153E+02  0.47000000000E+01 0.  1.
         -5    1    5    5    0  503 -0.60503967785E+02 -0.37092867321E+02 -0.17738330325E+01  0.71146661253E+02  0.47000000000E+01 0.  1.
<mgrwt>
<rscale>  0 0.26606945E+03</rscale>
<asrwt>0</asrwt>
<pdfrwt beam="1">  1        1 0.11005771E-01 0.26606945E+03</pdfrwt>
<pdfrwt beam="2">  1       -1 0.38061233E-01 0.26606945E+03</pdfrwt>
<totfact> 0.37776011E+03</totfact>
</mgrwt>
</event>
<event>
 9    1  0.7997082E-001  0.2761998E+03  0.7818608E-02  0.1097783E+00
         -2   -1    0    0    0  501 -0.00000000000E+00  0.00000000000E+00  0.33662478017E+02  0.33662478017E+02  0.00000000000E+00 0. -1.
          2   -1    0    0  501    0  0.00000000000E+00 -0.00000000000E+00 -0.56655308119E+03  0.56655308119E+03  0.00000000000E+00 0. -1.
         35    2    1    2    0    0  0.71054273576E-14  0.35527136788E-14 -0.53289060317E+03  0.60021555921E+03  0.27619978741E+03 0.  0.
         25    2    3    3    0    0 -0.41836765338E+02  0.31636513856E+02 -0.19719738803E+03  0.23932923123E+03  0.12506193319E+03 0.  0.
         25    2    3    3    0    0  0.41836765338E+02 -0.31636513856E+02 -0.33569321514E+03  0.36088632798E+03  0.12164630321E+03 0.  0.
          5    1    4    4  502    0  0.30378448238E+02  0.24238006473E+01 -0.41618913880E+01  0.31114888187E+02  0.47000000000E+01 0. -1.
         -5    1    4    4    0  502 -0.72215213576E+02  0.29212713208E+02 -0.19303549664E+03  0.20821434304E+03  0.47000000000E+01 0. -1.
          5    1    5    5  503    0 -0.86092722147E+01 -0.58235330754E+02 -0.25633095693E+03  0.26304585684E+03  0.47000000000E+01 0.  1.
         -5    1    5    5    0  503  0.50446037552E+02  0.26598816898E+02 -0.79362258208E+02  0.97840471140E+02  0.47000000000E+01 0.  1.
<mgrwt>
<rscale>  0 0.27619979E+03</rscale>
<asrwt>0</asrwt>
<pdfrwt beam="1">  1        2 0.87162009E-01 0.27619979E+03</pdfrwt>
<pdfrwt beam="2">  1       -2 0.51788430E-02 0.27619979E+03</pdfrwt>
<totfact> 0.99623736E+03</totfact>
</mgrwt>
</event>
<event>
 9    1  0.7997082E-001  0.2707189E+03  0.7818608E-02  0.1100869E+00
         -2   -1    0    0    0  501 -0.00000000000E+00  0.00000000000E+00  0.65581439406E+01  0.65581439406E+01  0.00000000000E+00 0.  1.
          2   -1    0    0  501    0  0.00000000000E+00 -0.00000000000E+00 -0.27938053746E+04  0.27938053746E+04  0.00000000000E+00 0.  1.
         35    2    1    2    0    0  0.00000000000E+00  0.35527136788E-14 -0.27872472307E+04  0.28003635186E+04  0.27071887846E+03 0.  0.
         25    2    3    3    0    0 -0.17686974269E+01  0.94074934021E+01 -0.87864687460E+03  0.88755865796E+03  0.12509361231E+03 0.  0.
         25    2    3    3    0    0  0.17686974269E+01 -0.94074934021E+01 -0.19086003561E+04  0.19128048606E+04  0.12639417040E+03 0.  0.
          5    1    4    4  502    0 -0.20517053210E+02  0.32366133021E+02 -0.85145044636E+02  0.93489489597E+02  0.47000000000E+01 0. -1.
         -5    1    4    4    0  502  0.18748355783E+02 -0.22958639619E+02 -0.79350182997E+03  0.79406916836E+03  0.47000000000E+01 0. -1.
          5    1    5    5  503    0 -0.26076542172E+02 -0.50210386911E+02 -0.15185314563E+04  0.15195923607E+04  0.47000000000E+01 0.  1.
         -5    1    5    5    0  503  0.27845239599E+02  0.40802893509E+02 -0.39006889977E+03  0.39321249987E+03  0.47000000000E+01 0.  1.
<mgrwt>
<rscale>  0 0.27071888E+03</rscale>
<asrwt>0</asrwt>
<pdfrwt beam="1">  1        2 0.42981603E+00 0.27071888E+03</pdfrwt>
<pdfrwt beam="2">  1       -2 0.10089456E-02 0.27071888E+03</pdfrwt>
<totfact> 0.57821844E+03</totfact>
</mgrwt>
</event>
<event>
 9    1  0.7997082E-001  0.2750900E+03  0.7818608E-02  0.1098401E+00
         -2   -1    0    0    0  501 -0.00000000000E+00  0.00000000000E+00  0.66982245888E+01  0.66982245888E+01  0.00000000000E+00 0.  1.
          2   -1    0    0  501    0  0.00000000000E+00 -0.00000000000E+00 -0.28244231163E+04  0.28244231163E+04  0.00000000000E+00 0.  1.
         35    2    1    2    0    0  0.00000000000E+00  0.00000000000E+00 -0.28177248917E+04  0.28311213409E+04  0.27508995159E+03 0.  0.
         25    2    3    3    0    0 -0.17649698130E+02 -0.36215479282E+02 -0.16334605986E+04  0.16387380030E+04  0.12508254384E+03 0.  0.
         25    2    3    3    0    0  0.17649698130E+02  0.36215479282E+02 -0.11842642932E+04  0.11923833379E+04  0.13293996978E+03 0.  0.
          5    1    4    4  502    0  0.37836158658E+02 -0.54359549775E+02 -0.60997389476E+03  0.61357703497E+03  0.47000000000E+01 0. -1.
         -5    1    4    4    0  502 -0.55485856788E+02  0.18144070493E+02 -0.10234867038E+04  0.10251609681E+04  0.47000000000E+01 0. -1.
          5    1    5    5  503    0 -0.42045917922E+02  0.19115938233E+02 -0.90805056455E+03  0.90923660072E+03  0.47000000000E+01 0. -1.
         -5    1    5    5    0  503  0.59695616052E+02  0.17099541048E+02 -0.27621372863E+03  0.28314673716E+03  0.47000000000E+01 0. -1.
<mgrwt>
<rscale>  0 0.27508995E+03</rscale>
<asrwt>0</asrwt>
<pdfrwt beam="1">  1        2 0.43452557E+00 0.27508995E+03</pdfrwt>
<pdfrwt beam="2">  1       -2 0.10304986E-02 0.27508995E+03</pdfrwt>
<totfact> 0.53841452E+03</totfact>
</mgrwt>
</event>
<event>
 9    1  0.7997082E-001  0.2713314E+03  0.7818608E-02  0.1100520E+00
         -2   -1    0    0    0  501 -0.00000000000E+00  0.00000000000E+00  0.38929216233E+02  0.38929216233E+02  0.00000000000E+00 0. -1.
          2   -1    0    0  501    0  0.00000000000E+00 -0.00000000000E+00 -0.47278566605E+03  0.47278566605E+03  0.00000000000E+00 0. -1.
         35    2    1    2    0    0  0.71054273576E-14  0.14210854715E-13 -0.43385644982E+03  0.51171488229E+03  0.27133135039E+03 0.  0.
         25    2    3    3    0    0 -0.24728334703E+02  0.39807056404E+02 -0.25835309996E+03  0.29107800360E+03  0.12563434103E+03 0.  0.
         25    2    3    3    0    0  0.24728334703E+02 -0.39807056404E+02 -0.17550334986E+03  0.22063687868E+03  0.12523224084E+03 0.  0.
          5    1    4    4  502    0 -0.29951814438E+02 -0.11407257979E+02 -0.22970225698E+03  0.23197511415E+03  0.47000000000E+01 0.  1.
         -5    1    4    4    0  502  0.52234797351E+01  0.51214314383E+02 -0.28650842976E+02  0.59102889451E+02  0.47000000000E+01 0.  1.
          5    1    5    5  503    0  0.66671518582E+02 -0.25951863768E+02 -0.49749942647E+02  0.87268192467E+02  0.47000000000E+01 0.  1.
         -5    1    5    5    0  503 -0.41943183879E+02 -0.13855192636E+02 -0.12575340721E+03  0.13336868622E+03  0.47000000000E+01 0.  1.
<mgrwt>
<rscale>  0 0.27133135E+03</rscale>
<asrwt>0</asrwt>
<pdfrwt beam="1">  1        2 0.72736263E-01 0.27133135E+03</pdfrwt>
<pdfrwt beam="2">  1       -2 0.59891097E-02 0.27133135E+03</pdfrwt>
<totfact> 0.97743452E+03</totfact>
</mgrwt>
</event>
<event>
 9    1  0.7997082E-001  0.2783289E+03  0.7818608E-02  0.1096605E+00
          1   -1    0    0  501    0  0.00000000000E+00  0.00000000000E+00  0.21511589386E+04  0.21511589386E+04  0.00000000000E+00 0. -1.
         -1   -1    0    0    0  501 -0.00000000000E+00 -0.00000000000E+00 -0.90029339728E+01  0.90029339728E+01  0.00000000000E+00 0. -1.
         35    2    1    2    0    0  0.17763568394E-14  0.71054273576E-14  0.21421560046E+04  0.21601618726E+04  0.27832888380E+03 0.  0.
         25    2    3    3    0    0 -0.15710780252E+02  0.16308660680E+02  0.61707223430E+03  0.62984644309E+03  0.12415956868E+03 0.  0.
         25    2    3    3    0    0  0.15710780252E+02 -0.16308660680E+02  0.15250837703E+04  0.15303154295E+04  0.12438651928E+03 0.  0.
          5    1    4    4  502    0  0.12078242970E+01 -0.14715406204E+02  0.43580689470E+01  0.16096110842E+02  0.47000000000E+01 0.  1.
         -5    1    4    4    0  502 -0.16918604549E+02  0.31024066884E+02  0.61271416536E+03  0.61375033225E+03  0.47000000000E+01 0.  1.
          5    1    5    5  503    0  0.52585945543E+02 -0.50154981283E+02  0.10667633445E+04  0.10692459618E+04  0.47000000000E+01 0. -1.
         -5    1    5    5    0  503 -0.36875165291E+02  0.33846320603E+02  0.45832042586E+03  0.46106946765E+03  0.47000000000E+01 0. -1.
<mgrwt>
<rscale>  0 0.27832888E+03</rscale>
<asrwt>0</asrwt>
<pdfrwt beam="1">  1        1 0.33094712E+00 0.27832888E+03</pdfrwt>
<pdfrwt beam="2">  1       -1 0.13850685E-02 0.27832888E+03</pdfrwt>
<totfact> 0.31530040E+03</totfact>
</mgrwt>
</event>
<event>
 9    1  0.7997082E-001  0.2749062E+03  0.7818608E-02  0.1098504E+00
          1   -1    0    0  501    0  0.00000000000E+00  0.00000000000E+00  0.10959413371E+04  0.10959413371E+04  0.00000000000E+00 0. -1.
         -1   -1    0    0    0  501 -0.00000000000E+00 -0.00000000000E+00 -0.17239385272E+02  0.17239385272E+02  0.00000000000E+00 0. -1.
         35    2    1    2    0    0  0.71054273576E-14  0.00000000000E+00  0.10787019518E+04  0.11131807223E+04  0.27490620178E+03 0.  0.
         25    2    3    3    0    0  0.36352542601E+02  0.37048500511E+02  0.44038577766E+03  0.46065537469E+03  0.12477837279E+03 0.  0.
         25    2    3    3    0    0 -0.36352542601E+02 -0.37048500511E+02  0.63831617413E+03  0.65252534765E+03  0.12509073676E+03 0.  0.
          5    1    4    4  502    0  0.82484875363E+02  0.24753047643E+02  0.30789749726E+03  0.31974900602E+03  0.47000000000E+01 0.  1.
         -5    1    4    4    0  502 -0.46132332761E+02  0.12295452868E+02  0.13248828040E+03  0.14090636867E+03  0.47000000000E+01 0.  1.
          5    1    5    5  503    0  0.10997823135E+02 -0.58699229148E+02  0.51654334276E+03  0.52000544859E+03  0.47000000000E+01 0. -1.
         -5    1    5    5    0  503 -0.47350365736E+02  0.21650728637E+02  0.12177283137E+03  0.13251989906E+03  0.47000000000E+01 0. -1.
<mgrwt>
<rscale>  0 0.27490620E+03</rscale>
<asrwt>0</asrwt>
<pdfrwt beam="1">  1        1 0.16860631E+00 0.27490620E+03</pdfrwt>
<pdfrwt beam="2">  1       -1 0.26522140E-02 0.27490620E+03</pdfrwt>
<totfact> 0.61457831E+03</totfact>
</mgrwt>
</event>
<event>
 9    1  0.7997082E-001  0.2736914E+03  0.7818608E-02  0.1099185E+00
         -1   -1    0    0    0  501 -0.00000000000E+00  0.00000000000E+00  0.22677017353E+03  0.22677017353E+03  0.00000000000E+00 0.  1.
          1   -1    0    0  501    0  0.00000000000E+00 -0.00000000000E+00 -0.82580266267E+02  0.82580266267E+02  0.00000000000E+00 0.  1.
         35    2    1    2    0    0  0.00000000000E+00  0.35527136788E-14  0.14418990726E+03  0.30935043979E+03  0.27369136860E+03 0.  0.
         25    2    3    3    0    0 -0.18356226236E+02 -0.20962924133E+02  0.26766024341E+02  0.13208681285E+03  0.12630958333E+03 0.  0.
         25    2    3    3    0    0  0.18356226236E+02  0.20962924133E+02  0.11742388292E+03  0.17726362694E+03  0.12983693591E+03 0.  0.
          5    1    4    4  502    0 -0.61878560782E+02  0.22318720856E+02  0.27411144618E+01  0.66005191414E+02  0.47000000000E+01 0.  1.
         -5    1    4    4    0  502  0.43522334546E+02 -0.43281644988E+02  0.24024909879E+02  0.66081621439E+02  0.47000000000E+01 0.  1.
          5    1    5    5  503    0 -0.41826621798E+02 -0.24774703799E+02  0.77613267380E+02  0.91701480429E+02  0.47000000000E+01 0.  1.
         -5    1    5    5    0  503  0.60182848034E+02  0.45737627932E+02  0.39810615539E+02  0.85562146513E+02  0.47000000000E+01 0.  1.
<mgrwt>
<rscale>  0 0.27369137E+03</rscale>
<asrwt>0</asrwt>
<pdfrwt beam="1">  1        1 0.12704656E-01 0.27369137E+03</pdfrwt>
<pdfrwt beam="2">  1       -1 0.34887719E-01 0.27369137E+03</pdfrwt>
<totfact> 0.36366505E+03</totfact>
</mgrwt>
</event>
<event>
 9    1  0.7997082E-001  0.2725072E+03  0.7818608E-02  0.1099853E+00
         -3   -1    0    0    0  501 -0.00000000000E+00  0.00000000000E+00  0.48198678192E+02  0.48198678192E+02  0.00000000000E+00 0. -1.
          3   -1    0    0  501    0  0.00000000000E+00 -0.00000000000E+00 -0.38517741098E+03  0.38517741098E+03  0.00000000000E+00 0. -1.
         35    2    1    2    0    0 -0.71054273576E-14  0.00000000000E+00 -0.33697873279E+03  0.43337608917E+03  0.27250718947E+03 0.  0.
         25    2    3    3    0    0  0.38031464865E+02 -0.35854248430E+02 -0.19247398736E+03  0.23543099587E+03  0.12509835553E+03 0.  0.
         25    2    3    3    0    0 -0.38031464865E+02  0.35854248430E+02 -0.14450474543E+03  0.19794509330E+03  0.12477467315E+03 0.  0.
          5    1    4    4  502    0  0.68738857993E+02 -0.60122864031E+02 -0.16029636989E+03  0.18454486061E+03  0.47000000000E+01 0. -1.
         -5    1    4    4    0  502 -0.30707393128E+02  0.24268615601E+02 -0.32177617474E+02  0.50886135265E+02  0.47000000000E+01 0. -1.
          5    1    5    5  503    0 -0.17363149731E+01  0.68845643358E+02 -0.33987723113E+02  0.76941488947E+02  0.47000000000E+01 0. -1.
         -5    1    5    5    0  503 -0.36295149892E+02 -0.32991394928E+02 -0.11051702231E+03  0.12100360435E+03  0.47000000000E+01 0. -1.
<mgrwt>
<rscale>  0 0.27250719E+03</rscale>
<asrwt>0</asrwt>
<pdfrwt beam="1">  1        3 0.59258059E-01 0.27250719E+03</pdfrwt>
<pdfrwt beam="2">  1       -3 0.74151817E-02 0.27250719E+03</pdfrwt>
<totfact> 0.86686095E+02</totfact>
</mgrwt>
</event>
<event>
 9    1  0.7997082E-001  0.2640507E+03  0.7818608E-02  0.1104734E+00
          1   -1    0    0  501    0  0.00000000000E+00  0.00000000000E+00  0.79279510615E+03  0.79279510615E+03  0.00000000000E+00 0.  1.
         -1   -1    0    0    0  501 -0.00000000000E+00 -0.00000000000E+00 -0.21986380046E+02  0.21986380046E+02  0.00000000000E+00 0.  1.
         35    2    1    2    0    0  0.14210854715E-13  0.35527136788E-14  0.77080872611E+03  0.81478148620E+03  0.26405071106E+03 0.  0.
         25    2    3    3    0    0 -0.38869668878E+02 -0.21913179804E+02  0.36018900660E+03  0.38362246711E+03  0.12425392627E+03 0.  0.
         25    2    3    3    0    0  0.38869668878E+02  0.21913179804E+02  0.41061971951E+03  0.43115901909E+03  0.12368713386E+03 0.  0.
          5    1    4    4  502    0 -0.68914416108E+02  0.19410760949E+00  0.32454745849E+03  0.33181678263E+03  0.47000000000E+01 0. -1.
         -5    1    4    4    0  502  0.30044747230E+02 -0.22107287413E+02  0.35641548108E+02  0.51805684480E+02  0.47000000000E+01 0. -1.
          5    1    5    5  503    0 -0.21902974003E+02  0.21980074708E+02  0.32243339399E+03  0.32395716926E+03  0.47000000000E+01 0.  1.
         -5    1    5    5    0  503  0.60772642881E+02 -0.66894903799E-01  0.88186325518E+02  0.10720184983E+03  0.47000000000E+01 0.  1.
<mgrwt>
<rscale>  0 0.26405071E+03</rscale>
<asrwt>0</asrwt>
<pdfrwt beam="1">  1        1 0.12196846E+00 0.26405071E+03</pdfrwt>
<pdfrwt beam="2">  1       -1 0.33825206E-02 0.26405071E+03</pdfrwt>
<totfact> 0.73503459E+03</totfact>
</mgrwt>
</event>
<event>
 9    1  0.7997082E-001  0.2759572E+03  0.7818608E-02  0.1097918E+00
         -1   -1    0    0    0  501 -0.00000000000E+00  0.00000000000E+00  0.31216567530E+02  0.31216567530E+02  0.00000000000E+00 0. -1.
          1   -1    0    0  501    0  0.00000000000E+00 -0.00000000000E+00 -0.60987131243E+03  0.60987131243E+03  0.00000000000E+00 0. -1.
         35    2    1    2    0    0 -0.35527136788E-14  0.00000000000E+00 -0.57865474490E+03  0.64108787996E+03  0.27595716341E+03 0.  0.
         25    2    3    3    0    0  0.45558089180E+01  0.53893835447E+01 -0.41494420002E+03  0.43348309154E+03  0.12521621571E+03 0.  0.
         25    2    3    3    0    0 -0.45558089180E+01 -0.53893835447E+01 -0.16371054489E+03  0.20760478842E+03  0.12747079986E+03 0.  0.
          5    1    4    4  502    0 -0.28009849967E+02 -0.14516789698E+01 -0.39144218005E+03  0.39247385822E+03  0.47000000000E+01 0. -1.
         -5    1    4    4    0  502  0.32565658885E+02  0.68410625145E+01 -0.23502019970E+02  0.41009233322E+02  0.47000000000E+01 0. -1.
          5    1    5    5  503    0  0.13937690356E+02 -0.18904562101E+02 -0.17839334038E+03  0.17999420983E+03  0.47000000000E+01 0.  1.
         -5    1    5    5    0  503 -0.18493499274E+02  0.13515178557E+02  0.14682795490E+02  0.27610578593E+02  0.47000000000E+01 0.  1.
<mgrwt>
<rscale>  0 0.27595716E+03</rscale>
<asrwt>0</asrwt>
<pdfrwt beam="1">  1        1 0.93826346E-01 0.27595716E+03</pdfrwt>
<pdfrwt beam="2">  1       -1 0.48025493E-02 0.27595716E+03</pdfrwt>
<totfact> 0.64056368E+03</totfact>
</mgrwt>
</event>
<event>
 9    1  0.7997082E-001  0.2758142E+03  0.7818608E-02  0.1097997E+00
         -1   -1    0    0    0  501 -0.00000000000E+00  0.00000000000E+00  0.17257332075E+04  0.17257332075E+04  0.00000000000E+00 0. -1.
          1   -1    0    0  501    0  0.00000000000E+00 -0.00000000000E+00 -0.11020455620E+02  0.11020455620E+02  0.00000000000E+00 0. -1.
         35    2    1    2    0    0  0.71054273576E-14  0.35527136788E-14  0.17147127519E+04  0.17367536631E+04  0.27581418546E+03 0.  0.
         25    2    3    3    0    0  0.17469450770E+02 -0.28644379129E+02  0.62177687799E+03  0.63529309860E+03  0.12595694883E+03 0.  0.
         25    2    3    3    0    0 -0.17469450770E+02  0.28644379129E+02  0.10929358739E+04  0.11014605645E+04  0.13259286780E+03 0.  0.
          5    1    4    4  502    0 -0.13687694441E+02  0.25500086052E+02  0.47243656937E+03  0.47334554972E+03  0.47000000000E+01 0.  1.
         -5    1    4    4    0  502  0.31157145211E+02 -0.54144465181E+02  0.14934030863E+03  0.16194754888E+03  0.47000000000E+01 0.  1.
          5    1    5    5  503    0 -0.60497433805E+02  0.53504422710E+02  0.50828782196E+03  0.51468559598E+03  0.47000000000E+01 0.  1.
         -5    1    5    5    0  503  0.43027983035E+02 -0.24860043581E+02  0.58464805193E+03  0.58677496855E+03  0.47000000000E+01 0.  1.
<mgrwt>
<rscale>  0 0.27581419E+03</rscale>
<asrwt>0</asrwt>
<pdfrwt beam="1">  1        1 0.16954561E-02 0.27581419E+03</pdfrwt>
<pdfrwt beam="2">  1       -1 0.26549720E+00 0.27581419E+03</pdfrwt>
<totfact> 0.48496710E+02</totfact>
</mgrwt>
</event>
<event>
 9    1  0.7997082E-001  0.2716126E+03  0.7818608E-02  0.1100360E+00
          2   -1    0    0  501    0  0.00000000000E+00  0.00000000000E+00  0.27231322050E+03  0.27231322050E+03  0.00000000000E+00 0. -1.
         -2   -1    0    0    0  501 -0.00000000000E+00 -0.00000000000E+00 -0.67728462071E+02  0.67728462071E+02  0.00000000000E+00 0. -1.
         35    2    1    2    0    0  0.00000000000E+00  0.00000000000E+00  0.20458475843E+03  0.34004168257E+03  0.27161263318E+03 0.  0.
         25    2    3    3    0    0 -0.58439160010E+01  0.49627974262E+02  0.12628819659E+03  0.18476378321E+03  0.12526715372E+03 0.  0.
         25    2    3    3    0    0  0.58439160010E+01 -0.49627974262E+02  0.78296561834E+02  0.15527789936E+03  0.12443386698E+03 0.  0.
          5    1    4    4  502    0  0.44035220005E+02  0.20272213811E+02  0.11597644469E+03  0.12578827043E+03  0.47000000000E+01 0. -1.
         -5    1    4    4    0  502 -0.49879136006E+02  0.29355760451E+02  0.10311751903E+02  0.58975512780E+02  0.47000000000E+01 0. -1.
          5    1    5    5  503    0 -0.18620260934E+01 -0.90300442968E+02  0.40768510266E+02  0.99205839398E+02  0.47000000000E+01 0. -1.
         -5    1    5    5    0  503  0.77059420944E+01  0.40672468706E+02  0.37528051568E+02  0.56072059964E+02  0.47000000000E+01 0. -1.
<mgrwt>
<rscale>  0 0.27161263E+03</rscale>
<asrwt>0</asrwt>
<pdfrwt beam="1">  1        2 0.41894341E-01 0.27161263E+03</pdfrwt>
<pdfrwt beam="2">  1       -2 0.10419764E-01 0.27161263E+03</pdfrwt>
<totfact> 0.74842912E+03</totfact>
</mgrwt>
</event>
<event>
 9    1  0.7997082E-001  0.2732849E+03  0.7818608E-02  0.1099414E+00
          2   -1    0    0  501    0  0.00000000000E+00  0.00000000000E+00  0.52015546949E+03  0.52015546949E+03  0.00000000000E+00 0. -1.
         -2   -1    0    0    0  501 -0.00000000000E+00 -0.00000000000E+00 -0.35895351387E+02  0.35895351387E+02  0.00000000000E+00 0. -1.
         35    2    1    2    0    0  0.00000000000E+00  0.35527136788E-14  0.48426011810E+03  0.55605082088E+03  0.27328493082E+03 0.  0.
         25    2    3    3    0    0 -0.20761405995E+02  0.63552738260E+01  0.33929632452E+03  0.36307533210E+03  0.12739809835E+03 0.  0.
         25    2    3    3    0    0  0.20761405995E+02 -0.63552738260E+01  0.14496379358E+03  0.19297548878E+03  0.12551339504E+03 0.  0.
          5    1    4    4  502    0 -0.20940538378E+02 -0.54645063747E+02  0.23440242482E+03  0.24164266159E+03  0.47000000000E+01 0. -1.
         -5    1    4    4    0  502  0.17913238306E+00  0.61000337573E+02  0.10489389970E+03  0.12143267051E+03  0.47000000000E+01 0. -1.
          5    1    5    5  503    0  0.32715915798E+02 -0.18821702593E+02  0.16311021727E+03  0.16748618036E+03  0.47000000000E+01 0.  1.
         -5    1    5    5    0  503 -0.11954509804E+02  0.12466428767E+02 -0.18146423686E+02  0.25489308415E+02  0.47000000000E+01 0.  1.
<mgrwt>
<rscale>  0 0.27328493E+03</rscale>
<asrwt>0</asrwt>
<pdfrwt beam="1">  1        2 0.80023913E-01 0.27328493E+03</pdfrwt>
<pdfrwt beam="2">  1       -2 0.55223621E-02 0.27328493E+03</pdfrwt>
<totfact> 0.99496558E+03</totfact>
</mgrwt>
</event>
<event>
 9    1  0.7997082E-001  0.2818824E+03  0.7818608E-02  0.1094665E+00
          1   -1    0    0  501    0  0.00000000000E+00  0.00000000000E+00  0.47117044095E+03  0.47117044095E+03  0.00000000000E+00 0.  1.
         -1   -1    0    0    0  501 -0.00000000000E+00 -0.00000000000E+00 -0.42159726857E+02  0.42159726857E+02  0.00000000000E+00 0.  1.
         35    2    1    2    0    0  0.00000000000E+00  0.00000000000E+00  0.42901071409E+03  0.51333016780E+03  0.28188236620E+03 0.  0.
         25    2    3    3    0    0  0.61669400097E+02  0.98299388156E+01  0.18318342972E+03  0.23072810060E+03  0.12561665845E+03 0.  0.
         25    2    3    3    0    0 -0.61669400097E+02 -0.98299388156E+01  0.24582728437E+03  0.28260206720E+03  0.12463198642E+03 0.  0.
          5    1    4    4  502    0  0.78938572531E+02  0.50115046422E+02  0.14394605294E+03  0.17171305212E+03  0.47000000000E+01 0. -1.
         -5    1    4    4    0  502 -0.17269172434E+02 -0.40285107606E+02  0.39237376782E+02  0.59015048489E+02  0.47000000000E+01 0. -1.
          5    1    5    5  503    0 -0.16225673610E+02 -0.32514427235E+02  0.22424055665E+03  0.22721438711E+03  0.47000000000E+01 0. -1.
         -5    1    5    5    0  503 -0.45443726487E+02  0.22684488419E+02  0.21586727719E+02  0.55387680087E+02  0.47000000000E+01 0. -1.
<mgrwt>
<rscale>  0 0.28188237E+03</rscale>
<asrwt>0</asrwt>
<pdfrwt beam="1">  1        1 0.72487756E-01 0.28188237E+03</pdfrwt>
<pdfrwt beam="2">  1       -1 0.64861122E-02 0.28188237E+03</pdfrwt>
<totfact> 0.57793709E+03</totfact>
</mgrwt>
</event>
<event>
 9    1  0.7997082E-001  0.2730264E+03  0.7818608E-02  0.1099560E+00
          2   -1    0    0  501    0  0.00000000000E+00  0.00000000000E+00  0.41531695879E+03  0.41531695879E+03  0.00000000000E+00 0.  1.
         -2   -1    0    0    0  501 -0.00000000000E+00 -0.00000000000E+00 -0.44871401573E+02  0.44871401573E+02  0.00000000000E+00 0.  1.
         35    2    1    2    0    0  0.71054273576E-14  0.71054273576E-14  0.37044555722E+03  0.46018836036E+03  0.27302640193E+03 0.  0.
         25    2    3    3    0    0 -0.46190875539E+02  0.85019382462E+01  0.22607698542E+03  0.26272958586E+03  0.12534014525E+03 0.  0.
         25    2    3    3    0    0  0.46190875539E+02 -0.85019382462E+01  0.14436857180E+03  0.19745877450E+03  0.12626085367E+03 0.  0.
          5    1    4    4  502    0 -0.58192141706E+02  0.56744704827E+02  0.11455967154E+03  0.14054285903E+03  0.47000000000E+01 0. -1.
         -5    1    4    4    0  502  0.12001266167E+02 -0.48242766581E+02  0.11151731388E+03  0.12218672682E+03  0.47000000000E+01 0. -1.
          5    1    5    5  503    0 -0.43707308892E+01 -0.58748257808E+02  0.41481282329E+02  0.72202824513E+02  0.47000000000E+01 0. -1.
         -5    1    5    5    0  503  0.50561606428E+02  0.50246319562E+02  0.10288728947E+03  0.12525594999E+03  0.47000000000E+01 0. -1.
<mgrwt>
<rscale>  0 0.27302640E+03</rscale>
<asrwt>0</asrwt>
<pdfrwt beam="1">  1        2 0.63894914E-01 0.27302640E+03</pdfrwt>
<pdfrwt beam="2">  1       -2 0.69032928E-02 0.27302640E+03</pdfrwt>
<totfact> 0.90577523E+03</totfact>
</mgrwt>
</event>
<event>
 9    1  0.7997082E-001  0.2734441E+03  0.7818608E-02  0.1099324E+00
         -2   -1    0    0    0  501 -0.00000000000E+00  0.00000000000E+00  0.38350543766E+02  0.38350543766E+02  0.00000000000E+00 0.  1.
          2   -1    0    0  501    0  0.00000000000E+00 -0.00000000000E+00 -0.48742249008E+03  0.48742249008E+03  0.00000000000E+00 0.  1.
         35    2    1    2    0    0 -0.35527136788E-14  0.35527136788E-14 -0.44907194631E+03  0.52577303384E+03  0.27344408963E+03 0.  0.
         25    2    3    3    0    0  0.29313440560E+02  0.31436477927E+02 -0.15571235802E+03  0.20378795751E+03  0.12424034467E+03 0.  0.
         25    2    3    3    0    0 -0.29313440560E+02 -0.31436477927E+02 -0.29335958829E+03  0.32198507633E+03  0.12556676073E+03 0.  0.
          5    1    4    4  502    0  0.47985660829E+02  0.38475465661E+02 -0.16862896092E+03  0.17955723757E+03  0.47000000000E+01 0. -1.
         -5    1    4    4    0  502 -0.18672220269E+02 -0.70389877342E+01  0.12916602901E+02  0.24230719936E+02  0.47000000000E+01 0. -1.
          5    1    5    5  503    0 -0.33711758077E+02 -0.76638486005E+02 -0.22155361130E+03  0.23689244997E+03  0.47000000000E+01 0. -1.
         -5    1    5    5    0  503  0.43983175176E+01  0.45202008078E+02 -0.71805976983E+02  0.85092626365E+02  0.47000000000E+01 0. -1.
<mgrwt>
<rscale>  0 0.27344409E+03</rscale>
<asrwt>0</asrwt>
<pdfrwt beam="1">  1        2 0.74988076E-01 0.27344409E+03</pdfrwt>
<pdfrwt beam="2">  1       -2 0.59000836E-02 0.27344409E+03</pdfrwt>
<totfact> 0.96711670E+03</totfact>
</mgrwt>
</event>
<event>
 9    1  0.7997082E-001  0.2788750E+03  0.7818608E-02  0.1096305E+00
          1   -1    0    0  501    0  0.00000000000E+00  0.00000000000E+00  0.12915767478E+04  0.12915767478E+04  0.00000000000E+00 0. -1.
         -1   -1    0    0    0  501 -0.00000000000E+00 -0.00000000000E+00 -0.15053547681E+02  0.15053547681E+02  0.00000000000E+00 0. -1.
         35    2    1    2    0    0  0.00000000000E+00 -0.35527136788E-14  0.12765232001E+04  0.13066302955E+04  0.27887496952E+03 0.  0.
         25    2    3    3    0    0  0.17942452968E+02  0.24273329095E+01  0.91085573391E+03  0.91967547608E+03  0.12576561431E+03 0.  0.
         25    2    3    3    0    0 -0.17942452968E+02 -0.24273329095E+01  0.36566746624E+03  0.38695481943E+03  0.12527375164E+03 0.  0.
          5    1    4    4  502    0  0.68181694793E+02  0.20172078146E+02  0.43142208597E+03  0.43726738102E+03  0.47000000000E+01 0.  1.
         -5    1    4    4    0  502 -0.50239241824E+02 -0.17744745236E+02  0.47943364794E+03  0.48240809506E+03  0.47000000000E+01 0.  1.
          5    1    5    5  503    0 -0.59573979590E+02  0.27206390289E+02  0.27540853223E+03  0.28312752664E+03  0.47000000000E+01 0. -1.
         -5    1    5    5    0  503  0.41631526622E+02 -0.29633723199E+02  0.90258934012E+02  0.10382729279E+03  0.47000000000E+01 0. -1.
<mgrwt>
<rscale>  0 0.27887497E+03</rscale>
<asrwt>0</asrwt>
<pdfrwt beam="1">  1        1 0.19870403E+00 0.27887497E+03</pdfrwt>
<pdfrwt beam="2">  1       -1 0.23159314E-02 0.27887497E+03</pdfrwt>
<totfact> 0.54685001E+03</totfact>
</mgrwt>
</event>
<event>
 9    1  0.7997082E-001  0.2772621E+03  0.7818608E-02  0.1097194E+00
          3   -1    0    0  501    0  0.00000000000E+00  0.00000000000E+00  0.46785327204E+03  0.46785327204E+03  0.00000000000E+00 0.  1.
         -3   -1    0    0    0  501 -0.00000000000E+00 -0.00000000000E+00 -0.41078180674E+02  0.41078180674E+02  0.00000000000E+00 0.  1.
         35    2    1    2    0    0  0.71054273576E-14 -0.26645352591E-14  0.42677509137E+03  0.50893145272E+03  0.27726205105E+03 0.  0.
         25    2    3    3    0    0 -0.39397803330E+02  0.25726034623E+01  0.20984123924E+03  0.25263370430E+03  0.13502458171E+03 0.  0.
         25    2    3    3    0    0  0.39397803330E+02 -0.25726034623E+01  0.21693385213E+03  0.25629774842E+03  0.13065004573E+03 0.  0.
          5    1    4    4  502    0  0.39695100379E+02  0.26377268744E+02  0.12623332606E+03  0.13501260648E+03  0.47000000000E+01 0. -1.
         -5    1    4    4    0  502 -0.79092903708E+02 -0.23804665281E+02  0.83607913180E+02  0.11762109782E+03  0.47000000000E+01 0. -1.
          5    1    5    5  503    0 -0.39421222479E+02  0.51428527125E+01  0.14065482379E+03  0.14624073020E+03  0.47000000000E+01 0.  1.
         -5    1    5    5    0  503  0.78819025809E+02 -0.77154561749E+01  0.76279028346E+02  0.11005701822E+03  0.47000000000E+01 0.  1.
<mgrwt>
<rscale>  0 0.27726205E+03</rscale>
<asrwt>0</asrwt>
<pdfrwt beam="1">  1        3 0.71977423E-01 0.27726205E+03</pdfrwt>
<pdfrwt beam="2">  1       -3 0.63197204E-02 0.27726205E+03</pdfrwt>
<totfact> 0.74700631E+02</totfact>
</mgrwt>
</event>
<event>
 9    1  0.7997082E-001  0.2756038E+03  0.7818608E-02  0.1098115E+00
         -2   -1    0    0    0  501 -0.00000000000E+00  0.00000000000E+00  0.32080731463E+02  0.32080731463E+02  0.00000000000E+00 0. -1.
          2   -1    0    0  501    0  0.00000000000E+00 -0.00000000000E+00 -0.59192433774E+03  0.59192433774E+03  0.00000000000E+00 0. -1.
         35    2    1    2    0    0 -0.14210854715E-13 -0.71054273576E-14 -0.55984360628E+03  0.62400506921E+03  0.27560381511E+03 0.  0.
         25    2    3    3    0    0 -0.44872720861E+02 -0.20271328755E+02 -0.34699618423E+03  0.37220008186E+03  0.12530786575E+03 0.  0.
         25    2    3    3    0    0  0.44872720861E+02  0.20271328755E+02 -0.21284742205E+03  0.25180498735E+03  0.12520878057E+03 0.  0.
          5    1    4    4  502    0  0.40240172740E+01 -0.65717676215E+02 -0.20186950559E+03  0.21238736537E+03  0.47000000000E+01 0.  1.
         -5    1    4    4    0  502 -0.48896738135E+02  0.45446347460E+02 -0.14512667864E+03  0.15981271648E+03  0.47000000000E+01 0.  1.
          5    1    5    5  503    0  0.81775107059E+02  0.39537874989E+02 -0.16329528255E+03  0.18691669534E+03  0.47000000000E+01 0. -1.
         -5    1    5    5    0  503 -0.36902386198E+02 -0.19266546233E+02 -0.49552139501E+02  0.64888292010E+02  0.47000000000E+01 0. -1.
<mgrwt>
<rscale>  0 0.27560382E+03</rscale>
<asrwt>0</asrwt>
<pdfrwt beam="1">  1        2 0.91065276E-01 0.27560382E+03</pdfrwt>
<pdfrwt beam="2">  1       -2 0.49354975E-02 0.27560382E+03</pdfrwt>
<totfact> 0.10190517E+04</totfact>
</mgrwt>
</event>
<event>
 9    1  0.7997082E-001  0.3004482E+03  0.7818608E-02  0.1085017E+00
          2   -1    0    0  501    0  0.00000000000E+00  0.00000000000E+00  0.38745896562E+03  0.38745896562E+03  0.00000000000E+00 0. -1.
         -2   -1    0    0    0  501 -0.00000000000E+00 -0.00000000000E+00 -0.58244317143E+02  0.58244317143E+02  0.00000000000E+00 0. -1.
         35    2    1    2    0    0  0.35527136788E-14  0.00000000000E+00  0.32921464848E+03  0.44570328277E+03  0.30044821766E+03 0.  0.
         25    2    3    3    0    0 -0.12536706310E+02 -0.23620191214E+02  0.44471716644E+02  0.13386470946E+03  0.12339750573E+03 0.  0.
         25    2    3    3    0    0  0.12536706310E+02  0.23620191214E+02  0.28474293184E+03  0.31183857331E+03  0.12429672616E+03 0.  0.
          5    1    4    4  502    0 -0.33903048333E+02  0.32985477700E+02 -0.14040244931E+02  0.49564875699E+02  0.47000000000E+01 0. -1.
         -5    1    4    4    0  502  0.21366342023E+02 -0.56605668914E+02  0.58511961574E+02  0.84299833760E+02  0.47000000000E+01 0. -1.
          5    1    5    5  503    0  0.20094087351E+02  0.36576292721E+02  0.29165827346E+03  0.29466631300E+03  0.47000000000E+01 0. -1.
         -5    1    5    5    0  503 -0.75573810410E+01 -0.12956101506E+02 -0.69153416252E+01  0.17172260312E+02  0.47000000000E+01 0. -1.
<mgrwt>
<rscale>  0 0.30044822E+03</rscale>
<asrwt>0</asrwt>
<pdfrwt beam="1">  1        2 0.59609070E-01 0.30044822E+03</pdfrwt>
<pdfrwt beam="2">  1       -2 0.89606644E-02 0.30044822E+03</pdfrwt>
<totfact> 0.65207333E+03</totfact>
</mgrwt>
</event>
<event>
 9    1  0.7997082E-001  0.2699010E+03  0.7818608E-02  0.1101336E+00
          2   -1    0    0  501    0  0.00000000000E+00  0.00000000000E+00  0.14127062246E+03  0.14127062246E+03  0.00000000000E+00 0. -1.
         -2   -1    0    0    0  501 -0.00000000000E+00 -0.00000000000E+00 -0.12891309246E+03  0.12891309246E+03  0.00000000000E+00 0. -1.
         35    2    1    2    0    0 -0.71054273576E-14 -0.71054273576E-14  0.12357530000E+02  0.27018371492E+03  0.26990096565E+03 0.  0.
         25    2    3    3    0    0 -0.33754334856E+02 -0.29510911270E+02 -0.16721662510E+02  0.13378054491E+03  0.12492946488E+03 0.  0.
         25    2    3    3    0    0  0.33754334856E+02  0.29510911270E+02  0.29079192510E+02  0.13640317001E+03  0.12549890974E+03 0.  0.
          5    1    4    4  502    0 -0.12495017495E+02  0.49241344376E+02 -0.70426802325E+01  0.51502667921E+02  0.47000000000E+01 0.  1.
         -5    1    4    4    0  502 -0.21259317361E+02 -0.78752255646E+02 -0.96789822773E+01  0.82277876989E+02  0.47000000000E+01 0.  1.
          5    1    5    5  503    0 -0.39246182922E+02 -0.20583587858E+02  0.11352873677E+02  0.45988310512E+02  0.47000000000E+01 0.  1.
         -5    1    5    5    0  503  0.73000517778E+02  0.50094499127E+02  0.17726318833E+02  0.90414859498E+02  0.47000000000E+01 0.  1.
<mgrwt>
<rscale>  0 0.26990097E+03</rscale>
<asrwt>0</asrwt>
<pdfrwt beam="1">  1        2 0.21733942E-01 0.26990097E+03</pdfrwt>
<pdfrwt beam="2">  1       -2 0.19832783E-01 0.26990097E+03</pdfrwt>
<totfact> 0.53371867E+03</totfact>
</mgrwt>
</event>
<event>
 9    1  0.7997082E-001  0.2778963E+03  0.7818608E-02  0.1096843E+00
         -1   -1    0    0    0  501 -0.00000000000E+00  0.00000000000E+00  0.91194432489E+02  0.91194432489E+02  0.00000000000E+00 0. -1.
          1   -1    0    0  501    0  0.00000000000E+00 -0.00000000000E+00 -0.21170803187E+03  0.21170803187E+03  0.00000000000E+00 0. -1.
         35    2    1    2    0    0 -0.35527136788E-14  0.14210854715E-13 -0.12051359938E+03  0.30290246436E+03  0.27789633909E+03 0.  0.
         25    2    3    3    0    0  0.28330233674E+02  0.54429889781E+02 -0.67993473606E+02  0.15347464023E+03  0.12315087372E+03 0.  0.
         25    2    3    3    0    0 -0.28330233674E+02 -0.54429889781E+02 -0.52520125778E+02  0.14942782413E+03  0.12571831995E+03 0.  0.
          5    1    4    4  502    0  0.70695311066E+02  0.62055739474E+02 -0.43782970230E+02  0.10386423971E+03  0.47000000000E+01 0.  1.
         -5    1    4    4    0  502 -0.42365077392E+02 -0.76258496933E+01 -0.24210503376E+02  0.49610400520E+02  0.47000000000E+01 0.  1.
          5    1    5    5  503    0  0.22474769408E+02 -0.74136846667E+02 -0.54271688107E+02  0.94704241846E+02  0.47000000000E+01 0.  1.
         -5    1    5    5    0  503 -0.50805003081E+02  0.19706956886E+02  0.17515623291E+01  0.54723582287E+02  0.47000000000E+01 0.  1.
<mgrwt>
<rscale>  0 0.27789634E+03</rscale>
<asrwt>0</asrwt>
<pdfrwt beam="1">  1        1 0.32570466E-01 0.27789634E+03</pdfrwt>
<pdfrwt beam="2">  1       -1 0.14029913E-01 0.27789634E+03</pdfrwt>
<totfact> 0.48480439E+03</totfact>
</mgrwt>
</event>
<event>
 9    1  0.7997082E-001  0.2799127E+03  0.7818608E-02  0.1095737E+00
         -4   -1    0    0    0  501 -0.00000000000E+00  0.00000000000E+00  0.86615830640E+02  0.86615830640E+02  0.00000000000E+00 0. -1.
          4   -1    0    0  501    0  0.00000000000E+00 -0.00000000000E+00 -0.22614542404E+03  0.22614542404E+03  0.00000000000E+00 0. -1.
         35    2    1    2    0    0  0.00000000000E+00  0.00000000000E+00 -0.13952959340E+03  0.31276125468E+03  0.27991265601E+03 0.  0.
         25    2    3    3    0    0  0.27138058523E+02  0.41500008240E+02 -0.28478143447E+02  0.13806937420E+03  0.12567188442E+03 0.  0.
         25    2    3    3    0    0 -0.27138058523E+02 -0.41500008240E+02 -0.11105144996E+03  0.17469188048E+03  0.12540376256E+03 0.  0.
          5    1    4    4  502    0  0.22448591118E+02  0.39989869806E+02 -0.76635653078E+02  0.89432892456E+02  0.47000000000E+01 0. -1.
         -5    1    4    4    0  502  0.46894674057E+01  0.15101384342E+01  0.48157509632E+02  0.48636481745E+02  0.47000000000E+01 0. -1.
          5    1    5    5  503    0 -0.56721970074E+02 -0.56272099968E+02 -0.27364472266E+02  0.84586260505E+02  0.47000000000E+01 0. -1.
         -5    1    5    5    0  503  0.29583911550E+02  0.14772091728E+02 -0.83686977692E+02  0.90105619979E+02  0.47000000000E+01 0. -1.
<mgrwt>
<rscale>  0 0.27991266E+03</rscale>
<asrwt>0</asrwt>
<pdfrwt beam="1">  1        4 0.34791603E-01 0.27991266E+03</pdfrwt>
<pdfrwt beam="2">  1       -4 0.13325512E-01 0.27991266E+03</pdfrwt>
<totfact> 0.69675942E+02</totfact>
</mgrwt>
</event>
<event>
 9    1  0.7997082E-001  0.2773344E+03  0.7818608E-02  0.1097154E+00
          3   -1    0    0  501    0  0.00000000000E+00  0.00000000000E+00  0.34310945578E+02  0.34310945578E+02  0.00000000000E+00 0.  1.
         -3   -1    0    0    0  501 -0.00000000000E+00 -0.00000000000E+00 -0.56042152385E+03  0.56042152385E+03  0.00000000000E+00 0.  1.
         35    2    1    2    0    0 -0.71054273576E-14  0.00000000000E+00 -0.52611057827E+03  0.59473246943E+03  0.27733440036E+03 0.  0.
         25    2    3    3    0    0 -0.40415386410E+02  0.27967902366E+02 -0.28867709069E+03  0.32193611907E+03  0.13376395274E+03 0.  0.
         25    2    3    3    0    0  0.40415386410E+02 -0.27967902366E+02 -0.23743348758E+03  0.27279635036E+03  0.12501032246E+03 0.  0.
          5    1    4    4  502    0 -0.26759987762E+02 -0.15244835382E+02 -0.15247507786E+01  0.31191614511E+02  0.47000000000E+01 0. -1.
         -5    1    4    4    0  502 -0.13655398648E+02  0.43212737747E+02 -0.28715233991E+03  0.29074450456E+03  0.47000000000E+01 0. -1.
          5    1    5    5  503    0 -0.33820678533E+02 -0.45098654284E+02 -0.81826294137E+02  0.99475420717E+02  0.47000000000E+01 0.  1.
         -5    1    5    5    0  503  0.74236064943E+02  0.17130751918E+02 -0.15560719345E+03  0.17332092964E+03  0.47000000000E+01 0.  1.
<mgrwt>
<rscale>  0 0.27733440E+03</rscale>
<asrwt>0</asrwt>
<pdfrwt beam="1">  1        3 0.52786070E-02 0.27733440E+03</pdfrwt>
<pdfrwt beam="2">  1       -3 0.86218697E-01 0.27733440E+03</pdfrwt>
<totfact> 0.67155658E+02</totfact>
</mgrwt>
</event>
<event>
 9    1  0.7997082E-001  0.2756443E+03  0.7818608E-02  0.1098092E+00
          2   -1    0    0  501    0  0.00000000000E+00  0.00000000000E+00  0.17889997654E+04  0.17889997654E+04  0.00000000000E+00 0. -1.
         -2   -1    0    0    0  501 -0.00000000000E+00 -0.00000000000E+00 -0.10617634754E+02  0.10617634754E+02  0.00000000000E+00 0. -1.
         35    2    1    2    0    0  0.14210854715E-13  0.00000000000E+00  0.17783821307E+04  0.17996174002E+04  0.27564430765E+03 0.  0.
         25    2    3    3    0    0  0.59085238942E+02 -0.11643343481E+02  0.82410518780E+03  0.83548284581E+03  0.12351353030E+03 0.  0.
         25    2    3    3    0    0 -0.59085238942E+02  0.11643343481E+02  0.95427694286E+03  0.96413455436E+03  0.12362977933E+03 0.  0.
          5    1    4    4  502    0  0.77684437980E+02  0.21140732785E+02  0.72289460755E+03  0.72737920379E+03  0.47000000000E+01 0. -1.
         -5    1    4    4    0  502 -0.18599199038E+02 -0.32784076265E+02  0.10121058026E+03  0.10810364202E+03  0.47000000000E+01 0. -1.
          5    1    5    5  503    0 -0.65100888177E+02 -0.20867200416E+02  0.25457897643E+03  0.26364011632E+03  0.47000000000E+01 0. -1.
         -5    1    5    5    0  503  0.60156492348E+01  0.32510543897E+02  0.69969796643E+03  0.70049443804E+03  0.47000000000E+01 0. -1.
<mgrwt>
<rscale>  0 0.27564431E+03</rscale>
<asrwt>0</asrwt>
<pdfrwt beam="1">  1        2 0.27523049E+00 0.27564431E+03</pdfrwt>
<pdfrwt beam="2">  1       -2 0.16334837E-02 0.27564431E+03</pdfrwt>
<totfact> 0.99863801E+03</totfact>
</mgrwt>
</event>
<event>
 9    1  0.7997082E-001  0.2747343E+03  0.7818608E-02  0.1098600E+00
          2   -1    0    0  501    0  0.00000000000E+00  0.00000000000E+00  0.12624034471E+04  0.12624034471E+04  0.00000000000E+00 0.  1.
         -2   -1    0    0    0  501 -0.00000000000E+00 -0.00000000000E+00 -0.14947469902E+02  0.14947469902E+02  0.00000000000E+00 0.  1.
         35    2    1    2    0    0  0.71054273576E-14  0.00000000000E+00  0.12474559772E+04  0.12773509170E+04  0.27473432643E+03 0.  0.
         25    2    3    3    0    0 -0.45727082345E+02  0.20821686723E+02  0.51805921680E+03  0.53567964701E+03  0.12666026766E+03 0.  0.
         25    2    3    3    0    0  0.45727082345E+02 -0.20821686723E+02  0.72939676041E+03  0.74167127001E+03  0.12462796623E+03 0.  0.
          5    1    4    4  502    0 -0.69929673395E+02  0.31006078630E+02  0.16857322792E+03  0.18517710254E+03  0.47000000000E+01 0. -1.
         -5    1    4    4    0  502  0.24202591050E+02 -0.10184391908E+02  0.34948598888E+03  0.35050254447E+03  0.47000000000E+01 0. -1.
          5    1    5    5  503    0  0.24732362283E+02  0.41719721673E+02  0.51512191870E+03  0.51742140084E+03  0.47000000000E+01 0. -1.
         -5    1    5    5    0  503  0.20994720062E+02 -0.62541408396E+02  0.21427484171E+03  0.22424986918E+03  0.47000000000E+01 0. -1.
<mgrwt>
<rscale>  0 0.27473433E+03</rscale>
<asrwt>0</asrwt>
<pdfrwt beam="1">  1        2 0.19421583E+00 0.27473433E+03</pdfrwt>
<pdfrwt beam="2">  1       -2 0.22996117E-02 0.27473433E+03</pdfrwt>
<totfact> 0.11572975E+04</totfact>
</mgrwt>
</event>
<event>
 9    1  0.7997082E-001  0.2763469E+03  0.7818608E-02  0.1097701E+00
         -2   -1    0    0    0  501 -0.00000000000E+00  0.00000000000E+00  0.26953662728E+02  0.26953662728E+02  0.00000000000E+00 0. -1.
          2   -1    0    0  501    0  0.00000000000E+00 -0.00000000000E+00 -0.70832307608E+03  0.70832307608E+03  0.00000000000E+00 0. -1.
         35    2    1    2    0    0  0.00000000000E+00 -0.71054273576E-14 -0.68136941335E+03  0.73527673881E+03  0.27634689284E+03 0.  0.
         25    2    3    3    0    0 -0.11158102393E+02  0.56939041994E+02 -0.36321618627E+03  0.38847667052E+03  0.12498627053E+03 0.  0.
         25    2    3    3    0    0  0.11158102393E+02 -0.56939041994E+02 -0.31815322709E+03  0.34680006829E+03  0.12522880542E+03 0.  0.
          5    1    4    4  502    0  0.32225215665E+02  0.66236256490E+02 -0.31172768196E+03  0.32034659963E+03  0.47000000000E+01 0.  1.
         -5    1    4    4    0  502 -0.43383318058E+02 -0.92972144960E+01 -0.51488504310E+02  0.68130070888E+02  0.47000000000E+01 0.  1.
          5    1    5    5  503    0  0.39131617279E+02  0.97547921360E+01 -0.22571288413E+03  0.22933563941E+03  0.47000000000E+01 0. -1.
         -5    1    5    5    0  503 -0.27973514886E+02 -0.66693834130E+02 -0.92440342952E+02  0.11746442888E+03  0.47000000000E+01 0. -1.
<mgrwt>
<rscale>  0 0.27634689E+03</rscale>
<asrwt>0</asrwt>
<pdfrwt beam="1">  1        2 0.10897277E+00 0.27634689E+03</pdfrwt>
<pdfrwt beam="2">  1       -2 0.41467177E-02 0.27634689E+03</pdfrwt>
<totfact> 0.10718728E+04</totfact>
</mgrwt>
</event>
<event>
 9    1  0.7997082E-001  0.2737414E+03  0.7818608E-02  0.1099157E+00
         -4   -1    0    0    0  501 -0.00000000000E+00  0.00000000000E+00  0.22297864757E+03  0.22297864757E+03  0.00000000000E+00 0.  1.
          4   -1    0    0  501    0  0.00000000000E+00 -0.00000000000E+00 -0.84015139220E+02  0.84015139220E+02  0.00000000000E+00 0.  1.
         35    2    1    2    0    0 -0.14210854715E-13  0.00000000000E+00  0.13896350835E+03  0.30699378679E+03  0.27374135324E+03 0.  0.
         25    2    3    3    0    0  0.38224463306E+02 -0.41789653768E+02  0.66703581272E+02  0.15139911839E+03  0.12355096332E+03 0.  0.
         25    2    3    3    0    0 -0.38224463306E+02  0.41789653768E+02  0.72259927076E+02  0.15559466840E+03  0.12562133185E+03 0.  0.
          5    1    4    4  502    0 -0.38896002537E+02  0.34363948922E+01  0.44046295041E+02  0.59049758087E+02  0.47000000000E+01 0.  1.
         -5    1    4    4    0  502  0.77120465843E+02 -0.45226048660E+02  0.22657286231E+02  0.92349360304E+02  0.47000000000E+01 0.  1.
          5    1    5    5  503    0  0.37554858089E+02 -0.16920502356E+02  0.16688198554E+02  0.44690678414E+02  0.47000000000E+01 0. -1.
         -5    1    5    5    0  503 -0.75779321395E+02  0.58710156124E+02  0.55571728521E+02  0.11090398998E+03  0.47000000000E+01 0. -1.
<mgrwt>
<rscale>  0 0.27374135E+03</rscale>
<asrwt>0</asrwt>
<pdfrwt beam="1">  1        4 0.12925406E-01 0.27374135E+03</pdfrwt>
<pdfrwt beam="2">  1       -4 0.34304407E-01 0.27374135E+03</pdfrwt>
<totfact> 0.75280834E+02</totfact>
</mgrwt>
</event>
<event>
 9    1  0.7997082E-001  0.2749353E+03  0.7818608E-02  0.1098488E+00
         -2   -1    0    0    0  501 -0.00000000000E+00  0.00000000000E+00  0.89763153955E+03  0.89763153955E+03  0.00000000000E+00 0.  1.
          2   -1    0    0  501    0  0.00000000000E+00 -0.00000000000E+00 -0.21052466855E+02  0.21052466855E+02  0.00000000000E+00 0.  1.
         35    2    1    2    0    0  0.00000000000E+00  0.71054273576E-14  0.87657907269E+03  0.91868400640E+03  0.27493532501E+03 0.  0.
         25    2    3    3    0    0 -0.75397811519E+01 -0.53379896913E+02  0.36734369266E+03  0.39166937037E+03  0.12472868737E+03 0.  0.
         25    2    3    3    0    0  0.75397811519E+01  0.53379896913E+02  0.50923538003E+03  0.52701463604E+03  0.12456922824E+03 0.  0.
          5    1    4    4  502    0  0.57604799418E+02 -0.34673306650E+02  0.20040745573E+03  0.21143743619E+03  0.47000000000E+01 0. -1.
         -5    1    4    4    0  502 -0.65144580570E+02 -0.18706590262E+02  0.16693623693E+03  0.18023193417E+03  0.47000000000E+01 0. -1.
          5    1    5    5  503    0 -0.38913779239E+02 -0.15732847903E+02  0.27813925117E+03  0.28132781192E+03  0.47000000000E+01 0. -1.
         -5    1    5    5    0  503  0.46453560391E+02  0.69112744816E+02  0.23109612887E+03  0.24568682412E+03  0.47000000000E+01 0. -1.
<mgrwt>
<rscale>  0 0.27493533E+03</rscale>
<asrwt>0</asrwt>
<pdfrwt beam="1">  1        2 0.32388417E-02 0.27493533E+03</pdfrwt>
<pdfrwt beam="2">  1       -2 0.13809713E+00 0.27493533E+03</pdfrwt>
<totfact> 0.11060701E+03</totfact>
</mgrwt>
</event>
<event>
 9    1  0.7997082E-001  0.2814569E+03  0.7818608E-02  0.1094896E+00
          1   -1    0    0  501    0  0.00000000000E+00  0.00000000000E+00  0.30896676738E+03  0.30896676738E+03  0.00000000000E+00 0. -1.
         -1   -1    0    0    0  501 -0.00000000000E+00 -0.00000000000E+00 -0.64099103215E+02  0.64099103215E+02  0.00000000000E+00 0. -1.
         35    2    1    2    0    0  0.00000000000E+00  0.00000000000E+00  0.24486766416E+03  0.37306587059E+03  0.28145687209E+03 0.  0.
         25    2    3    3    0    0 -0.32105308266E+02  0.53522891277E+02  0.14500142778E+03  0.20109887749E+03  0.12457886563E+03 0.  0.
         25    2    3    3    0    0  0.32105308266E+02 -0.53522891277E+02  0.99866236380E+02  0.17196699310E+03  0.12531532563E+03 0.  0.
          5    1    4    4  502    0 -0.22067172229E+02  0.93244263194E+02  0.84279049277E+02  0.12769691013E+03  0.47000000000E+01 0. -1.
         -5    1    4    4    0  502 -0.10038136036E+02 -0.39721371917E+02  0.60722378505E+02  0.73401967367E+02  0.47000000000E+01 0. -1.
          5    1    5    5  503    0  0.45654636058E+02 -0.27601361562E+02 -0.13138062914E+02  0.55144171503E+02  0.47000000000E+01 0.  1.
         -5    1    5    5    0  503 -0.13549327792E+02 -0.25921529716E+02  0.11300429929E+03  0.11682282160E+03  0.47000000000E+01 0.  1.
<mgrwt>
<rscale>  0 0.28145687E+03</rscale>
<asrwt>0</asrwt>
<pdfrwt beam="1">  1        1 0.47533348E-01 0.28145687E+03</pdfrwt>
<pdfrwt beam="2">  1       -1 0.98614007E-02 0.28145687E+03</pdfrwt>
<totfact> 0.52295771E+03</totfact>
</mgrwt>
</event>
<event>
 9    1  0.7997082E-001  0.2764176E+03  0.7818608E-02  0.1097662E+00
          1   -1    0    0  501    0  0.00000000000E+00  0.00000000000E+00  0.10455348029E+03  0.10455348029E+03  0.00000000000E+00 0.  1.
         -1   -1    0    0    0  501 -0.00000000000E+00 -0.00000000000E+00 -0.18269762483E+03  0.18269762483E+03  0.00000000000E+00 0.  1.
         35    2    1    2    0    0  0.71054273576E-14 -0.71054273576E-14 -0.78144144540E+02  0.28725110511E+03  0.27641760086E+03 0.  0.
         25    2    3    3    0    0  0.20515687516E+02  0.39831000582E+02 -0.76026649462E+02  0.15438295307E+03  0.12667534380E+03 0.  0.
         25    2    3    3    0    0 -0.20515687516E+02 -0.39831000582E+02 -0.21174950786E+01  0.13286815205E+03  0.12506822139E+03 0.  0.
          5    1    4    4  502    0 -0.24515033577E+02 -0.36534236544E+02 -0.15280357403E+02  0.46811501081E+02  0.47000000000E+01 0.  1.
         -5    1    4    4    0  502  0.45030721093E+02  0.76365237126E+02 -0.60746292059E+02  0.10757145199E+03  0.47000000000E+01 0.  1.
          5    1    5    5  503    0 -0.70199511381E+02 -0.37052129223E+02  0.13168969103E+02  0.80599897179E+02  0.47000000000E+01 0.  1.
         -5    1    5    5    0  503  0.49683823865E+02 -0.27788713589E+01 -0.15286464182E+02  0.52268254869E+02  0.47000000000E+01 0.  1.
<mgrwt>
<rscale>  0 0.27641760E+03</rscale>
<asrwt>0</asrwt>
<pdfrwt beam="1">  1        1 0.16085151E-01 0.27641760E+03</pdfrwt>
<pdfrwt beam="2">  1       -1 0.28107327E-01 0.27641760E+03</pdfrwt>
<totfact> 0.38600138E+03</totfact>
</mgrwt>
</event>
<event>
 9    1  0.7997082E-001  0.2733570E+03  0.7818608E-02  0.1099374E+00
          3   -1    0    0  501    0  0.00000000000E+00  0.00000000000E+00  0.17051025700E+03  0.17051025700E+03  0.00000000000E+00 0.  1.
         -3   -1    0    0    0  501 -0.00000000000E+00 -0.00000000000E+00 -0.10955943072E+03  0.10955943072E+03  0.00000000000E+00 0.  1.
         35    2    1    2    0    0  0.00000000000E+00  0.44408920985E-14  0.60950826280E+02  0.28006968772E+03  0.27335695849E+03 0.  0.
         25    2    3    3    0    0  0.17210389054E+02  0.20729220344E+01 -0.21513321148E+02  0.12915380782E+03  0.12616413354E+03 0.  0.
         25    2    3    3    0    0 -0.17210389054E+02 -0.20729220344E+01  0.82464147428E+02  0.15091587989E+03  0.12519893249E+03 0.  0.
          5    1    4    4  502    0  0.47413071814E+02 -0.42905108267E+02  0.12064081185E+02  0.65241702530E+02  0.47000000000E+01 0.  1.
         -5    1    4    4    0  502 -0.30202682759E+02  0.44978030301E+02 -0.33577402332E+02  0.63912105294E+02  0.47000000000E+01 0.  1.
          5    1    5    5  503    0 -0.33975585122E+02  0.34442924047E+01  0.11144782102E+03  0.11665723443E+03  0.47000000000E+01 0.  1.
         -5    1    5    5    0  503  0.16765196068E+02 -0.55172144391E+01 -0.28983673589E+02  0.34258645465E+02  0.47000000000E+01 0.  1.
<mgrwt>
<rscale>  0 0.27335696E+03</rscale>
<asrwt>0</asrwt>
<pdfrwt beam="1">  1        3 0.26232347E-01 0.27335696E+03</pdfrwt>
<pdfrwt beam="2">  1       -3 0.16855297E-01 0.27335696E+03</pdfrwt>
<totfact> 0.10605435E+03</totfact>
</mgrwt>
</event>
<event>
 9    1  0.7997082E-001  0.2723753E+03  0.7818608E-02  0.1099928E+00
         -1   -1    0    0    0  501 -0.00000000000E+00  0.00000000000E+00  0.63532878028E+01  0.63532878028E+01  0.00000000000E+00 0.  1.
          1   -1    0    0  501    0  0.00000000000E+00 -0.00000000000E+00 -0.29192888037E+04  0.29192888037E+04  0.00000000000E+00 0.  1.
         35    2    1    2    0    0  0.71054273576E-14  0.71054273576E-14 -0.29129355159E+04  0.29256420915E+04  0.27237534359E+03 0.  0.
         25    2    3    3    0    0 -0.51124783125E+02 -0.16910519115E+02 -0.15316849943E+04  0.15376466173E+04  0.12409064769E+03 0.  0.
         25    2    3    3    0    0  0.51124783125E+02  0.16910519115E+02 -0.13812505216E+04  0.13879954742E+04  0.12561339049E+03 0.  0.
          5    1    4    4  502    0  0.35660351538E+02 -0.19276391622E+02 -0.75673970936E+03  0.75783924263E+03  0.47000000000E+01 0. -1.
         -5    1    4    4    0  502 -0.86785134663E+02  0.23658725064E+01 -0.77494528498E+03  0.77980737472E+03  0.47000000000E+01 0. -1.
          5    1    5    5  503    0  0.39731722309E+02 -0.50486758568E+02 -0.50938490550E+03  0.51344190957E+03  0.47000000000E+01 0. -1.
         -5    1    5    5    0  503  0.11393060816E+02  0.67397277683E+02 -0.87186561608E+03  0.87455356461E+03  0.47000000000E+01 0. -1.
<mgrwt>
<rscale>  0 0.27237534E+03</rscale>
<asrwt>0</asrwt>
<pdfrwt beam="1">  1        1 0.44912228E+00 0.27237534E+03</pdfrwt>
<pdfrwt beam="2">  1       -1 0.97742688E-03 0.27237534E+03</pdfrwt>
<totfact> 0.16021121E+03</totfact>
</mgrwt>
</event>
<event>
 9    1  0.7997082E-001  0.2750256E+03  0.7818608E-02  0.1098437E+00
         -2   -1    0    0    0  501 -0.00000000000E+00  0.00000000000E+00  0.33437195981E+03  0.33437195981E+03  0.00000000000E+00 0.  1.
          2   -1    0    0  501    0  0.00000000000E+00 -0.00000000000E+00 -0.56553115775E+02  0.56553115775E+02  0.00000000000E+00 0.  1.
         35    2    1    2    0    0  0.00000000000E+00 -0.71054273576E-14  0.27781884404E+03  0.39092507559E+03  0.27502564357E+03 0.  0.
         25    2    3    3    0    0  0.33338022949E+02  0.47677109458E+02  0.12790338054E+03  0.18771848430E+03  0.12447660042E+03 0.  0.
         25    2    3    3    0    0 -0.33338022949E+02 -0.47677109458E+02  0.14991546350E+03  0.20320659129E+03  0.12423261249E+03 0.  0.
          5    1    4    4  502    0 -0.17961370952E+02 -0.17371995399E+02 -0.95509011839E+01  0.27160758164E+02  0.47000000000E+01 0.  1.
         -5    1    4    4    0  502  0.51299393901E+02  0.65049104857E+02  0.13745428172E+03  0.16055772613E+03  0.47000000000E+01 0.  1.
          5    1    5    5  503    0 -0.73586709315E+02 -0.50443353427E+02  0.69765630392E+02  0.11335285121E+03  0.47000000000E+01 0.  1.
         -5    1    5    5    0  503  0.40248686366E+02  0.27662439690E+01  0.80149833106E+02  0.89853740082E+02  0.47000000000E+01 0.  1.
<mgrwt>
<rscale>  0 0.27502564E+03</rscale>
<asrwt>0</asrwt>
<pdfrwt beam="1">  1        2 0.87004795E-02 0.27502564E+03</pdfrwt>
<pdfrwt beam="2">  1       -2 0.51441839E-01 0.27502564E+03</pdfrwt>
<totfact> 0.27613797E+03</totfact>
</mgrwt>
</event>
<event>
 9    1  0.7997082E-001  0.2736446E+03  0.7818608E-02  0.1099212E+00
         -1   -1    0    0    0  501 -0.00000000000E+00  0.00000000000E+00  0.82668302628E+02  0.82668302628E+02  0.00000000000E+00 0.  1.
          1   -1    0    0  501    0  0.00000000000E+00 -0.00000000000E+00 -0.22645133192E+03  0.22645133192E+03  0.00000000000E+00 0.  1.
         35    2    1    2    0    0  0.71054273576E-14  0.00000000000E+00 -0.14378302929E+03  0.30911963454E+03  0.27364463991E+03 0.  0.
         25    2    3    3    0    0 -0.39852620874E+02 -0.32858828758E+02 -0.48591537704E+02  0.14398511349E+03  0.12531018056E+03 0.  0.
         25    2    3    3    0    0  0.39852620874E+02  0.32858828758E+02 -0.95191491584E+02  0.16513452105E+03  0.12465976077E+03 0.  0.
          5    1    4    4  502    0 -0.76983524372E+02 -0.74124366870E+01 -0.59188585526E+02  0.97502748161E+02  0.47000000000E+01 0. -1.
         -5    1    4    4    0  502  0.37130903498E+02 -0.25446392071E+02  0.10597047822E+02  0.46482365328E+02  0.47000000000E+01 0. -1.
          5    1    5    5  503    0 -0.10634023129E+02 -0.39539616201E+02 -0.53150518166E+02  0.67257202429E+02  0.47000000000E+01 0.  1.
         -5    1    5    5    0  503  0.50486644003E+02  0.72398444959E+02 -0.42040973418E+02  0.97877318625E+02  0.47000000000E+01 0.  1.
<mgrwt>
<rscale>  0 0.27364464E+03</rscale>
<asrwt>0</asrwt>
<pdfrwt beam="1">  1        1 0.34838666E-01 0.27364464E+03</pdfrwt>
<pdfrwt beam="2">  1       -1 0.12718201E-01 0.27364464E+03</pdfrwt>
<totfact> 0.51959137E+03</totfact>
</mgrwt>
</event>
<event>
 9    1  0.7997082E-001  0.2770371E+03  0.7818608E-02  0.1097318E+00
          2   -1    0    0  501    0  0.00000000000E+00  0.00000000000E+00  0.10132460579E+04  0.10132460579E+04  0.00000000000E+00 0.  1.
         -2   -1    0    0    0  501 -0.00000000000E+00 -0.00000000000E+00 -0.18936552273E+02  0.18936552273E+02  0.00000000000E+00 0.  1.
         35    2    1    2    0    0  0.00000000000E+00  0.00000000000E+00  0.99430950561E+03  0.10321826102E+04  0.27703708734E+03 0.  0.
         25    2    3    3    0    0 -0.49552651727E+02 -0.69602786816E+01  0.59647447144E+03  0.61153563803E+03  0.12526025199E+03 0.  0.
         25    2    3    3    0    0  0.49552651727E+02  0.69602786816E+01  0.39783503417E+03  0.42064697212E+03  0.12715050127E+03 0.  0.
          5    1    4    4  502    0  0.29193830681E+02  0.22186873980E+02  0.33101987296E+03  0.33307774381E+03  0.47000000000E+01 0. -1.
         -5    1    4    4    0  502 -0.78746482408E+02 -0.29147152661E+02  0.26545459848E+03  0.27845789422E+03  0.47000000000E+01 0. -1.
          5    1    5    5  503    0  0.74021634316E+02  0.42066597549E+02  0.32538207599E+03  0.33636941947E+03  0.47000000000E+01 0.  1.
         -5    1    5    5    0  503 -0.24468982588E+02 -0.35106318867E+02  0.72452958176E+02  0.84277552656E+02  0.47000000000E+01 0.  1.
<mgrwt>
<rscale>  0 0.27703709E+03</rscale>
<asrwt>0</asrwt>
<pdfrwt beam="1">  1        2 0.15588397E+00 0.27703709E+03</pdfrwt>
<pdfrwt beam="2">  1       -2 0.29133165E-02 0.27703709E+03</pdfrwt>
<totfact> 0.11379047E+04</totfact>
</mgrwt>
</event>
<event>
 9    1  0.7997082E-001  0.2744103E+03  0.7818608E-02  0.1098782E+00
          2   -1    0    0  501    0  0.00000000000E+00  0.00000000000E+00  0.55689706339E+03  0.55689706339E+03  0.00000000000E+00 0.  1.
         -2   -1    0    0    0  501 -0.00000000000E+00 -0.00000000000E+00 -0.33803830472E+02  0.33803830472E+02  0.00000000000E+00 0.  1.
         35    2    1    2    0    0  0.00000000000E+00 -0.35527136788E-14  0.52309323292E+03  0.59070089386E+03  0.27441030536E+03 0.  0.
         25    2    3    3    0    0  0.17586400555E+02 -0.22724312522E+02  0.15704402180E+03  0.20255053940E+03  0.12465239814E+03 0.  0.
         25    2    3    3    0    0 -0.17586400555E+02  0.22724312522E+02  0.36604921112E+03  0.38815035446E+03  0.12586896697E+03 0.  0.
          5    1    4    4  502    0  0.20619354725E+01  0.11560972647E+02 -0.18801857144E+02  0.22660703840E+02  0.47000000000E+01 0.  1.
         -5    1    4    4    0  502  0.15524465083E+02 -0.34285285170E+02  0.17584587894E+03  0.17988983556E+03  0.47000000000E+01 0.  1.
          5    1    5    5  503    0  0.18152985583E+02  0.26420317172E+02  0.34443960352E+03  0.34595996086E+03  0.47000000000E+01 0.  1.
         -5    1    5    5    0  503 -0.35739386139E+02 -0.36960046498E+01  0.21609607595E+02  0.42190393603E+02  0.47000000000E+01 0.  1.
<mgrwt>
<rscale>  0 0.27441031E+03</rscale>
<asrwt>0</asrwt>
<pdfrwt beam="1">  1        2 0.85676465E-01 0.27441031E+03</pdfrwt>
<pdfrwt beam="2">  1       -2 0.52005897E-02 0.27441031E+03</pdfrwt>
<totfact> 0.10093080E+04</totfact>
</mgrwt>
</event>
<event>
 8    1  0.7997082E-001  0.3934901E+03  0.7818608E-02  0.1046057E+00
         -1   -1    0    0    0  501 -0.00000000000E+00  0.00000000000E+00  0.40887784051E+02  0.40887784051E+02  0.00000000000E+00 0.  1.
          1   -1    0    0  501    0  0.00000000000E+00 -0.00000000000E+00 -0.94670356417E+03  0.94670356417E+03  0.00000000000E+00 0.  1.
         25    2    1    2    0    0  0.34586759590E+02  0.21571412567E+02 -0.81882665823E+03  0.82950120917E+03  0.12622832487E+03 0.  0.
         25    2    1    2    0    0 -0.34586759590E+02 -0.21571412567E+02 -0.86989121888E+02  0.15809013905E+03  0.12555403203E+03 0.  0.
          5    1    3    3  502    0 -0.17392743129E+02  0.32470981080E+02 -0.74251976582E+02  0.83019986463E+02  0.47000000000E+01 0. -1.
         -5    1    3    3    0  502  0.51979502719E+02 -0.10899568513E+02 -0.74457468165E+03  0.74648122270E+03  0.47000000000E+01 0. -1.
          5    1    4    4  503    0 -0.62469639241E+02  0.19177381280E+02 -0.86472765680E+02  0.10848897172E+03  0.47000000000E+01 0. -1.
         -5    1    4    4    0  503  0.27882879651E+02 -0.40748793846E+02 -0.51635620785E+00  0.49601167338E+02  0.47000000000E+01 0. -1.
<mgrwt>
<rscale>  0 0.39349008E+03</rscale>
<asrwt>0</asrwt>
<pdfrwt beam="1">  1        1 0.14564668E+00 0.39349008E+03</pdfrwt>
<pdfrwt beam="2">  1       -1 0.62904293E-02 0.39349008E+03</pdfrwt>
<totfact> 0.21876276E+03</totfact>
</mgrwt>
</event>
<event>
 9    1  0.7997082E-001  0.2736075E+03  0.7818608E-02  0.1099233E+00
          2   -1    0    0  501    0  0.00000000000E+00  0.00000000000E+00  0.44680441034E+03  0.44680441034E+03  0.00000000000E+00 0. -1.
         -2   -1    0    0    0  501 -0.00000000000E+00 -0.00000000000E+00 -0.41886938776E+02  0.41886938776E+02  0.00000000000E+00 0. -1.
         35    2    1    2    0    0  0.71054273576E-14  0.00000000000E+00  0.40491747156E+03  0.48869134912E+03  0.27360752169E+03 0.  0.
         25    2    3    3    0    0 -0.26267175419E+02 -0.42869764131E+02  0.15734786415E+03  0.20694222717E+03  0.12465534024E+03 0.  0.
         25    2    3    3    0    0  0.26267175419E+02  0.42869764131E+02  0.24756960742E+03  0.28174912195E+03  0.12475606608E+03 0.  0.
          5    1    4    4  502    0 -0.22406994452E+02 -0.70116113112E+01 -0.16662674255E+02  0.29171403923E+02  0.47000000000E+01 0. -1.
         -5    1    4    4    0  502 -0.38601809677E+01 -0.35858152820E+02  0.17401053840E+03  0.17777082324E+03  0.47000000000E+01 0. -1.
          5    1    5    5  503    0  0.47390700418E+02 -0.30558101906E+02  0.12544171941E+03  0.13761319358E+03  0.47000000000E+01 0. -1.
         -5    1    5    5    0  503 -0.21123524999E+02  0.73427866038E+02  0.12212788801E+03  0.14413592837E+03  0.47000000000E+01 0. -1.
<mgrwt>
<rscale>  0 0.27360752E+03</rscale>
<asrwt>0</asrwt>
<pdfrwt beam="1">  1        2 0.68739137E-01 0.27360752E+03</pdfrwt>
<pdfrwt beam="2">  1       -2 0.64441447E-02 0.27360752E+03</pdfrwt>
<totfact> 0.92992151E+03</totfact>
</mgrwt>
</event>
<event>
 9    1  0.7997082E-001  0.2768028E+03  0.7818608E-02  0.1097448E+00
          2   -1    0    0  501    0  0.00000000000E+00  0.00000000000E+00  0.32711623553E+04  0.32711623553E+04  0.00000000000E+00 0. -1.
         -2   -1    0    0    0  501 -0.00000000000E+00 -0.00000000000E+00 -0.58557023704E+01  0.58557023704E+01  0.00000000000E+00 0. -1.
         35    2    1    2    0    0 -0.14210854715E-13  0.71054273576E-14  0.32653066529E+04  0.32770180577E+04  0.27680284072E+03 0.  0.
         25    2    3    3    0    0  0.33111342529E+02 -0.22847045708E+02  0.21136364144E+04  0.21177528441E+04  0.12569752578E+03 0.  0.
         25    2    3    3    0    0 -0.33111342529E+02  0.22847045708E+02  0.11516702386E+04  0.11592652136E+04  0.12622657620E+03 0.  0.
          5    1    4    4  502    0  0.50899285157E+02 -0.66230869004E+02  0.12103094062E+04  0.12131975164E+04  0.47000000000E+01 0. -1.
         -5    1    4    4    0  502 -0.17787942628E+02  0.43383823296E+02  0.90332700818E+03  0.90455532763E+03  0.47000000000E+01 0. -1.
          5    1    5    5  503    0 -0.70736523917E+02  0.48906908534E+02  0.78970292676E+03  0.79438551350E+03  0.47000000000E+01 0.  1.
         -5    1    5    5    0  503  0.37625181388E+02 -0.26059862826E+02  0.36196731182E+03  0.36487970011E+03  0.47000000000E+01 0.  1.
<mgrwt>
<rscale>  0 0.27680284E+03</rscale>
<asrwt>0</asrwt>
<pdfrwt beam="1">  1        2 0.50325429E+00 0.27680284E+03</pdfrwt>
<pdfrwt beam="2">  1       -2 0.90087990E-03 0.27680284E+03</pdfrwt>
<totfact> 0.35328190E+03</totfact>
</mgrwt>
</event>
<event>
 9    1  0.7997082E-001  0.2825439E+03  0.7818608E-02  0.1094308E+00
         -2   -1    0    0    0  501 -0.00000000000E+00  0.00000000000E+00  0.32152730343E+03  0.32152730343E+03  0.00000000000E+00 0.  1.
          2   -1    0    0  501    0  0.00000000000E+00 -0.00000000000E+00 -0.62071772085E+02  0.62071772085E+02  0.00000000000E+00 0.  1.
         35    2    1    2    0    0 -0.35527136788E-14  0.71054273576E-14  0.25945553134E+03  0.38359907551E+03  0.28254393993E+03 0.  0.
         25    2    3    3    0    0  0.22154675030E+02  0.57622730453E+02  0.16176790387E+03  0.21344451728E+03  0.12481385556E+03 0.  0.
         25    2    3    3    0    0 -0.22154675030E+02 -0.57622730453E+02  0.97687627471E+02  0.17015455824E+03  0.12489392474E+03 0.  0.
          5    1    4    4  502    0  0.54393219020E+02  0.17204274745E+02  0.14952338918E+03  0.16010603754E+03  0.47000000000E+01 0.  1.
         -5    1    4    4    0  502 -0.32238543990E+02  0.40418455708E+02  0.12244514694E+02  0.53338479736E+02  0.47000000000E+01 0.  1.
          5    1    5    5  503    0 -0.14760587626E+02 -0.50122202446E+02 -0.16801312878E+02  0.55086152884E+02  0.47000000000E+01 0.  1.
         -5    1    5    5    0  503 -0.73940874035E+01 -0.75005280071E+01  0.11448894035E+03  0.11506840536E+03  0.47000000000E+01 0.  1.
<mgrwt>
<rscale>  0 0.28254394E+03</rscale>
<asrwt>0</asrwt>
<pdfrwt beam="1">  1        2 0.95495036E-02 0.28254394E+03</pdfrwt>
<pdfrwt beam="2">  1       -2 0.49465738E-01 0.28254394E+03</pdfrwt>
<totfact> 0.26589925E+03</totfact>
</mgrwt>
</event>
<event>
 9    1  0.7997082E-001  0.2739945E+03  0.7818608E-02  0.1099015E+00
          2   -1    0    0  501    0  0.00000000000E+00  0.00000000000E+00  0.11737656458E+04  0.11737656458E+04  0.00000000000E+00 0. -1.
         -2   -1    0    0    0  501 -0.00000000000E+00 -0.00000000000E+00 -0.15989767425E+02  0.15989767425E+02  0.00000000000E+00 0. -1.
         35    2    1    2    0    0  0.00000000000E+00  0.00000000000E+00  0.11577758783E+04  0.11897554132E+04  0.27399445022E+03 0.  0.
         25    2    3    3    0    0 -0.18662349850E+02  0.44640320825E+02  0.67516954179E+03  0.68918095948E+03  0.12952004940E+03 0.  0.
         25    2    3    3    0    0  0.18662349850E+02 -0.44640320825E+02  0.48260633655E+03  0.50057445372E+03  0.12379364317E+03 0.  0.
          5    1    4    4  502    0 -0.41725084960E+02  0.76399151915E+02  0.57365862549E+03  0.58024488083E+03  0.47000000000E+01 0.  1.
         -5    1    4    4    0  502  0.23062735110E+02 -0.31758831090E+02  0.10151091630E+03  0.10893607865E+03  0.47000000000E+01 0.  1.
          5    1    5    5  503    0  0.42155801932E+02 -0.79723600475E+02  0.33812991443E+03  0.34998127542E+03  0.47000000000E+01 0. -1.
         -5    1    5    5    0  503 -0.23493452081E+02  0.35083279650E+02  0.14447642212E+03  0.15059317830E+03  0.47000000000E+01 0. -1.
<mgrwt>
<rscale>  0 0.27399445E+03</rscale>
<asrwt>0</asrwt>
<pdfrwt beam="1">  1        2 0.18057926E+00 0.27399445E+03</pdfrwt>
<pdfrwt beam="2">  1       -2 0.24599651E-02 0.27399445E+03</pdfrwt>
<totfact> 0.11756300E+04</totfact>
</mgrwt>
</event>
<event>
 9    1  0.7997082E-001  0.2757867E+03  0.7818608E-02  0.1098013E+00
         -2   -1    0    0    0  501 -0.00000000000E+00  0.00000000000E+00  0.26442530706E+02  0.26442530706E+02  0.00000000000E+00 0.  1.
          2   -1    0    0  501    0  0.00000000000E+00 -0.00000000000E+00 -0.71909070759E+03  0.71909070759E+03  0.00000000000E+00 0.  1.
         35    2    1    2    0    0  0.71054273576E-14 -0.14210854715E-13 -0.69264817689E+03  0.74553323830E+03  0.27578671553E+03 0.  0.
         25    2    3    3    0    0  0.34801799230E+02 -0.42884682924E+02 -0.39471326957E+03  0.41788120927E+03  0.12560206459E+03 0.  0.
         25    2    3    3    0    0 -0.34801799230E+02  0.42884682924E+02 -0.29793490732E+03  0.32765202903E+03  0.12466106797E+03 0.  0.
          5    1    4    4  502    0 -0.23039147743E+02 -0.65597152797E+02 -0.26447819048E+03  0.27350428155E+03  0.47000000000E+01 0.  1.
         -5    1    4    4    0  502  0.57840946973E+02  0.22712469873E+02 -0.13023507909E+03  0.14437692772E+03  0.47000000000E+01 0.  1.
          5    1    5    5  503    0 -0.65321961626E+02  0.36775011776E+02 -0.89441516608E+02  0.11679569793E+03  0.47000000000E+01 0. -1.
         -5    1    5    5    0  503  0.30520162396E+02  0.61096711483E+01 -0.20849339071E+03  0.21085633110E+03  0.47000000000E+01 0. -1.
<mgrwt>
<rscale>  0 0.27578672E+03</rscale>
<asrwt>0</asrwt>
<pdfrwt beam="1">  1        2 0.11062934E+00 0.27578672E+03</pdfrwt>
<pdfrwt beam="2">  1       -2 0.40680816E-02 0.27578672E+03</pdfrwt>
<totfact> 0.10830049E+04</totfact>
</mgrwt>
</event>
<event>
 9    1  0.7997082E-001  0.2769705E+03  0.7818608E-02  0.1097355E+00
          1   -1    0    0  501    0  0.00000000000E+00  0.00000000000E+00  0.13298397374E+03  0.13298397374E+03  0.00000000000E+00 0.  1.
         -1   -1    0    0    0  501 -0.00000000000E+00 -0.00000000000E+00 -0.14421408937E+03  0.14421408937E+03  0.00000000000E+00 0.  1.
         35    2    1    2    0    0  0.00000000000E+00  0.00000000000E+00 -0.11230115639E+02  0.27719806311E+03  0.27697048705E+03 0.  0.
         25    2    3    3    0    0 -0.36902935967E+02  0.40735716875E+02  0.19565808847E+02  0.13767122618E+03  0.12469691387E+03 0.  0.
         25    2    3    3    0    0  0.36902935967E+02 -0.40735716875E+02 -0.30795924486E+02  0.13952683693E+03  0.12449146134E+03 0.  0.
          5    1    4    4  502    0 -0.80302917539E+02  0.21739551432E+02  0.30659914333E+02  0.88787876473E+02  0.47000000000E+01 0.  1.
         -5    1    4    4    0  502  0.43399981572E+02  0.18996165443E+02 -0.11094105486E+02  0.48883349706E+02  0.47000000000E+01 0.  1.
          5    1    5    5  503    0  0.58364429558E+02 -0.43501678674E+02 -0.65713924456E+02  0.98179491507E+02  0.47000000000E+01 0.  1.
         -5    1    5    5    0  503 -0.21461493590E+02  0.27659617996E+01  0.34917999970E+02  0.41347345425E+02  0.47000000000E+01 0.  1.
<mgrwt>
<rscale>  0 0.27697049E+03</rscale>
<asrwt>0</asrwt>
<pdfrwt beam="1">  1        1 0.20459073E-01 0.27697049E+03</pdfrwt>
<pdfrwt beam="2">  1       -1 0.22186783E-01 0.27697049E+03</pdfrwt>
<totfact> 0.41885953E+03</totfact>
</mgrwt>
</event>
<event>
 9    1  0.7997082E-001  0.2757238E+03  0.7818608E-02  0.1098048E+00
         -1   -1    0    0    0  501 -0.00000000000E+00  0.00000000000E+00  0.40423937627E+02  0.40423937627E+02  0.00000000000E+00 0. -1.
          1   -1    0    0  501    0  0.00000000000E+00 -0.00000000000E+00 -0.47016447983E+03  0.47016447983E+03  0.00000000000E+00 0. -1.
         35    2    1    2    0    0  0.00000000000E+00 -0.35527136788E-14 -0.42974054221E+03  0.51058841746E+03  0.27572377197E+03 0.  0.
         25    2    3    3    0    0  0.49298446008E+02  0.22375031031E+02 -0.25322176928E+03  0.28746816880E+03  0.12484272042E+03 0.  0.
         25    2    3    3    0    0 -0.49298446008E+02 -0.22375031031E+02 -0.17651877293E+03  0.22312024866E+03  0.12527086403E+03 0.  0.
          5    1    4    4  502    0  0.86723367744E+02 -0.50508987523E+00 -0.12784397778E+03  0.15455539551E+03  0.47000000000E+01 0. -1.
         -5    1    4    4    0  502 -0.37424921736E+02  0.22880120906E+02 -0.12537779150E+03  0.13291277328E+03  0.47000000000E+01 0. -1.
          5    1    5    5  503    0 -0.81358548915E+02  0.19130491201E+02 -0.10409773258E+03  0.13358000263E+03  0.47000000000E+01 0.  1.
         -5    1    5    5    0  503  0.32060102907E+02 -0.41505522232E+02 -0.72421040347E+02  0.89540246030E+02  0.47000000000E+01 0.  1.
<mgrwt>
<rscale>  0 0.27572377E+03</rscale>
<asrwt>0</asrwt>
<pdfrwt beam="1">  1        1 0.72332995E-01 0.27572377E+03</pdfrwt>
<pdfrwt beam="2">  1       -1 0.62190675E-02 0.27572377E+03</pdfrwt>
<totfact> 0.61720733E+03</totfact>
</mgrwt>
</event>
<event>
 9    1  0.7997082E-001  0.2754516E+03  0.7818608E-02  0.1098199E+00
         -2   -1    0    0    0  501 -0.00000000000E+00  0.00000000000E+00  0.15301732804E+03  0.15301732804E+03  0.00000000000E+00 0. -1.
          2   -1    0    0  501    0  0.00000000000E+00 -0.00000000000E+00 -0.12396238587E+03  0.12396238587E+03  0.00000000000E+00 0. -1.
         35    2    1    2    0    0 -0.35527136788E-14  0.71054273576E-14  0.29054942176E+02  0.27697971391E+03  0.27545157878E+03 0.  0.
         25    2    3    3    0    0 -0.13038301965E+02 -0.50607002849E+02  0.43050469476E+02  0.14129790436E+03  0.12401890501E+03 0.  0.
         25    2    3    3    0    0  0.13038301965E+02  0.50607002849E+02 -0.13995527300E+02  0.13568180955E+03  0.12442914692E+03 0.  0.
          5    1    4    4  502    0  0.23943422546E+02  0.32646094347E+02  0.26432614463E+02  0.48578061578E+02  0.47000000000E+01 0.  1.
         -5    1    4    4    0  502 -0.36981724511E+02 -0.83253097196E+02  0.16617855013E+02  0.92719842783E+02  0.47000000000E+01 0.  1.
          5    1    5    5  503    0  0.62276680824E+02  0.82420635249E+01 -0.28210177315E+02  0.69023334386E+02  0.47000000000E+01 0.  1.
         -5    1    5    5    0  503 -0.49238378859E+02  0.42364939324E+02  0.14214650014E+02  0.66658475167E+02  0.47000000000E+01 0.  1.
<mgrwt>
<rscale>  0 0.27545158E+03</rscale>
<asrwt>0</asrwt>
<pdfrwt beam="1">  1        2 0.19071136E-01 0.27545158E+03</pdfrwt>
<pdfrwt beam="2">  1       -2 0.23541127E-01 0.27545158E+03</pdfrwt>
<totfact> 0.46112366E+03</totfact>
</mgrwt>
</event>
<event>
 9    1  0.7997082E-001  0.2747427E+03  0.7818608E-02  0.1098596E+00
          1   -1    0    0  501    0  0.00000000000E+00  0.00000000000E+00  0.25267767157E+03  0.25267767157E+03  0.00000000000E+00 0.  1.
         -1   -1    0    0    0  501 -0.00000000000E+00 -0.00000000000E+00 -0.74683625031E+02  0.74683625031E+02  0.00000000000E+00 0.  1.
         35    2    1    2    0    0  0.14210854715E-13  0.00000000000E+00  0.17799404654E+03  0.32736129660E+03  0.27474267581E+03 0.  0.
         25    2    3    3    0    0 -0.35513420445E+02 -0.12701943211E+01  0.14525470348E+03  0.19321504195E+03  0.12235320644E+03 0.  0.
         25    2    3    3    0    0  0.35513420445E+02  0.12701943211E+01  0.32739343054E+02  0.13414625465E+03  0.12514206578E+03 0.  0.
          5    1    4    4  502    0 -0.53274276559E+02 -0.28847814794E+02  0.20493458867E+02  0.64128128131E+02  0.47000000000E+01 0.  1.
         -5    1    4    4    0  502  0.17760856114E+02  0.27577620473E+02  0.12476124462E+03  0.12908691382E+03  0.47000000000E+01 0.  1.
          5    1    5    5  503    0 -0.12793069674E+02 -0.36591371857E+02  0.56062245434E+02  0.68320249481E+02  0.47000000000E+01 0.  1.
         -5    1    5    5    0  503  0.48306490119E+02  0.37861566178E+02 -0.23322902380E+02  0.65826005169E+02  0.47000000000E+01 0.  1.
<mgrwt>
<rscale>  0 0.27474268E+03</rscale>
<asrwt>0</asrwt>
<pdfrwt beam="1">  1        1 0.38873488E-01 0.27474268E+03</pdfrwt>
<pdfrwt beam="2">  1       -1 0.11489789E-01 0.27474268E+03</pdfrwt>
<totfact> 0.53074821E+03</totfact>
</mgrwt>
</event>
<event>
 9    1  0.7997082E-001  0.2793645E+03  0.7818608E-02  0.1096037E+00
         -1   -1    0    0    0  501 -0.00000000000E+00  0.00000000000E+00  0.16601699222E+02  0.16601699222E+02  0.00000000000E+00 0. -1.
          1   -1    0    0  501    0  0.00000000000E+00 -0.00000000000E+00 -0.11752490605E+04  0.11752490605E+04  0.00000000000E+00 0. -1.
         35    2    1    2    0    0  0.00000000000E+00  0.00000000000E+00 -0.11586473613E+04  0.11918507598E+04  0.27936450321E+03 0.  0.
         25    2    3    3    0    0 -0.46948614343E+02 -0.26535078089E+02 -0.44972850421E+03  0.46983820659E+03  0.12483561238E+03 0.  0.
         25    2    3    3    0    0  0.46948614343E+02  0.26535078089E+02 -0.70891885711E+03  0.72201255317E+03  0.12580897508E+03 0.  0.
          5    1    4    4  502    0 -0.80276635438E+02 -0.25415135858E+02 -0.18923434126E+03  0.20717623715E+03  0.47000000000E+01 0.  1.
         -5    1    4    4    0  502  0.33328021095E+02 -0.11199422310E+01 -0.26049416295E+03  0.26266196944E+03  0.47000000000E+01 0.  1.
          5    1    5    5  503    0 -0.25118074840E+02  0.44502046393E+02 -0.15888198519E+03  0.16696384350E+03  0.47000000000E+01 0.  1.
         -5    1    5    5    0  503  0.72066689183E+02 -0.17966968304E+02 -0.55003687191E+03  0.55504870967E+03  0.47000000000E+01 0.  1.
<mgrwt>
<rscale>  0 0.27936450E+03</rscale>
<asrwt>0</asrwt>
<pdfrwt beam="1">  1        1 0.18080761E+00 0.27936450E+03</pdfrwt>
<pdfrwt beam="2">  1       -1 0.25541067E-02 0.27936450E+03</pdfrwt>
<totfact> 0.57046077E+03</totfact>
</mgrwt>
</event>
<event>
 9    1  0.7997082E-001  0.2813435E+03  0.7818608E-02  0.1094957E+00
          1   -1    0    0  501    0  0.00000000000E+00  0.00000000000E+00  0.13399316988E+03  0.13399316988E+03  0.00000000000E+00 0.  1.
         -1   -1    0    0    0  501 -0.00000000000E+00 -0.00000000000E+00 -0.14768323456E+03  0.14768323456E+03  0.00000000000E+00 0.  1.
         35    2    1    2    0    0 -0.71054273576E-14  0.17763568394E-14 -0.13690064673E+02  0.28167640444E+03  0.28134352480E+03 0.  0.
         25    2    3    3    0    0 -0.23167967336E+02  0.86098005316E+01 -0.66829409941E+02  0.14385712816E+03  0.12497127635E+03 0.  0.
         25    2    3    3    0    0  0.23167967336E+02 -0.86098005316E+01  0.53139345268E+02  0.13781927628E+03  0.12473764277E+03 0.  0.
          5    1    4    4  502    0  0.15851025436E+02 -0.12342888279E+02  0.30499136152E+02  0.36822400851E+02  0.47000000000E+01 0.  1.
         -5    1    4    4    0  502 -0.39018992772E+02  0.20952688810E+02 -0.97328546093E+02  0.10703472731E+03  0.47000000000E+01 0.  1.
          5    1    5    5  503    0 -0.25169942356E+02  0.30211701150E+02  0.63450154774E+02  0.74794953209E+02  0.47000000000E+01 0. -1.
         -5    1    5    5    0  503  0.48337909692E+02 -0.38821501681E+02 -0.10310809506E+02  0.63024323074E+02  0.47000000000E+01 0. -1.
<mgrwt>
<rscale>  0 0.28134352E+03</rscale>
<asrwt>0</asrwt>
<pdfrwt beam="1">  1        1 0.20614334E-01 0.28134352E+03</pdfrwt>
<pdfrwt beam="2">  1       -1 0.22720498E-01 0.28134352E+03</pdfrwt>
<totfact> 0.39908141E+03</totfact>
</mgrwt>
</event>
<event>
 9    1  0.7997082E-001  0.2786111E+03  0.7818608E-02  0.1096450E+00
         -4   -1    0    0    0  501 -0.00000000000E+00  0.00000000000E+00  0.11367119136E+03  0.11367119136E+03  0.00000000000E+00 0. -1.
          4   -1    0    0  501    0  0.00000000000E+00 -0.00000000000E+00 -0.17072074233E+03  0.17072074233E+03  0.00000000000E+00 0. -1.
         35    2    1    2    0    0  0.71054273576E-14  0.00000000000E+00 -0.57049550970E+02  0.28439193368E+03  0.27861105627E+03 0.  0.
         25    2    3    3    0    0  0.17047159136E+02 -0.31211362045E+00  0.31114808619E+02  0.12980704454E+03  0.12486406387E+03 0.  0.
         25    2    3    3    0    0 -0.17047159136E+02  0.31211362045E+00 -0.88164359589E+02  0.15458488915E+03  0.12582857625E+03 0.  0.
          5    1    4    4  502    0 -0.42344482348E+02  0.33264385068E+02 -0.14284745767E+01  0.54071295887E+02  0.47000000000E+01 0. -1.
         -5    1    4    4    0  502  0.59391641484E+02 -0.33576498689E+02  0.32543283196E+02  0.75735748650E+02  0.47000000000E+01 0. -1.
          5    1    5    5  503    0  0.79056550813E+00  0.24820526177E+02 -0.11257838959E+03  0.11538053266E+03  0.47000000000E+01 0.  1.
         -5    1    5    5    0  503 -0.17837724644E+02 -0.24508412557E+02  0.24414030002E+02  0.39204356486E+02  0.47000000000E+01 0.  1.
<mgrwt>
<rscale>  0 0.27861106E+03</rscale>
<asrwt>0</asrwt>
<pdfrwt beam="1">  1        4 0.26264729E-01 0.27861106E+03</pdfrwt>
<pdfrwt beam="2">  1       -4 0.17487876E-01 0.27861106E+03</pdfrwt>
<totfact> 0.73729183E+02</totfact>
</mgrwt>
</event>
<event>
 9    1  0.7997082E-001  0.2707083E+03  0.7818608E-02  0.1100875E+00
         -2   -1    0    0    0  501 -0.00000000000E+00  0.00000000000E+00  0.10984364853E+02  0.10984364853E+02  0.00000000000E+00 0. -1.
          2   -1    0    0  501    0  0.00000000000E+00 -0.00000000000E+00 -0.16678924577E+04  0.16678924577E+04  0.00000000000E+00 0. -1.
         35    2    1    2    0    0  0.17763568394E-14 -0.71054273576E-14 -0.16569080929E+04  0.16788768226E+04  0.27070825101E+03 0.  0.
         25    2    3    3    0    0 -0.10151140985E+02  0.25464811647E+02 -0.10985590757E+04  0.11059662754E+04  0.12481128678E+03 0.  0.
         25    2    3    3    0    0  0.10151140985E+02 -0.25464811647E+02 -0.55834901716E+03  0.57291054713E+03  0.12538487848E+03 0.  0.
          5    1    4    4  502    0  0.10595066736E+02  0.71744490783E+01 -0.96633838179E+01  0.16709253291E+02  0.47000000000E+01 0. -1.
         -5    1    4    4    0  502 -0.20746207721E+02  0.18290362569E+02 -0.10888956919E+04  0.10892570221E+04  0.47000000000E+01 0. -1.
          5    1    5    5  503    0  0.41002284424E+02 -0.58666649054E+02 -0.44503082936E+03  0.45077432504E+03  0.47000000000E+01 0. -1.
         -5    1    5    5    0  503 -0.30851143439E+02  0.33201837406E+02 -0.11331818781E+03  0.12213622209E+03  0.47000000000E+01 0. -1.
<mgrwt>
<rscale>  0 0.27070825E+03</rscale>
<asrwt>0</asrwt>
<pdfrwt beam="1">  1        2 0.25659898E+00 0.27070825E+03</pdfrwt>
<pdfrwt beam="2">  1       -2 0.16899014E-02 0.27070825E+03</pdfrwt>
<totfact> 0.10999468E+04</totfact>
</mgrwt>
</event>
<event>
 9    1  0.7997082E-001  0.2686107E+03  0.7818608E-02  0.1102077E+00
          1   -1    0    0  501    0  0.00000000000E+00  0.00000000000E+00  0.10871593319E+03  0.10871593319E+03  0.00000000000E+00 0.  1.
         -1   -1    0    0    0  501 -0.00000000000E+00 -0.00000000000E+00 -0.16591798081E+03  0.16591798081E+03  0.00000000000E+00 0.  1.
         35    2    1    2    0    0 -0.35527136788E-14  0.00000000000E+00 -0.57202047616E+02  0.27463391400E+03  0.26861070802E+03 0.  0.
         25    2    3    3    0    0  0.27761057202E+01  0.34573997285E+02 -0.62941960889E+02  0.14441491797E+03  0.12526336272E+03 0.  0.
         25    2    3    3    0    0 -0.27761057202E+01 -0.34573997285E+02  0.57399132725E+01  0.13021899603E+03  0.12538330140E+03 0.  0.
          5    1    4    4  502    0  0.37517233571E+02  0.72120814787E+01 -0.86072727579E+02  0.94287652251E+02  0.47000000000E+01 0. -1.
         -5    1    4    4    0  502 -0.34741127851E+02  0.27361915806E+02  0.23130766690E+02  0.50127265720E+02  0.47000000000E+01 0. -1.
          5    1    5    5  503    0  0.28968567373E+02  0.38197864674E+02 -0.98636033032E+01  0.49169456285E+02  0.47000000000E+01 0.  1.
         -5    1    5    5    0  503 -0.31744673093E+02 -0.72771861958E+02  0.15603516576E+02  0.81049539741E+02  0.47000000000E+01 0.  1.
<mgrwt>
<rscale>  0 0.26861071E+03</rscale>
<asrwt>0</asrwt>
<pdfrwt beam="1">  1        1 0.16725528E-01 0.26861071E+03</pdfrwt>
<pdfrwt beam="2">  1       -1 0.25525843E-01 0.26861071E+03</pdfrwt>
<totfact> 0.43076413E+03</totfact>
</mgrwt>
</event>
<event>
 9    1  0.7997082E-001  0.2735298E+03  0.7818608E-02  0.1099276E+00
         -4   -1    0    0    0  501 -0.00000000000E+00  0.00000000000E+00  0.43729712091E+02  0.43729712091E+02  0.00000000000E+00 0. -1.
          4   -1    0    0  501    0  0.00000000000E+00 -0.00000000000E+00 -0.42773280539E+03  0.42773280539E+03  0.00000000000E+00 0. -1.
         35    2    1    2    0    0 -0.35527136788E-14 -0.17763568394E-14 -0.38400309330E+03  0.47146251748E+03  0.27352976022E+03 0.  0.
         25    2    3    3    0    0  0.24238422819E+02  0.14052836778E+02 -0.27544210713E+03  0.30383703560E+03  0.12515433058E+03 0.  0.
         25    2    3    3    0    0 -0.24238422819E+02 -0.14052836778E+02 -0.10856098617E+03  0.16762548187E+03  0.12461071821E+03 0.  0.
          5    1    4    4  502    0  0.43409152766E+02 -0.41678760251E+02 -0.19415888603E+03  0.20332544510E+03  0.47000000000E+01 0.  1.
         -5    1    4    4    0  502 -0.19170729947E+02  0.55731597029E+02 -0.81283221097E+02  0.10051159051E+03  0.47000000000E+01 0.  1.
          5    1    5    5  503    0  0.57246000213E+01 -0.19335480603E+02 -0.12901377781E+03  0.13066474934E+03  0.47000000000E+01 0. -1.
         -5    1    5    5    0  503 -0.29963022840E+02  0.52826438250E+01  0.20452791641E+02  0.36960732534E+02  0.47000000000E+01 0. -1.
<mgrwt>
<rscale>  0 0.27352976E+03</rscale>
<asrwt>0</asrwt>
<pdfrwt beam="1">  1        4 0.65805046E-01 0.27352976E+03</pdfrwt>
<pdfrwt beam="2">  1       -4 0.67276481E-02 0.27352976E+03</pdfrwt>
<totfact> 0.60020123E+02</totfact>
</mgrwt>
</event>
<event>
 9    1  0.7997082E-001  0.2741090E+03  0.7818608E-02  0.1098951E+00
         -2   -1    0    0    0  501 -0.00000000000E+00  0.00000000000E+00  0.19626656113E+03  0.19626656113E+03  0.00000000000E+00 0.  1.
          2   -1    0    0  501    0  0.00000000000E+00 -0.00000000000E+00 -0.95706253486E+02  0.95706253486E+02  0.00000000000E+00 0.  1.
         35    2    1    2    0    0  0.35527136788E-14  0.00000000000E+00  0.10056030765E+03  0.29197281462E+03  0.27410900934E+03 0.  0.
         25    2    3    3    0    0  0.17972299039E+02 -0.51822235858E+02  0.64799600390E+02  0.15139715286E+03  0.12535374754E+03 0.  0.
         25    2    3    3    0    0 -0.17972299039E+02  0.51822235858E+02  0.35760707260E+02  0.14057566176E+03  0.12439509971E+03 0.  0.
          5    1    4    4  502    0  0.12575335937E+02  0.39948459662E+01  0.89032310587E+02  0.90127355430E+02  0.47000000000E+01 0.  1.
         -5    1    4    4    0  502  0.53969631024E+01 -0.55817081824E+02 -0.24232710198E+02  0.61269797434E+02  0.47000000000E+01 0.  1.
          5    1    5    5  503    0  0.46963916072E+01  0.68798796200E+02  0.68307518358E+02  0.97176836319E+02  0.47000000000E+01 0.  1.
         -5    1    5    5    0  503 -0.22668690646E+02 -0.16976560343E+02 -0.32546811099E+02  0.43398825438E+02  0.47000000000E+01 0.  1.
<mgrwt>
<rscale>  0 0.27410901E+03</rscale>
<asrwt>0</asrwt>
<pdfrwt beam="1">  1        2 0.14724039E-01 0.27410901E+03</pdfrwt>
<pdfrwt beam="2">  1       -2 0.30194855E-01 0.27410901E+03</pdfrwt>
<totfact> 0.40039629E+03</totfact>
</mgrwt>
</event>
<event>
 9    1  0.7997082E-001  0.2735201E+03  0.7818608E-02  0.1099282E+00
         -2   -1    0    0    0  501 -0.00000000000E+00  0.00000000000E+00  0.13657552742E+02  0.13657552742E+02  0.00000000000E+00 0. -1.
          2   -1    0    0  501    0  0.00000000000E+00 -0.00000000000E+00 -0.13694485173E+04  0.13694485173E+04  0.00000000000E+00 0. -1.
         35    2    1    2    0    0  0.71054273576E-14 -0.71054273576E-14 -0.13557909646E+04  0.13831060701E+04  0.27352012981E+03 0.  0.
         25    2    3    3    0    0 -0.22157107701E+02  0.12356431389E+02 -0.93028551575E+03  0.93905797181E+03  0.12551938012E+03 0.  0.
         25    2    3    3    0    0  0.22157107701E+02 -0.12356431389E+02 -0.42550544884E+03  0.44404809826E+03  0.12441948304E+03 0.  0.
          5    1    4    4  502    0  0.46177023017E+02 -0.15729099167E+02 -0.25016205135E+03  0.25491736690E+03  0.47000000000E+01 0. -1.
         -5    1    4    4    0  502 -0.68334130718E+02  0.28085530556E+02 -0.68012346440E+03  0.68414060490E+03  0.47000000000E+01 0. -1.
          5    1    5    5  503    0 -0.32830813926E+01 -0.54831461887E+02 -0.95130470436E+02  0.10995073552E+03  0.47000000000E+01 0. -1.
         -5    1    5    5    0  503  0.25440189093E+02  0.42475030498E+02 -0.33037497840E+03  0.33409736274E+03  0.47000000000E+01 0. -1.
<mgrwt>
<rscale>  0 0.27352013E+03</rscale>
<asrwt>0</asrwt>
<pdfrwt beam="1">  1        2 0.21068446E+00 0.27352013E+03</pdfrwt>
<pdfrwt beam="2">  1       -2 0.21011612E-02 0.27352013E+03</pdfrwt>
<totfact> 0.11537448E+04</totfact>
</mgrwt>
</event>
<event>
 9    1  0.7997082E-001  0.2749502E+03  0.7818608E-02  0.1098479E+00
         -2   -1    0    0    0  501 -0.00000000000E+00  0.00000000000E+00  0.59403802798E+02  0.59403802798E+02  0.00000000000E+00 0. -1.
          2   -1    0    0  501    0  0.00000000000E+00 -0.00000000000E+00 -0.31815129533E+03  0.31815129533E+03  0.00000000000E+00 0. -1.
         35    2    1    2    0    0  0.00000000000E+00 -0.17763568394E-14 -0.25874749253E+03  0.37755509813E+03  0.27495015408E+03 0.  0.
         25    2    3    3    0    0  0.28779084326E+02  0.11751087140E+02 -0.63926178232E+02  0.14346825110E+03  0.12462046007E+03 0.  0.
         25    2    3    3    0    0 -0.28779084326E+02 -0.11751087140E+02 -0.19482131430E+03  0.23408684702E+03  0.12599596700E+03 0.  0.
          5    1    4    4  502    0  0.48691014326E+02  0.88345404238E+01 -0.94376649454E+02  0.10666726744E+03  0.47000000000E+01 0. -1.
         -5    1    4    4    0  502 -0.19911930000E+02  0.29165467159E+01  0.30450471222E+02  0.36800983665E+02  0.47000000000E+01 0. -1.
          5    1    5    5  503    0  0.24277157328E+02  0.19587635692E+02 -0.16014709798E+03  0.16322450438E+03  0.47000000000E+01 0. -1.
         -5    1    5    5    0  503 -0.53056241654E+02 -0.31338722832E+02 -0.34674216320E+02  0.70862342641E+02  0.47000000000E+01 0. -1.
<mgrwt>
<rscale>  0 0.27495015E+03</rscale>
<asrwt>0</asrwt>
<pdfrwt beam="1">  1        2 0.48946353E-01 0.27495015E+03</pdfrwt>
<pdfrwt beam="2">  1       -2 0.91390465E-02 0.27495015E+03</pdfrwt>
<totfact> 0.77989256E+03</totfact>
</mgrwt>
</event>
<event>
 9    1  0.7997082E-001  0.2762471E+03  0.7818608E-02  0.1097757E+00
          2   -1    0    0  501    0  0.00000000000E+00  0.00000000000E+00  0.12454982428E+04  0.12454982428E+04  0.00000000000E+00 0. -1.
         -2   -1    0    0    0  501 -0.00000000000E+00 -0.00000000000E+00 -0.15317661989E+02  0.15317661989E+02  0.00000000000E+00 0. -1.
         35    2    1    2    0    0  0.14210854715E-13  0.17763568394E-14  0.12301805808E+04  0.12608159048E+04  0.27624714364E+03 0.  0.
         25    2    3    3    0    0  0.34284387805E+02  0.51209208576E+01  0.83567718547E+03  0.84557643617E+03  0.12426386446E+03 0.  0.
         25    2    3    3    0    0 -0.34284387805E+02 -0.51209208576E+01  0.39450339536E+03  0.41523946864E+03  0.12485689524E+03 0.  0.
          5    1    4    4  502    0 -0.10095853494E+02 -0.11226525692E+02  0.72442002869E+03  0.72459259525E+03  0.47000000000E+01 0. -1.
         -5    1    4    4    0  502  0.44380241299E+02  0.16347446550E+02  0.11125715678E+03  0.12098384091E+03  0.47000000000E+01 0. -1.
          5    1    5    5  503    0  0.37672807844E+02 -0.26601041407E+02  0.86055872724E+02  0.97747424954E+02  0.47000000000E+01 0. -1.
         -5    1    5    5    0  503 -0.71957195649E+02  0.21480120549E+02  0.30844752263E+03  0.31749204369E+03  0.47000000000E+01 0. -1.
<mgrwt>
<rscale>  0 0.27624714E+03</rscale>
<asrwt>0</asrwt>
<pdfrwt beam="1">  1        2 0.19161503E+00 0.27624714E+03</pdfrwt>
<pdfrwt beam="2">  1       -2 0.23565644E-02 0.27624714E+03</pdfrwt>
<totfact> 0.11409870E+04</totfact>
</mgrwt>
</event>
<event>
 9    1  0.7997082E-001  0.2669681E+03  0.7818608E-02  0.1103027E+00
         -2   -1    0    0    0  501 -0.00000000000E+00  0.00000000000E+00  0.24285334897E+02  0.24285334897E+02  0.00000000000E+00 0.  1.
          2   -1    0    0  501    0  0.00000000000E+00 -0.00000000000E+00 -0.73369356555E+03  0.73369356555E+03  0.00000000000E+00 0.  1.
         35    2    1    2    0    0 -0.14210854715E-13  0.00000000000E+00 -0.70940823066E+03  0.75797890045E+03  0.26696811758E+03 0.  0.
         25    2    3    3    0    0 -0.29710296505E+02  0.38285425135E+02 -0.35230374200E+03  0.37682371010E+03  0.12461824251E+03 0.  0.
         25    2    3    3    0    0  0.29710296505E+02 -0.38285425135E+02 -0.35710448866E+03  0.38115519035E+03  0.12412569363E+03 0.  0.
          5    1    4    4  502    0 -0.67622020049E+02  0.55030903341E+02 -0.28060589449E+03  0.29387564707E+03  0.47000000000E+01 0. -1.
         -5    1    4    4    0  502  0.37911723544E+02 -0.16745478206E+02 -0.71697847512E+02  0.82948063029E+02  0.47000000000E+01 0. -1.
          5    1    5    5  503    0  0.76567355436E+02 -0.38805658624E+02 -0.24022552874E+03  0.25514473092E+03  0.47000000000E+01 0.  1.
         -5    1    5    5    0  503 -0.46857058931E+02  0.52023348914E+00 -0.11687895992E+03  0.12601045943E+03  0.47000000000E+01 0.  1.
<mgrwt>
<rscale>  0 0.26696812E+03</rscale>
<asrwt>0</asrwt>
<pdfrwt beam="1">  1        2 0.11287591E+00 0.26696812E+03</pdfrwt>
<pdfrwt beam="2">  1       -2 0.37362060E-02 0.26696812E+03</pdfrwt>
<totfact> 0.11992316E+04</totfact>
</mgrwt>
</event>
<event>
 9    1  0.7997082E-001  0.2755888E+03  0.7818608E-02  0.1098123E+00
         -2   -1    0    0    0  501 -0.00000000000E+00  0.00000000000E+00  0.61853833290E+01  0.61853833290E+01  0.00000000000E+00 0. -1.
          2   -1    0    0  501    0  0.00000000000E+00 -0.00000000000E+00 -0.30697044989E+04  0.30697044989E+04  0.00000000000E+00 0. -1.
         35    2    1    2    0    0  0.00000000000E+00  0.35527136788E-14 -0.30635191155E+04  0.30758898822E+04  0.27558881713E+03 0.  0.
         25    2    3    3    0    0 -0.45139243088E+02  0.25599240052E+02 -0.18695433007E+04  0.18743352457E+04  0.12348112209E+03 0.  0.
         25    2    3    3    0    0  0.45139243088E+02 -0.25599240052E+02 -0.11939758148E+04  0.12015546365E+04  0.12434800298E+03 0.  0.
          5    1    4    4  502    0  0.99483869421E+01  0.52234749869E+02 -0.13695297947E+04  0.13705697312E+04  0.47000000000E+01 0.  1.
         -5    1    4    4    0  502 -0.55087630030E+02 -0.26635509817E+02 -0.50001350604E+03  0.50376551449E+03  0.47000000000E+01 0.  1.
          5    1    5    5  503    0  0.60562142434E+02  0.35937095767E+02 -0.68185217644E+03  0.68549524321E+03  0.47000000000E+01 0.  1.
         -5    1    5    5    0  503 -0.15422899345E+02 -0.61536335818E+02 -0.51212363835E+03  0.51605939330E+03  0.47000000000E+01 0.  1.
<mgrwt>
<rscale>  0 0.27558882E+03</rscale>
<asrwt>0</asrwt>
<pdfrwt beam="1">  1        2 0.47226224E+00 0.27558882E+03</pdfrwt>
<pdfrwt beam="2">  1       -2 0.95159742E-03 0.27558882E+03</pdfrwt>
<totfact> 0.43380732E+03</totfact>
</mgrwt>
</event>
<event>
 9    1  0.7997082E-001  0.2742318E+03  0.7818608E-02  0.1098882E+00
         -1   -1    0    0    0  501 -0.00000000000E+00  0.00000000000E+00  0.40416796300E+02  0.40416796300E+02  0.00000000000E+00 0.  1.
          1   -1    0    0  501    0  0.00000000000E+00 -0.00000000000E+00 -0.46517229375E+03  0.46517229375E+03  0.00000000000E+00 0.  1.
         35    2    1    2    0    0  0.00000000000E+00  0.35527136788E-14 -0.42475549745E+03  0.50558909005E+03  0.27423182777E+03 0.  0.
         25    2    3    3    0    0 -0.47231159391E+02  0.29564161930E+02 -0.18591079214E+03  0.23045230876E+03  0.12426029893E+03 0.  0.
         25    2    3    3    0    0  0.47231159391E+02 -0.29564161930E+02 -0.23884470532E+03  0.27513678130E+03  0.12469415815E+03 0.  0.
          5    1    4    4  502    0  0.24782294053E+02 -0.27735451098E+02 -0.25118199329E+02  0.45126835516E+02  0.47000000000E+01 0. -1.
         -5    1    4    4    0  502 -0.72013453445E+02  0.57299613028E+02 -0.16079259281E+03  0.18532547324E+03  0.47000000000E+01 0. -1.
          5    1    5    5  503    0  0.36099995062E+01 -0.66640831780E+02 -0.70187567180E+02  0.96966061812E+02  0.47000000000E+01 0. -1.
         -5    1    5    5    0  503  0.43621159885E+02  0.37076669850E+02 -0.16865713814E+03  0.17817071948E+03  0.47000000000E+01 0. -1.
<mgrwt>
<rscale>  0 0.27423183E+03</rscale>
<asrwt>0</asrwt>
<pdfrwt beam="1">  1        1 0.71564970E-01 0.27423183E+03</pdfrwt>
<pdfrwt beam="2">  1       -1 0.62179685E-02 0.27423183E+03</pdfrwt>
<totfact> 0.62597421E+03</totfact>
</mgrwt>
</event>
<event>
 9    1  0.7997082E-001  0.2807613E+03  0.7818608E-02  0.1095274E+00
         -1   -1    0    0    0  501 -0.00000000000E+00  0.00000000000E+00  0.13723981366E+04  0.13723981366E+04  0.00000000000E+00 0. -1.
          1   -1    0    0  501    0  0.00000000000E+00 -0.00000000000E+00 -0.14359341047E+02  0.14359341047E+02  0.00000000000E+00 0. -1.
         35    2    1    2    0    0  0.00000000000E+00  0.71054273576E-14  0.13580387955E+04  0.13867574776E+04  0.28076134275E+03 0.  0.
         25    2    3    3    0    0  0.46536704273E+02 -0.27728390004E+02  0.85031566723E+03  0.86110846692E+03  0.12464561531E+03 0.  0.
         25    2    3    3    0    0 -0.46536704273E+02  0.27728390004E+02  0.50772312828E+03  0.52564901068E+03  0.12485823554E+03 0.  0.
          5    1    4    4  502    0 -0.92485383745E+01  0.34512054741E+02  0.10307577492E+03  0.10919396851E+03  0.47000000000E+01 0. -1.
         -5    1    4    4    0  502  0.55785242647E+02 -0.62240444745E+02  0.74723989231E+03  0.75191449841E+03  0.47000000000E+01 0. -1.
          5    1    5    5  503    0 -0.83805896697E+02 -0.25918838003E+01  0.37847922754E+03  0.38768384266E+03  0.47000000000E+01 0. -1.
         -5    1    5    5    0  503  0.37269192424E+02  0.30320273804E+02  0.12924390075E+03  0.13796516802E+03  0.47000000000E+01 0. -1.
<mgrwt>
<rscale>  0 0.28076134E+03</rscale>
<asrwt>0</asrwt>
<pdfrwt beam="1">  1        1 0.22091305E-02 0.28076134E+03</pdfrwt>
<pdfrwt beam="2">  1       -1 0.21113807E+00 0.28076134E+03</pdfrwt>
<totfact> 0.74033691E+02</totfact>
</mgrwt>
</event>
<event>
 9    1  0.7997082E-001  0.2753317E+03  0.7818608E-02  0.1098266E+00
         -2   -1    0    0    0  501 -0.00000000000E+00  0.00000000000E+00  0.30858045146E+02  0.30858045146E+02  0.00000000000E+00 0. -1.
          2   -1    0    0  501    0  0.00000000000E+00 -0.00000000000E+00 -0.61416343019E+03  0.61416343019E+03  0.00000000000E+00 0. -1.
         35    2    1    2    0    0  0.17763568394E-14  0.71054273576E-14 -0.58330538505E+03  0.64502147534E+03  0.27533167530E+03 0.  0.
         25    2    3    3    0    0 -0.93314396369E+01 -0.46945221253E+02 -0.36508572804E+03  0.38922246402E+03  0.12615707713E+03 0.  0.
         25    2    3    3    0    0  0.93314396369E+01  0.46945221253E+02 -0.21821965701E+03  0.25579901132E+03  0.12458886758E+03 0.  0.
          5    1    4    4  502    0 -0.18201644214E+02 -0.76834034704E+02 -0.13104489784E+03  0.15306738382E+03  0.47000000000E+01 0.  1.
         -5    1    4    4    0  502  0.88702045768E+01  0.29888813451E+02 -0.23404083020E+03  0.23615508019E+03  0.47000000000E+01 0.  1.
          5    1    5    5  503    0  0.19815276496E+02 -0.39735559454E+01 -0.19914674336E+03  0.20022474802E+03  0.47000000000E+01 0.  1.
         -5    1    5    5    0  503 -0.10483836859E+02  0.50918777199E+02 -0.19072913648E+02  0.55574263304E+02  0.47000000000E+01 0.  1.
<mgrwt>
<rscale>  0 0.27533168E+03</rscale>
<asrwt>0</asrwt>
<pdfrwt beam="1">  1        2 0.94486686E-01 0.27533168E+03</pdfrwt>
<pdfrwt beam="2">  1       -2 0.47473913E-02 0.27533168E+03</pdfrwt>
<totfact> 0.10355162E+04</totfact>
</mgrwt>
</event>
<event>
 9    1  0.7997082E-001  0.2734655E+03  0.7818608E-02  0.1099312E+00
         -1   -1    0    0    0  501 -0.00000000000E+00  0.00000000000E+00  0.31816864821E+02  0.31816864821E+02  0.00000000000E+00 0.  1.
          1   -1    0    0  501    0  0.00000000000E+00 -0.00000000000E+00 -0.58760806298E+03  0.58760806298E+03  0.00000000000E+00 0.  1.
         35    2    1    2    0    0  0.00000000000E+00  0.00000000000E+00 -0.55579119816E+03  0.61942492780E+03  0.27346551013E+03 0.  0.
         25    2    3    3    0    0  0.21068392043E+02  0.49588313472E+02 -0.30270574453E+03  0.33204732023E+03  0.12538651093E+03 0.  0.
         25    2    3    3    0    0 -0.21068392043E+02 -0.49588313472E+02 -0.25308545364E+03  0.28737760758E+03  0.12502305595E+03 0.  0.
          5    1    4    4  502    0  0.73387005024E+02  0.20477823030E+02 -0.17506195858E+03  0.19098108043E+03  0.47000000000E+01 0.  1.
         -5    1    4    4    0  502 -0.52318612981E+02  0.29110490442E+02 -0.12764378595E+03  0.14106623979E+03  0.47000000000E+01 0.  1.
          5    1    5    5  503    0  0.11353440785E+02  0.28639893956E+02 -0.15322520164E+03  0.15636238858E+03  0.47000000000E+01 0.  1.
         -5    1    5    5    0  503 -0.32421832827E+02 -0.78228207428E+02 -0.99860251993E+02  0.13101521900E+03  0.47000000000E+01 0.  1.
<mgrwt>
<rscale>  0 0.27346551E+03</rscale>
<asrwt>0</asrwt>
<pdfrwt beam="1">  1        1 0.90401248E-01 0.27346551E+03</pdfrwt>
<pdfrwt beam="2">  1       -1 0.48949019E-02 0.27346551E+03</pdfrwt>
<totfact> 0.65536501E+03</totfact>
</mgrwt>
</event>
<event>
 9    1  0.7997082E-001  0.2763752E+03  0.7818608E-02  0.1097685E+00
         -1   -1    0    0    0  501 -0.00000000000E+00  0.00000000000E+00  0.62346863961E+03  0.62346863961E+03  0.00000000000E+00 0.  1.
          1   -1    0    0  501    0  0.00000000000E+00 -0.00000000000E+00 -0.30628356300E+02  0.30628356300E+02  0.00000000000E+00 0.  1.
         35    2    1    2    0    0  0.00000000000E+00  0.00000000000E+00  0.59284028331E+03  0.65409699591E+03  0.27637524951E+03 0.  0.
         25    2    3    3    0    0  0.31642746301E+02 -0.32829709876E+02  0.38911052975E+03  0.41117358406E+03  0.12481049082E+03 0.  0.
         25    2    3    3    0    0 -0.31642746301E+02  0.32829709876E+02  0.20372975357E+03  0.24292341186E+03  0.12420514602E+03 0.  0.
          5    1    4    4  502    0  0.79163350504E+02 -0.12566758012E+02  0.21517125671E+03  0.22966392660E+03  0.47000000000E+01 0.  1.
         -5    1    4    4    0  502 -0.47520604203E+02 -0.20262951864E+02  0.17393927304E+03  0.18150965745E+03  0.47000000000E+01 0.  1.
          5    1    5    5  503    0  0.45575856443E+02 -0.96154735834E+00  0.93052639890E+02  0.10372544073E+03  0.47000000000E+01 0. -1.
         -5    1    5    5    0  503 -0.77218602743E+02  0.33791257234E+02  0.11067711368E+03  0.13919797113E+03  0.47000000000E+01 0. -1.
<mgrwt>
<rscale>  0 0.27637525E+03</rscale>
<asrwt>0</asrwt>
<pdfrwt beam="1">  1        1 0.47120553E-02 0.27637525E+03</pdfrwt>
<pdfrwt beam="2">  1       -1 0.95918243E-01 0.27637525E+03</pdfrwt>
<totfact> 0.19971309E+03</totfact>
</mgrwt>
</event>
<event>
 9    1  0.7997082E-001  0.2763101E+03  0.7818608E-02  0.1097722E+00
          2   -1    0    0  501    0  0.00000000000E+00  0.00000000000E+00  0.73211717243E+03  0.73211717243E+03  0.00000000000E+00 0. -1.
         -2   -1    0    0    0  501 -0.00000000000E+00 -0.00000000000E+00 -0.26070711199E+02  0.26070711199E+02  0.00000000000E+00 0. -1.
         35    2    1    2    0    0  0.00000000000E+00  0.00000000000E+00  0.70604646123E+03  0.75818788362E+03  0.27631008209E+03 0.  0.
         25    2    3    3    0    0  0.31322011720E+02 -0.99641636103E+01  0.19588253090E+03  0.23129152496E+03  0.11851350400E+03 0.  0.
         25    2    3    3    0    0 -0.31322011720E+02  0.99641636103E+01  0.51016393033E+03  0.52689635867E+03  0.12756247095E+03 0.  0.
          5    1    4    4  502    0  0.51862910630E+02  0.14053205371E+02  0.28729853142E+02  0.61112589062E+02  0.47000000000E+01 0.  1.
         -5    1    4    4    0  502 -0.20540898911E+02 -0.24017368981E+02  0.16715267776E+03  0.17017893589E+03  0.47000000000E+01 0.  1.
          5    1    5    5  503    0  0.26620733055E+02 -0.12970349409E+02  0.29074454691E+02  0.41764905217E+02  0.47000000000E+01 0.  1.
         -5    1    5    5    0  503 -0.57942744775E+02  0.22934513020E+02  0.48108947564E+03  0.48513145345E+03  0.47000000000E+01 0.  1.
<mgrwt>
<rscale>  0 0.27631008E+03</rscale>
<asrwt>0</asrwt>
<pdfrwt beam="1">  1        2 0.11263340E+00 0.27631008E+03</pdfrwt>
<pdfrwt beam="2">  1       -2 0.40108792E-02 0.27631008E+03</pdfrwt>
<totfact> 0.10822801E+04</totfact>
</mgrwt>
</event>
<event>
 9    1  0.7997082E-001  0.2779840E+03  0.7818608E-02  0.1096795E+00
         -3   -1    0    0    0  501 -0.00000000000E+00  0.00000000000E+00  0.94491750143E+02  0.94491750143E+02  0.00000000000E+00 0.  1.
          3   -1    0    0  501    0  0.00000000000E+00 -0.00000000000E+00 -0.20444931192E+03  0.20444931192E+03  0.00000000000E+00 0.  1.
         35    2    1    2    0    0 -0.71054273576E-14  0.35527136788E-14 -0.10995756178E+03  0.29894106206E+03  0.27798398010E+03 0.  0.
         25    2    3    3    0    0 -0.35997136614E+02  0.27940186405E+02 -0.95114633626E+02  0.16454419206E+03  0.12629944477E+03 0.  0.
         25    2    3    3    0    0  0.35997136614E+02 -0.27940186405E+02 -0.14842928150E+02  0.13439687000E+03  0.12556177081E+03 0.  0.
          5    1    4    4  502    0  0.17309717858E+02 -0.40152525577E+02 -0.51031201715E+02  0.67365608369E+02  0.47000000000E+01 0. -1.
         -5    1    4    4    0  502 -0.53306854472E+02  0.68092711981E+02 -0.44083431911E+02  0.97178583689E+02  0.47000000000E+01 0. -1.
          5    1    5    5  503    0  0.62769377347E+02 -0.54383882532E+02  0.16969552627E+02  0.84897921813E+02  0.47000000000E+01 0. -1.
         -5    1    5    5    0  503 -0.26772240733E+02  0.26443696127E+02 -0.31812480777E+02  0.49498948190E+02  0.47000000000E+01 0. -1.
<mgrwt>
<rscale>  0 0.27798398E+03</rscale>
<asrwt>0</asrwt>
<pdfrwt beam="1">  1        3 0.31453740E-01 0.27798398E+03</pdfrwt>
<pdfrwt beam="2">  1       -3 0.14537192E-01 0.27798398E+03</pdfrwt>
<totfact> 0.98024402E+02</totfact>
</mgrwt>
</event>
<event>
 9    1  0.7997082E-001  0.2722522E+03  0.7818608E-02  0.1099997E+00
         -2   -1    0    0    0  501 -0.00000000000E+00  0.00000000000E+00  0.48764749763E+02  0.48764749763E+02  0.00000000000E+00 0.  1.
          2   -1    0    0  501    0  0.00000000000E+00 -0.00000000000E+00 -0.37999403566E+03  0.37999403566E+03  0.00000000000E+00 0.  1.
         35    2    1    2    0    0  0.00000000000E+00 -0.71054273576E-14 -0.33122928590E+03  0.42875878543E+03  0.27225219236E+03 0.  0.
         25    2    3    3    0    0 -0.16225723098E+01 -0.54420687975E+02 -0.18862240732E+03  0.23186126727E+03  0.12335716717E+03 0.  0.
         25    2    3    3    0    0  0.16225723098E+01  0.54420687975E+02 -0.14260687858E+03  0.19689751816E+03  0.12436907501E+03 0.  0.
          5    1    4    4  502    0  0.47498938525E+02 -0.57301861362E+02 -0.65762434749E+02  0.99430580310E+02  0.47000000000E+01 0.  1.
         -5    1    4    4    0  502 -0.49121510835E+02  0.28811733869E+01 -0.12285997258E+03  0.13243068696E+03  0.47000000000E+01 0.  1.
          5    1    5    5  503    0 -0.54356408204E+02  0.29491802660E+02 -0.30648294584E+02  0.69179429731E+02  0.47000000000E+01 0. -1.
         -5    1    5    5    0  503  0.55978980514E+02  0.24928885315E+02 -0.11195858399E+03  0.12771808843E+03  0.47000000000E+01 0. -1.
<mgrwt>
<rscale>  0 0.27225219E+03</rscale>
<asrwt>0</asrwt>
<pdfrwt beam="1">  1        2 0.58460619E-01 0.27225219E+03</pdfrwt>
<pdfrwt beam="2">  1       -2 0.75022694E-02 0.27225219E+03</pdfrwt>
<totfact> 0.87670291E+03</totfact>
</mgrwt>
</event>
<event>
 9    1  0.7997082E-001  0.2641249E+03  0.7818608E-02  0.1104690E+00
         -2   -1    0    0    0  501 -0.00000000000E+00  0.00000000000E+00  0.20870584989E+02  0.20870584989E+02  0.00000000000E+00 0. -1.
          2   -1    0    0  501    0  0.00000000000E+00 -0.00000000000E+00 -0.83564938632E+03  0.83564938632E+03  0.00000000000E+00 0. -1.
         35    2    1    2    0    0 -0.71054273576E-14 -0.35527136788E-14 -0.81477880133E+03  0.85651997131E+03  0.26412490635E+03 0.  0.
         25    2    3    3    0    0 -0.30217270396E+02 -0.28468646033E+01 -0.32129507278E+03  0.34618735784E+03  0.12527559568E+03 0.  0.
         25    2    3    3    0    0  0.30217270396E+02  0.28468646033E+01 -0.49348372855E+03  0.51033261347E+03  0.12645947157E+03 0.  0.
          5    1    4    4  502    0 -0.23442095789E+02 -0.57063451853E+02 -0.95211840797E+02  0.11354802517E+03  0.47000000000E+01 0.  1.
         -5    1    4    4    0  502 -0.67751746068E+01  0.54216587250E+02 -0.22608323198E+03  0.23263933267E+03  0.47000000000E+01 0.  1.
          5    1    5    5  503    0  0.74957363626E+02 -0.22226191556E+02 -0.28287326987E+03  0.29351658685E+03  0.47000000000E+01 0.  1.
         -5    1    5    5    0  503 -0.44740093230E+02  0.25073056159E+02 -0.21061045869E+03  0.21681602661E+03  0.47000000000E+01 0.  1.
<mgrwt>
<rscale>  0 0.26412491E+03</rscale>
<asrwt>0</asrwt>
<pdfrwt beam="1">  1        2 0.12856145E+00 0.26412491E+03</pdfrwt>
<pdfrwt beam="2">  1       -2 0.32108591E-02 0.26412491E+03</pdfrwt>
<totfact> 0.12758853E+04</totfact>
</mgrwt>
</event>
<event>
 9    1  0.7997082E-001  0.2818935E+03  0.7818608E-02  0.1094659E+00
          2   -1    0    0  501    0  0.00000000000E+00  0.00000000000E+00  0.41174943823E+04  0.41174943823E+04  0.00000000000E+00 0.  1.
         -2   -1    0    0    0  501 -0.00000000000E+00 -0.00000000000E+00 -0.48247754549E+01  0.48247754549E+01  0.00000000000E+00 0.  1.
         35    2    1    2    0    0  0.00000000000E+00 -0.35527136788E-14  0.41126696068E+04  0.41223191577E+04  0.28189349642E+03 0.  0.
         25    2    3    3    0    0 -0.67939659912E+02 -0.89193316938E+01  0.24315432553E+04  0.24357084265E+04  0.12481019474E+03 0.  0.
         25    2    3    3    0    0  0.67939659912E+02  0.89193316938E+01  0.16811263515E+04  0.16866107312E+04  0.11736522919E+03 0.  0.
          5    1    4    4  502    0 -0.10032659506E+03 -0.23315630265E+02  0.15394602444E+04  0.15429092580E+04  0.47000000000E+01 0. -1.
         -5    1    4    4    0  502  0.32386935150E+02  0.14396298571E+02  0.89208301094E+03  0.89279916856E+03  0.47000000000E+01 0. -1.
          5    1    5    5  503    0  0.12008196275E+02  0.44094200043E+02  0.26623496197E+03  0.27016965083E+03  0.47000000000E+01 0.  1.
         -5    1    5    5    0  503  0.55931463637E+02 -0.35174868350E+02  0.14148913895E+04  0.14164410804E+04  0.47000000000E+01 0.  1.
<mgrwt>
<rscale>  0 0.28189350E+03</rscale>
<asrwt>0</asrwt>
<pdfrwt beam="1">  1        2 0.63345787E+00 0.28189350E+03</pdfrwt>
<pdfrwt beam="2">  1       -2 0.74227644E-03 0.28189350E+03</pdfrwt>
<totfact> 0.11869354E+03</totfact>
</mgrwt>
</event>
<event>
 9    1  0.7997082E-001  0.2741554E+03  0.7818608E-02  0.1098925E+00
          2   -1    0    0  501    0  0.00000000000E+00  0.00000000000E+00  0.17772584386E+04  0.17772584386E+04  0.00000000000E+00 0.  1.
         -2   -1    0    0    0  501 -0.00000000000E+00 -0.00000000000E+00 -0.10572628635E+02  0.10572628635E+02  0.00000000000E+00 0.  1.
         35    2    1    2    0    0 -0.71054273576E-14 -0.35527136788E-14  0.17666858100E+04  0.17878310672E+04  0.27415538265E+03 0.  0.
         25    2    3    3    0    0  0.57586344897E+02 -0.14292286154E+02  0.68425000917E+03  0.69653828672E+03  0.11596143006E+03 0.  0.
         25    2    3    3    0    0 -0.57586344897E+02  0.14292286154E+02  0.10824358008E+04  0.10912927805E+04  0.12542812040E+03 0.  0.
          5    1    4    4  502    0  0.20488604236E+02  0.49892378193E+02  0.23239329417E+03  0.23861635627E+03  0.47000000000E+01 0.  1.
         -5    1    4    4    0  502  0.37097740661E+02 -0.64184664347E+02  0.45185671500E+03  0.45792193045E+03  0.47000000000E+01 0.  1.
          5    1    5    5  503    0 -0.45325942776E+02 -0.26713913187E+02  0.96098176744E+03  0.96243239846E+03  0.47000000000E+01 0.  1.
         -5    1    5    5    0  503 -0.12260402122E+02  0.41006199341E+02  0.12145403336E+03  0.12886038205E+03  0.47000000000E+01 0.  1.
<mgrwt>
<rscale>  0 0.27415538E+03</rscale>
<asrwt>0</asrwt>
<pdfrwt beam="1">  1        2 0.27342414E+00 0.27415538E+03</pdfrwt>
<pdfrwt beam="2">  1       -2 0.16265597E-02 0.27415538E+03</pdfrwt>
<totfact> 0.10191614E+04</totfact>
</mgrwt>
</event>
<event>
 9    1  0.7997082E-001  0.2763910E+03  0.7818608E-02  0.1097677E+00
         -1   -1    0    0    0  501 -0.00000000000E+00  0.00000000000E+00  0.13524400078E+03  0.13524400078E+03  0.00000000000E+00 0.  1.
          1   -1    0    0  501    0  0.00000000000E+00 -0.00000000000E+00 -0.14121139344E+03  0.14121139344E+03  0.00000000000E+00 0.  1.
         35    2    1    2    0    0 -0.14210854715E-13  0.35527136788E-14 -0.59673926622E+01  0.27645539422E+03  0.27639098252E+03 0.  0.
         25    2    3    3    0    0 -0.53468244189E+02  0.19133467530E+02 -0.22585673463E+02  0.13838346707E+03  0.12415687091E+03 0.  0.
         25    2    3    3    0    0  0.53468244189E+02 -0.19133467530E+02  0.16618280801E+02  0.13807192715E+03  0.12475073985E+03 0.  0.
          5    1    4    4  502    0  0.23007080644E+02 -0.19879692708E+02  0.25419643256E+02  0.39909600414E+02  0.47000000000E+01 0. -1.
         -5    1    4    4    0  502 -0.76475324833E+02  0.39013160238E+02 -0.48005316719E+02  0.98473866652E+02  0.47000000000E+01 0. -1.
          5    1    5    5  503    0  0.49339073805E+02  0.31151103302E+02 -0.32959672479E+02  0.67180097133E+02  0.47000000000E+01 0.  1.
         -5    1    5    5    0  503  0.41291703837E+01 -0.50284570831E+02  0.49577953280E+02  0.70891830017E+02  0.47000000000E+01 0.  1.
<mgrwt>
<rscale>  0 0.27639098E+03</rscale>
<asrwt>0</asrwt>
<pdfrwt beam="1">  1        1 0.21724830E-01 0.27639098E+03</pdfrwt>
<pdfrwt beam="2">  1       -1 0.20806769E-01 0.27639098E+03</pdfrwt>
<totfact> 0.43073393E+03</totfact>
</mgrwt>
</event>
<event>
 9    1  0.7997082E-001  0.2736645E+03  0.7818608E-02  0.1099200E+00
         -1   -1    0    0    0  501 -0.00000000000E+00  0.00000000000E+00  0.33991940007E+02  0.33991940007E+02  0.00000000000E+00 0.  1.
          1   -1    0    0  501    0  0.00000000000E+00 -0.00000000000E+00 -0.55080888430E+03  0.55080888430E+03  0.00000000000E+00 0.  1.
         35    2    1    2    0    0 -0.35527136788E-14 -0.71054273576E-14 -0.51681694429E+03  0.58480082431E+03  0.27366448473E+03 0.  0.
         25    2    3    3    0    0 -0.16708922381E+02 -0.33812408638E+02 -0.17959595525E+03  0.22223881716E+03  0.12535117727E+03 0.  0.
         25    2    3    3    0    0  0.16708922381E+02  0.33812408638E+02 -0.33722098904E+03  0.36256200715E+03  0.12771353301E+03 0.  0.
          5    1    4    4  502    0  0.50474162641E+02 -0.36274699634E+02 -0.10120628611E+03  0.11886251418E+03  0.47000000000E+01 0.  1.
         -5    1    4    4    0  502 -0.67183085021E+02  0.24622909963E+01 -0.78389669141E+02  0.10337630298E+03  0.47000000000E+01 0.  1.
          5    1    5    5  503    0  0.29222623201E+02 -0.38955015087E+02 -0.70801521393E+02  0.86060445843E+02  0.47000000000E+01 0.  1.
         -5    1    5    5    0  503 -0.12513700820E+02  0.72767423725E+02 -0.26641946765E+03  0.27650156131E+03  0.47000000000E+01 0.  1.
<mgrwt>
<rscale>  0 0.27366448E+03</rscale>
<asrwt>0</asrwt>
<pdfrwt beam="1">  1        1 0.84739820E-01 0.27366448E+03</pdfrwt>
<pdfrwt beam="2">  1       -1 0.52295298E-02 0.27366448E+03</pdfrwt>
<totfact> 0.64849108E+03</totfact>
</mgrwt>
</event>
<event>
 9    1  0.7997082E-001  0.2755434E+03  0.7818608E-02  0.1098148E+00
          1   -1    0    0  501    0  0.00000000000E+00  0.00000000000E+00  0.11920677590E+04  0.11920677590E+04  0.00000000000E+00 0.  1.
         -1   -1    0    0    0  501 -0.00000000000E+00 -0.00000000000E+00 -0.15922784345E+02  0.15922784345E+02  0.00000000000E+00 0.  1.
         35    2    1    2    0    0 -0.35527136788E-14  0.71054273576E-14  0.11761449746E+04  0.12079905433E+04  0.27554337481E+03 0.  0.
         25    2    3    3    0    0 -0.22715848399E+02 -0.39376876436E+02  0.75732527280E+03  0.76889529705E+03  0.12486737302E+03 0.  0.
         25    2    3    3    0    0  0.22715848399E+02  0.39376876436E+02  0.41881970182E+03  0.43909524626E+03  0.12380688384E+03 0.  0.
          5    1    4    4  502    0 -0.69660309513E+01 -0.82252905403E+02  0.57310805219E+03  0.57904144543E+03  0.47000000000E+01 0.  1.
         -5    1    4    4    0  502 -0.15749817448E+02  0.42876028967E+02  0.18421722061E+03  0.18985385163E+03  0.47000000000E+01 0.  1.
          5    1    5    5  503    0  0.71341879972E+02  0.37232931418E+02  0.29914364197E+03  0.30981440178E+03  0.47000000000E+01 0.  1.
         -5    1    5    5    0  503 -0.48626031573E+02  0.21439450183E+01  0.11967605986E+03  0.12928084448E+03  0.47000000000E+01 0.  1.
<mgrwt>
<rscale>  0 0.27554337E+03</rscale>
<asrwt>0</asrwt>
<pdfrwt beam="1">  1        1 0.18339497E+00 0.27554337E+03</pdfrwt>
<pdfrwt beam="2">  1       -1 0.24496601E-02 0.27554337E+03</pdfrwt>
<totfact> 0.59013904E+03</totfact>
</mgrwt>
</event>
<event>
 9    1  0.7997082E-001  0.2746882E+03  0.7818608E-02  0.1098626E+00
          2   -1    0    0  501    0  0.00000000000E+00  0.00000000000E+00  0.26391655209E+03  0.26391655209E+03  0.00000000000E+00 0.  1.
         -2   -1    0    0    0  501 -0.00000000000E+00 -0.00000000000E+00 -0.71474849959E+02  0.71474849959E+02  0.00000000000E+00 0.  1.
         35    2    1    2    0    0 -0.35527136788E-14  0.00000000000E+00  0.19244170213E+03  0.33539140205E+03  0.27468815746E+03 0.  0.
         25    2    3    3    0    0  0.24086628400E+02  0.13671345988E+02  0.32493874841E+02  0.13146875118E+03  0.12434270894E+03 0.  0.
         25    2    3    3    0    0 -0.24086628400E+02 -0.13671345988E+02  0.15994782729E+03  0.20392265086E+03  0.12342636960E+03 0.  0.
          5    1    4    4  502    0  0.29023081882E+02  0.96014922439E+01 -0.44430500529E+02  0.54135822821E+02  0.47000000000E+01 0. -1.
         -5    1    4    4    0  502 -0.49364534820E+01  0.40698537442E+01  0.76924375370E+02  0.77332928359E+02  0.47000000000E+01 0. -1.
          5    1    5    5  503    0 -0.20361838383E+02  0.45593718952E+02  0.12540828160E+03  0.13506560911E+03  0.47000000000E+01 0.  1.
         -5    1    5    5    0  503 -0.37247900175E+01 -0.59265064940E+02  0.34539545682E+02  0.68857041753E+02  0.47000000000E+01 0.  1.
<mgrwt>
<rscale>  0 0.27468816E+03</rscale>
<asrwt>0</asrwt>
<pdfrwt beam="1">  1        2 0.40602546E-01 0.27468816E+03</pdfrwt>
<pdfrwt beam="2">  1       -2 0.10996131E-01 0.27468816E+03</pdfrwt>
<totfact> 0.71057653E+03</totfact>
</mgrwt>
</event>
<event>
 9    1  0.7997082E-001  0.2694030E+03  0.7818608E-02  0.1101622E+00
         -2   -1    0    0    0  501 -0.00000000000E+00  0.00000000000E+00  0.14150555603E+03  0.14150555603E+03  0.00000000000E+00 0.  1.
          2   -1    0    0  501    0  0.00000000000E+00 -0.00000000000E+00 -0.12822460786E+03  0.12822460786E+03  0.00000000000E+00 0.  1.
         35    2    1    2    0    0  0.00000000000E+00  0.00000000000E+00  0.13280948174E+02  0.26973016389E+03  0.26940300245E+03 0.  0.
         25    2    3    3    0    0 -0.32950860605E+02 -0.37979597229E+02  0.10310516723E+02  0.13473021981E+03  0.12457012625E+03 0.  0.
         25    2    3    3    0    0  0.32950860605E+02  0.37979597229E+02  0.29704314509E+01  0.13499994409E+03  0.12525155656E+03 0.  0.
          5    1    4    4  502    0  0.21307096823E+02 -0.45989487424E+02 -0.36365124702E+02  0.62558273818E+02  0.47000000000E+01 0.  1.
         -5    1    4    4    0  502 -0.54257957428E+02  0.80098901952E+01  0.46675641426E+02  0.72171945988E+02  0.47000000000E+01 0.  1.
          5    1    5    5  503    0  0.43665273594E+02  0.70480967643E+02 -0.28970840241E+02  0.87952387700E+02  0.47000000000E+01 0. -1.
         -5    1    5    5    0  503 -0.10714412988E+02 -0.32501370414E+02  0.31941271692E+02  0.47047556385E+02  0.47000000000E+01 0. -1.
<mgrwt>
<rscale>  0 0.26940300E+03</rscale>
<asrwt>0</asrwt>
<pdfrwt beam="1">  1        2 0.19726863E-01 0.26940300E+03</pdfrwt>
<pdfrwt beam="2">  1       -2 0.21770086E-01 0.26940300E+03</pdfrwt>
<totfact> 0.50779625E+03</totfact>
</mgrwt>
</event>
<event>
 9    1  0.7997082E-001  0.2928877E+03  0.7818608E-02  0.1088851E+00
         -1   -1    0    0    0  501 -0.00000000000E+00  0.00000000000E+00  0.29096965351E+03  0.29096965351E+03  0.00000000000E+00 0.  1.
          1   -1    0    0  501    0  0.00000000000E+00 -0.00000000000E+00 -0.73704583129E+02  0.73704583129E+02  0.00000000000E+00 0.  1.
         35    2    1    2    0    0  0.00000000000E+00  0.00000000000E+00  0.21726507038E+03  0.36467423664E+03  0.29288767140E+03 0.  0.
         25    2    3    3    0    0 -0.44248157112E+02  0.57133022675E+02  0.88002809441E+02  0.17042406928E+03  0.12679821463E+03 0.  0.
         25    2    3    3    0    0  0.44248157112E+02 -0.57133022675E+02  0.12926226094E+03  0.19425016735E+03  0.12570725407E+03 0.  0.
          5    1    4    4  502    0 -0.70982334585E+02  0.60973133791E+02  0.18217701244E+02  0.95447312723E+02  0.47000000000E+01 0.  1.
         -5    1    4    4    0  502  0.26734177472E+02 -0.38401111158E+01  0.69785108197E+02  0.74976756562E+02  0.47000000000E+01 0.  1.
          5    1    5    5  503    0  0.83451565309E+02 -0.32324448286E+02  0.11437074043E+03  0.14529896757E+03  0.47000000000E+01 0.  1.
         -5    1    5    5    0  503 -0.39203408196E+02 -0.24808574390E+02  0.14891520508E+02  0.48951199786E+02  0.47000000000E+01 0.  1.
<mgrwt>
<rscale>  0 0.29288767E+03</rscale>
<asrwt>0</asrwt>
<pdfrwt beam="1">  1        1 0.11339167E-01 0.29288767E+03</pdfrwt>
<pdfrwt beam="2">  1       -1 0.44764562E-01 0.29288767E+03</pdfrwt>
<totfact> 0.27236258E+03</totfact>
</mgrwt>
</event>
<event>
 9    1  0.7997082E-001  0.2776467E+03  0.7818608E-02  0.1096981E+00
         -1   -1    0    0    0  501 -0.00000000000E+00  0.00000000000E+00  0.40904142635E+02  0.40904142635E+02  0.00000000000E+00 0. -1.
          1   -1    0    0  501    0  0.00000000000E+00 -0.00000000000E+00 -0.47114843189E+03  0.47114843189E+03  0.00000000000E+00 0. -1.
         35    2    1    2    0    0  0.00000000000E+00  0.14210854715E-13 -0.43024428925E+03  0.51205257452E+03  0.27764670112E+03 0.  0.
         25    2    3    3    0    0 -0.50313319508E+01 -0.59549095597E+02 -0.21767676673E+03  0.25813740129E+03  0.12522114072E+03 0.  0.
         25    2    3    3    0    0  0.50313319508E+01  0.59549095597E+02 -0.21256752252E+03  0.25391517324E+03  0.12536568302E+03 0.  0.
          5    1    4    4  502    0 -0.30531927260E+02 -0.42048780883E+01 -0.18731876803E+03  0.18989547240E+03  0.47000000000E+01 0.  1.
         -5    1    4    4    0  502  0.25500595310E+02 -0.55344217509E+02 -0.30357998693E+02  0.68241928881E+02  0.47000000000E+01 0.  1.
          5    1    5    5  503    0 -0.41409738833E+02  0.76691986158E+02 -0.15463070035E+03  0.17756455362E+03  0.47000000000E+01 0.  1.
         -5    1    5    5    0  503  0.46441070783E+02 -0.17142890561E+02 -0.57936822175E+02  0.76350619617E+02  0.47000000000E+01 0.  1.
<mgrwt>
<rscale>  0 0.27764670E+03</rscale>
<asrwt>0</asrwt>
<pdfrwt beam="1">  1        1 0.72484374E-01 0.27764670E+03</pdfrwt>
<pdfrwt beam="2">  1       -1 0.62929450E-02 0.27764670E+03</pdfrwt>
<totfact> 0.60475547E+03</totfact>
</mgrwt>
</event>
<event>
 9    1  0.7997082E-001  0.2721622E+03  0.7818608E-02  0.1100048E+00
          2   -1    0    0  501    0  0.00000000000E+00  0.00000000000E+00  0.11563829130E+04  0.11563829130E+04  0.00000000000E+00 0.  1.
         -2   -1    0    0    0  501 -0.00000000000E+00 -0.00000000000E+00 -0.16013786084E+02  0.16013786084E+02  0.00000000000E+00 0.  1.
         35    2    1    2    0    0 -0.71054273576E-14  0.00000000000E+00  0.11403691269E+04  0.11723966991E+04  0.27216222074E+03 0.  0.
         25    2    3    3    0    0  0.42766172635E+02 -0.24992975873E+02  0.50583639255E+03  0.52378443373E+03  0.12659416506E+03 0.  0.
         25    2    3    3    0    0 -0.42766172635E+02  0.24992975873E+02  0.63453273438E+03  0.64861226537E+03  0.12494993164E+03 0.  0.
          5    1    4    4  502    0 -0.15529044914E+02 -0.39308983208E+02  0.58006177156E+02  0.71924641015E+02  0.47000000000E+01 0.  1.
         -5    1    4    4    0  502  0.58295217549E+02  0.14316007335E+02  0.44783021539E+03  0.45185979271E+03  0.47000000000E+01 0.  1.
          5    1    5    5  503    0 -0.77564596613E+02  0.12949880203E+02  0.55819920164E+03  0.56373079103E+03  0.47000000000E+01 0.  1.
         -5    1    5    5    0  503  0.34798423978E+02  0.12043095670E+02  0.76333532746E+02  0.84881474340E+02  0.47000000000E+01 0.  1.
<mgrwt>
<rscale>  0 0.27216222E+03</rscale>
<asrwt>0</asrwt>
<pdfrwt beam="1">  1        2 0.17790500E+00 0.27216222E+03</pdfrwt>
<pdfrwt beam="2">  1       -2 0.24636603E-02 0.27216222E+03</pdfrwt>
<totfact> 0.12000605E+04</totfact>
</mgrwt>
</event>
<event>
 9    1  0.7997082E-001  0.2846815E+03  0.7818608E-02  0.1093159E+00
          1   -1    0    0  501    0  0.00000000000E+00  0.00000000000E+00  0.14060198104E+04  0.14060198104E+04  0.00000000000E+00 0. -1.
         -1   -1    0    0    0  501 -0.00000000000E+00 -0.00000000000E+00 -0.14410103704E+02  0.14410103704E+02  0.00000000000E+00 0. -1.
         35    2    1    2    0    0  0.00000000000E+00  0.00000000000E+00  0.13916097067E+04  0.14204299141E+04  0.28468151523E+03 0.  0.
         25    2    3    3    0    0 -0.21869285261E+02  0.67622863446E+02  0.72221130942E+03  0.73629275423E+03  0.12444567958E+03 0.  0.
         25    2    3    3    0    0  0.21869285261E+02 -0.67622863446E+02  0.66939839731E+03  0.68413715992E+03  0.12205868243E+03 0.  0.
          5    1    4    4  502    0 -0.23465379804E+02 -0.11206313948E+02  0.49572434469E+03  0.49642816342E+03  0.47000000000E+01 0.  1.
         -5    1    4    4    0  502  0.15960945424E+01  0.78829177394E+02  0.22648696474E+03  0.23986459081E+03  0.47000000000E+01 0.  1.
          5    1    5    5  503    0 -0.34237537387E+02 -0.76425741462E+02  0.42283310183E+03  0.43107194867E+03  0.47000000000E+01 0. -1.
         -5    1    5    5    0  503  0.56106822649E+02  0.88028780164E+01  0.24656529548E+03  0.25306521125E+03  0.47000000000E+01 0. -1.
<mgrwt>
<rscale>  0 0.28468152E+03</rscale>
<asrwt>0</asrwt>
<pdfrwt beam="1">  1        1 0.21631063E+00 0.28468152E+03</pdfrwt>
<pdfrwt beam="2">  1       -1 0.22169401E-02 0.28468152E+03</pdfrwt>
<totfact> 0.48772390E+03</totfact>
</mgrwt>
</event>
<event>
 9    1  0.7997082E-001  0.2709951E+03  0.7818608E-02  0.1100711E+00
         -2   -1    0    0    0  501 -0.00000000000E+00  0.00000000000E+00  0.88894217686E+02  0.88894217686E+02  0.00000000000E+00 0. -1.
          2   -1    0    0  501    0  0.00000000000E+00 -0.00000000000E+00 -0.20653288688E+03  0.20653288688E+03  0.00000000000E+00 0. -1.
         35    2    1    2    0    0  0.71054273576E-14  0.00000000000E+00 -0.11763866919E+03  0.29542710456E+03  0.27099505092E+03 0.  0.
         25    2    3    3    0    0  0.32428252175E+02 -0.17254007561E+02 -0.10005416584E+03  0.16470146961E+03  0.12556450802E+03 0.  0.
         25    2    3    3    0    0 -0.32428252175E+02  0.17254007561E+02 -0.17584503356E+02  0.13072563496E+03  0.12422030656E+03 0.  0.
          5    1    4    4  502    0  0.36594131855E+02 -0.63828427242E+02 -0.90527205222E+02  0.11674957600E+03  0.47000000000E+01 0.  1.
         -5    1    4    4    0  502 -0.41658796801E+01  0.46574419681E+02 -0.95269606131E+01  0.47951893608E+02  0.47000000000E+01 0.  1.
          5    1    5    5  503    0 -0.14442812932E+02 -0.53129736257E+02  0.21534661445E+01  0.55300010276E+02  0.47000000000E+01 0.  1.
         -5    1    5    5    0  503 -0.17985439243E+02  0.70383743818E+02 -0.19737969501E+02  0.75425624681E+02  0.47000000000E+01 0.  1.
<mgrwt>
<rscale>  0 0.27099505E+03</rscale>
<asrwt>0</asrwt>
<pdfrwt beam="1">  1        2 0.31774290E-01 0.27099505E+03</pdfrwt>
<pdfrwt beam="2">  1       -2 0.13676034E-01 0.27099505E+03</pdfrwt>
<totfact> 0.65098912E+03</totfact>
</mgrwt>
</event>
<event>
 9    1  0.7997082E-001  0.2743191E+03  0.7818608E-02  0.1098833E+00
         -1   -1    0    0    0  501 -0.00000000000E+00  0.00000000000E+00  0.15704943795E+02  0.15704943795E+02  0.00000000000E+00 0.  1.
          1   -1    0    0  501    0  0.00000000000E+00 -0.00000000000E+00 -0.11978864781E+04  0.11978864781E+04  0.00000000000E+00 0.  1.
         35    2    1    2    0    0  0.17763568394E-14  0.00000000000E+00 -0.11821815343E+04  0.12135914218E+04  0.27431908290E+03 0.  0.
         25    2    3    3    0    0 -0.56636824863E+01  0.66973561452E+02 -0.52686745581E+03  0.54306987056E+03  0.11321675264E+03 0.  0.
         25    2    3    3    0    0  0.56636824863E+01 -0.66973561452E+02 -0.65531407844E+03  0.67052155129E+03  0.12508027065E+03 0.  0.
          5    1    4    4  502    0 -0.50297880038E+02  0.70035309079E+02 -0.36412457562E+03  0.37422402091E+03  0.47000000000E+01 0. -1.
         -5    1    4    4    0  502  0.44634197552E+02 -0.30617476272E+01 -0.16274288019E+03  0.16884584964E+03  0.47000000000E+01 0. -1.
          5    1    5    5  503    0 -0.65934957719E+01  0.36406064914E+02 -0.19832021984E+03  0.20179661877E+03  0.47000000000E+01 0.  1.
         -5    1    5    5    0  503  0.12257178258E+02 -0.10337962637E+03 -0.45699385861E+03  0.46872493252E+03  0.47000000000E+01 0.  1.
<mgrwt>
<rscale>  0 0.27431908E+03</rscale>
<asrwt>0</asrwt>
<pdfrwt beam="1">  1        1 0.18429027E+00 0.27431908E+03</pdfrwt>
<pdfrwt beam="2">  1       -1 0.24161446E-02 0.27431908E+03</pdfrwt>
<totfact> 0.59652674E+03</totfact>
</mgrwt>
</event>
<event>
 9    1  0.7997082E-001  0.2736817E+03  0.7818608E-02  0.1099191E+00
          2   -1    0    0  501    0  0.00000000000E+00  0.00000000000E+00  0.12446418985E+04  0.12446418985E+04  0.00000000000E+00 0.  1.
         -2   -1    0    0    0  501 -0.00000000000E+00 -0.00000000000E+00 -0.15044823032E+02  0.15044823032E+02  0.00000000000E+00 0.  1.
         35    2    1    2    0    0 -0.35527136788E-14  0.71054273576E-14  0.12295970755E+04  0.12596867216E+04  0.27368169176E+03 0.  0.
         25    2    3    3    0    0  0.25675276948E+02  0.24812638448E+02  0.80693347087E+03  0.81729209810E+03  0.12469907917E+03 0.  0.
         25    2    3    3    0    0 -0.25675276948E+02 -0.24812638448E+02  0.42266360462E+03  0.44239462345E+03  0.12567256387E+03 0.  0.
          5    1    4    4  502    0 -0.29963539520E+02  0.57060579215E+02  0.44346974613E+03  0.44815313134E+03  0.47000000000E+01 0.  1.
         -5    1    4    4    0  502  0.55638816468E+02 -0.32247940767E+02  0.36346372474E+03  0.36913896676E+03  0.47000000000E+01 0.  1.
          5    1    5    5  503    0 -0.21368363337E+02  0.49844859495E+02  0.14797910558E+03  0.15767378558E+03  0.47000000000E+01 0. -1.
         -5    1    5    5    0  503 -0.43069136106E+01 -0.74657497943E+02  0.27468449904E+03  0.28472083787E+03  0.47000000000E+01 0. -1.
<mgrwt>
<rscale>  0 0.27368169E+03</rscale>
<asrwt>0</asrwt>
<pdfrwt beam="1">  1        2 0.19148329E+00 0.27368169E+03</pdfrwt>
<pdfrwt beam="2">  1       -2 0.23145891E-02 0.27368169E+03</pdfrwt>
<totfact> 0.11726895E+04</totfact>
</mgrwt>
</event>
<event>
 9    1  0.7997082E-001  0.2792880E+03  0.7818608E-02  0.1096078E+00
         -2   -1    0    0    0  501 -0.00000000000E+00  0.00000000000E+00  0.40684237146E+02  0.40684237146E+02  0.00000000000E+00 0.  1.
          2   -1    0    0  501    0  0.00000000000E+00 -0.00000000000E+00 -0.47931212553E+03  0.47931212553E+03  0.00000000000E+00 0.  1.
         35    2    1    2    0    0  0.35527136788E-14  0.00000000000E+00 -0.43862788838E+03  0.51999636267E+03  0.27928801035E+03 0.  0.
         25    2    3    3    0    0  0.30275999387E+02  0.52488841999E+02 -0.20075304522E+03  0.24425930455E+03  0.12525616959E+03 0.  0.
         25    2    3    3    0    0 -0.30275999387E+02 -0.52488841999E+02 -0.23787484316E+03  0.27573705813E+03  0.12559764943E+03 0.  0.
          5    1    4    4  502    0  0.78059212154E+02  0.41291289061E+02 -0.14495255885E+03  0.16979854378E+03  0.47000000000E+01 0.  1.
         -5    1    4    4    0  502 -0.47783212767E+02  0.11197552937E+02 -0.55800486370E+02  0.74460760762E+02  0.47000000000E+01 0.  1.
          5    1    5    5  503    0 -0.28696501455E+02 -0.84549581074E+02 -0.22258749137E+03  0.23987372130E+03  0.47000000000E+01 0. -1.
         -5    1    5    5    0  503 -0.15794979324E+01  0.32060739075E+02 -0.15287351798E+02  0.35863336833E+02  0.47000000000E+01 0. -1.
<mgrwt>
<rscale>  0 0.27928801E+03</rscale>
<asrwt>0</asrwt>
<pdfrwt beam="1">  1        2 0.73740326E-01 0.27928801E+03</pdfrwt>
<pdfrwt beam="2">  1       -2 0.62591135E-02 0.27928801E+03</pdfrwt>
<totfact> 0.90062847E+03</totfact>
</mgrwt>
</event>
<event>
 9    1  0.7997082E-001  0.2713942E+03  0.7818608E-02  0.1100484E+00
          2   -1    0    0  501    0  0.00000000000E+00  0.00000000000E+00  0.32675730163E+04  0.32675730163E+04  0.00000000000E+00 0.  1.
         -2   -1    0    0    0  501 -0.00000000000E+00 -0.00000000000E+00 -0.56352825143E+01  0.56352825143E+01  0.00000000000E+00 0.  1.
         35    2    1    2    0    0  0.71054273576E-14  0.00000000000E+00  0.32619377338E+04  0.32732082988E+04  0.27139415677E+03 0.  0.
         25    2    3    3    0    0 -0.32105138728E+02 -0.30536226607E+01  0.20989948542E+04  0.21029685525E+04  0.12512901459E+03 0.  0.
         25    2    3    3    0    0  0.32105138728E+02  0.30536226607E+01  0.11629428796E+04  0.11702397463E+04  0.12643123877E+03 0.  0.
          5    1    4    4  502    0 -0.59493900251E+02 -0.25355364986E+02  0.58988948948E+03  0.59344259916E+03  0.47000000000E+01 0.  1.
         -5    1    4    4    0  502  0.27388761523E+02  0.22301742325E+02  0.15091053647E+04  0.15095259533E+04  0.47000000000E+01 0.  1.
          5    1    5    5  503    0 -0.47695728757E+02  0.10506301919E+02  0.36896759596E+03  0.37221558510E+03  0.47000000000E+01 0.  1.
         -5    1    5    5    0  503  0.79800867485E+02 -0.74526792587E+01  0.79397528362E+03  0.79802416122E+03  0.47000000000E+01 0.  1.
<mgrwt>
<rscale>  0 0.27139416E+03</rscale>
<asrwt>0</asrwt>
<pdfrwt beam="1">  1        2 0.50270203E+00 0.27139416E+03</pdfrwt>
<pdfrwt beam="2">  1       -2 0.86696915E-03 0.27139416E+03</pdfrwt>
<totfact> 0.37565834E+03</totfact>
</mgrwt>
</event>
<event>
 9    1  0.7997082E-001  0.3001903E+03  0.7818608E-02  0.1085146E+00
         -2   -1    0    0    0  501 -0.00000000000E+00  0.00000000000E+00  0.19657770986E+02  0.19657770986E+02  0.00000000000E+00 0.  1.
          2   -1    0    0  501    0  0.00000000000E+00 -0.00000000000E+00 -0.11460377970E+04  0.11460377970E+04  0.00000000000E+00 0.  1.
         35    2    1    2    0    0 -0.35527136788E-14 -0.14210854715E-13 -0.11263800260E+04  0.11656955680E+04  0.30019026337E+03 0.  0.
         25    2    3    3    0    0 -0.50442474243E+01  0.82714973354E+02 -0.52265770011E+03  0.54369803437E+03  0.12477688026E+03 0.  0.
         25    2    3    3    0    0  0.50442474243E+01 -0.82714973354E+02 -0.60372232591E+03  0.62199753362E+03  0.12463175269E+03 0.  0.
          5    1    4    4  502    0  0.21124902779E+02  0.16000725553E+02 -0.40472544044E+03  0.40561934973E+03  0.47000000000E+01 0.  1.
         -5    1    4    4    0  502 -0.26169150203E+02  0.66714247800E+02 -0.11793225967E+03  0.13807868464E+03  0.47000000000E+01 0.  1.
          5    1    5    5  503    0 -0.45728551297E+02 -0.46013152170E+01 -0.10632093836E+03  0.11592456357E+03  0.47000000000E+01 0. -1.
         -5    1    5    5    0  503  0.50772798721E+02 -0.78113658137E+02 -0.49740138755E+03  0.50607297005E+03  0.47000000000E+01 0. -1.
<mgrwt>
<rscale>  0 0.30019026E+03</rscale>
<asrwt>0</asrwt>
<pdfrwt beam="1">  1        2 0.17631357E+00 0.30019026E+03</pdfrwt>
<pdfrwt beam="2">  1       -2 0.30242713E-02 0.30019026E+03</pdfrwt>
<totfact> 0.89947774E+03</totfact>
</mgrwt>
</event>
<event>
 9    1  0.7997082E-001  0.2752984E+03  0.7818608E-02  0.1098285E+00
         -2   -1    0    0    0  501 -0.00000000000E+00  0.00000000000E+00  0.18830072677E+02  0.18830072677E+02  0.00000000000E+00 0. -1.
          2   -1    0    0  501    0  0.00000000000E+00 -0.00000000000E+00 -0.10062257248E+04  0.10062257248E+04  0.00000000000E+00 0. -1.
         35    2    1    2    0    0 -0.71054273576E-14  0.00000000000E+00 -0.98739565213E+03  0.10250557975E+04  0.27529840920E+03 0.  0.
         25    2    3    3    0    0  0.53433364351E+02 -0.14190646724E+02 -0.42879318985E+03  0.44994794705E+03  0.12463168343E+03 0.  0.
         25    2    3    3    0    0 -0.53433364351E+02  0.14190646724E+02 -0.55860246228E+03  0.57510785043E+03  0.12512325876E+03 0.  0.
          5    1    4    4  502    0 -0.34620970646E+02 -0.16246042205E+01 -0.51300226782E+02  0.62089082899E+02  0.47000000000E+01 0. -1.
         -5    1    4    4    0  502  0.88054334997E+02 -0.12566042503E+02 -0.37749296307E+03  0.38785886415E+03  0.47000000000E+01 0. -1.
          5    1    5    5  503    0 -0.82084452731E+02 -0.24000296572E+02 -0.41359834439E+03  0.42237371142E+03  0.47000000000E+01 0. -1.
         -5    1    5    5    0  503  0.28651088381E+02  0.38190943296E+02 -0.14500411789E+03  0.15273413901E+03  0.47000000000E+01 0. -1.
<mgrwt>
<rscale>  0 0.27529841E+03</rscale>
<asrwt>0</asrwt>
<pdfrwt beam="1">  1        2 0.15480395E+00 0.27529841E+03</pdfrwt>
<pdfrwt beam="2">  1       -2 0.28969343E-02 0.27529841E+03</pdfrwt>
<totfact> 0.11586264E+04</totfact>
</mgrwt>
</event>
<event>
 9    1  0.7997082E-001  0.2770152E+03  0.7818608E-02  0.1097330E+00
          2   -1    0    0  501    0  0.00000000000E+00  0.00000000000E+00  0.12985450811E+03  0.12985450811E+03  0.00000000000E+00 0.  1.
         -2   -1    0    0    0  501 -0.00000000000E+00 -0.00000000000E+00 -0.14773726209E+03  0.14773726209E+03  0.00000000000E+00 0.  1.
         35    2    1    2    0    0  0.00000000000E+00  0.00000000000E+00 -0.17882753976E+02  0.27759177020E+03  0.27701515841E+03 0.  0.
         25    2    3    3    0    0  0.49862724737E+02 -0.27699940631E+02  0.98608511191E+01  0.13746495594E+03  0.12468279632E+03 0.  0.
         25    2    3    3    0    0 -0.49862724737E+02  0.27699940631E+02 -0.27743605095E+02  0.14012681426E+03  0.12494894326E+03 0.  0.
          5    1    4    4  502    0  0.41903355288E+02 -0.30175810914E+02 -0.52844012384E+02  0.74034116416E+02  0.47000000000E+01 0.  1.
         -5    1    4    4    0  502  0.79593694498E+01  0.24758702825E+01  0.62704863503E+02  0.63430839524E+02  0.47000000000E+01 0.  1.
          5    1    5    5  503    0 -0.38796762146E+02  0.17477269928E+02  0.47093548818E+02  0.63643821832E+02  0.47000000000E+01 0. -1.
         -5    1    5    5    0  503 -0.11065962592E+02  0.10222670703E+02 -0.74837153912E+02  0.76482992424E+02  0.47000000000E+01 0. -1.
<mgrwt>
<rscale>  0 0.27701516E+03</rscale>
<asrwt>0</asrwt>
<pdfrwt beam="1">  1        2 0.19977617E-01 0.27701516E+03</pdfrwt>
<pdfrwt beam="2">  1       -2 0.22728810E-01 0.27701516E+03</pdfrwt>
<totfact> 0.46489114E+03</totfact>
</mgrwt>
</event>
<event>
 9    1  0.7997082E-001  0.2752188E+03  0.7818608E-02  0.1098329E+00
          2   -1    0    0  501    0  0.00000000000E+00  0.00000000000E+00  0.26579883036E+04  0.26579883036E+04  0.00000000000E+00 0. -1.
         -2   -1    0    0    0  501 -0.00000000000E+00 -0.00000000000E+00 -0.71243128959E+01  0.71243128959E+01  0.00000000000E+00 0. -1.
         35    2    1    2    0    0 -0.71054273576E-14  0.00000000000E+00  0.26508639907E+04  0.26651126165E+04  0.27521875189E+03 0.  0.
         25    2    3    3    0    0  0.54169318817E+02 -0.32335304539E+01  0.11177906385E+04  0.11260269699E+04  0.12464371034E+03 0.  0.
         25    2    3    3    0    0 -0.54169318817E+02  0.32335304539E+01  0.15330733522E+04  0.15390856466E+04  0.12460318456E+03 0.  0.
          5    1    4    4  502    0  0.45101495654E+02 -0.28722499698E+02  0.10664879443E+04  0.10678378867E+04  0.47000000000E+01 0. -1.
         -5    1    4    4    0  502  0.90678231629E+01  0.25488969244E+02  0.51302694240E+02  0.58189083223E+02  0.47000000000E+01 0. -1.
          5    1    5    5  503    0 -0.82592545029E+02 -0.32583135156E+02  0.91720021029E+03  0.92149959574E+03  0.47000000000E+01 0. -1.
         -5    1    5    5    0  503  0.28423226212E+02  0.35816665610E+02  0.61587314187E+03  0.61758605085E+03  0.47000000000E+01 0. -1.
<mgrwt>
<rscale>  0 0.27521875E+03</rscale>
<asrwt>0</asrwt>
<pdfrwt beam="1">  1        2 0.40892049E+00 0.27521875E+03</pdfrwt>
<pdfrwt beam="2">  1       -2 0.10960503E-02 0.27521875E+03</pdfrwt>
<totfact> 0.61169048E+03</totfact>
</mgrwt>
</event>
<event>
 9    1  0.7997082E-001  0.2860636E+03  0.7818608E-02  0.1092422E+00
          2   -1    0    0  501    0  0.00000000000E+00  0.00000000000E+00  0.13649421035E+02  0.13649421035E+02  0.00000000000E+00 0. -1.
         -2   -1    0    0    0  501 -0.00000000000E+00 -0.00000000000E+00 -0.14988254222E+04  0.14988254222E+04  0.00000000000E+00 0. -1.
         35    2    1    2    0    0  0.17763568394E-14  0.71054273576E-14 -0.14851760012E+04  0.15124748432E+04  0.28606362401E+03 0.  0.
         25    2    3    3    0    0 -0.96769411694E+01 -0.41425012410E+02 -0.41945452787E+03  0.43929406681E+03  0.12339976231E+03 0.  0.
         25    2    3    3    0    0  0.96769411694E+01  0.41425012410E+02 -0.10657214733E+04  0.10731807764E+04  0.11893294501E+03 0.  0.
          5    1    4    4  502    0  0.35273771972E+01 -0.59697454359E+01  0.71354311990E+01  0.11003846094E+02  0.47000000000E+01 0. -1.
         -5    1    4    4    0  502 -0.13204318367E+02 -0.35455266974E+02 -0.42658995907E+03  0.42829022071E+03  0.47000000000E+01 0. -1.
          5    1    5    5  503    0  0.39446978556E+02  0.62120592294E+00 -0.87272614054E+03  0.87363004550E+03  0.47000000000E+01 0. -1.
         -5    1    5    5    0  503 -0.29770037386E+02  0.40803806487E+02 -0.19299533277E+03  0.19955073094E+03  0.47000000000E+01 0. -1.
<mgrwt>
<rscale>  0 0.28606362E+03</rscale>
<asrwt>0</asrwt>
<pdfrwt beam="1">  1        2 0.20999127E-02 0.28606362E+03</pdfrwt>
<pdfrwt beam="2">  1       -2 0.23058833E+00 0.28606362E+03</pdfrwt>
<totfact> 0.47897456E+02</totfact>
</mgrwt>
</event>
<event>
 9    1  0.7997082E-001  0.2743900E+03  0.7818608E-02  0.1098793E+00
         -2   -1    0    0    0  501 -0.00000000000E+00  0.00000000000E+00  0.67407337701E+02  0.67407337701E+02  0.00000000000E+00 0. -1.
          2   -1    0    0  501    0  0.00000000000E+00 -0.00000000000E+00 -0.27923474842E+03  0.27923474842E+03  0.00000000000E+00 0. -1.
         35    2    1    2    0    0 -0.71054273576E-14  0.00000000000E+00 -0.21182741072E+03  0.34664208612E+03  0.27439002157E+03 0.  0.
         25    2    3    3    0    0  0.27315601507E+02  0.18130474596E+02 -0.47127473056E+02  0.13761586063E+03  0.12506906167E+03 0.  0.
         25    2    3    3    0    0 -0.27315601507E+02 -0.18130474596E+02 -0.16469993766E+03  0.20902622549E+03  0.12446299563E+03 0.  0.
          5    1    4    4  502    0  0.74761567143E+02 -0.72638929755E+01 -0.28465438491E+02  0.80463825732E+02  0.47000000000E+01 0. -1.
         -5    1    4    4    0  502 -0.47445965636E+02  0.25394367572E+02 -0.18662034565E+02  0.57152034903E+02  0.47000000000E+01 0. -1.
          5    1    5    5  503    0  0.37715359651E+02 -0.28132731697E+01 -0.12607892211E+03  0.13171312562E+03  0.47000000000E+01 0.  1.
         -5    1    5    5    0  503 -0.65030961159E+02 -0.15317201427E+02 -0.38621015550E+02  0.77313099866E+02  0.47000000000E+01 0.  1.
<mgrwt>
<rscale>  0 0.27439002E+03</rscale>
<asrwt>0</asrwt>
<pdfrwt beam="1">  1        2 0.42959192E-01 0.27439002E+03</pdfrwt>
<pdfrwt beam="2">  1       -2 0.10370360E-01 0.27439002E+03</pdfrwt>
<totfact> 0.73431883E+03</totfact>
</mgrwt>
</event>
<event>
 9    1  0.7997082E-001  0.2762026E+03  0.7818608E-02  0.1097781E+00
         -2   -1    0    0    0  501 -0.00000000000E+00  0.00000000000E+00  0.33715984521E+03  0.33715984521E+03  0.00000000000E+00 0.  1.
          2   -1    0    0  501    0  0.00000000000E+00 -0.00000000000E+00 -0.56566549569E+02  0.56566549569E+02  0.00000000000E+00 0.  1.
         35    2    1    2    0    0  0.71054273576E-14 -0.71054273576E-14  0.28059329564E+03  0.39372639477E+03  0.27620260025E+03 0.  0.
         25    2    3    3    0    0 -0.51083870576E+02  0.28509992620E+02  0.15006532486E+03  0.20420599908E+03  0.12553129819E+03 0.  0.
         25    2    3    3    0    0  0.51083870576E+02 -0.28509992620E+02  0.13052797078E+03  0.18952039569E+03  0.12433039739E+03 0.  0.
          5    1    4    4  502    0 -0.31148337304E+02 -0.18789152272E+01  0.16247782242E+03  0.16551399341E+03  0.47000000000E+01 0. -1.
         -5    1    4    4    0  502 -0.19935533272E+02  0.30388907847E+02 -0.12412497560E+02  0.38692005669E+02  0.47000000000E+01 0. -1.
          5    1    5    5  503    0  0.76450089537E+02 -0.55125768813E+02  0.66186903665E+02  0.11526605222E+03  0.47000000000E+01 0.  1.
         -5    1    5    5    0  503 -0.25366218961E+02  0.26615776193E+02  0.64341067116E+02  0.74254343471E+02  0.47000000000E+01 0.  1.
<mgrwt>
<rscale>  0 0.27620260E+03</rscale>
<asrwt>0</asrwt>
<pdfrwt beam="1">  1        2 0.87025463E-02 0.27620260E+03</pdfrwt>
<pdfrwt beam="2">  1       -2 0.51870744E-01 0.27620260E+03</pdfrwt>
<totfact> 0.27152415E+03</totfact>
</mgrwt>
</event>
<event>
 9    1  0.7997082E-001  0.2749597E+03  0.7818608E-02  0.1098474E+00
          2   -1    0    0  501    0  0.00000000000E+00  0.00000000000E+00  0.56477785469E+03  0.56477785469E+03  0.00000000000E+00 0. -1.
         -2   -1    0    0    0  501 -0.00000000000E+00 -0.00000000000E+00 -0.33465735312E+02  0.33465735312E+02  0.00000000000E+00 0. -1.
         35    2    1    2    0    0  0.71054273576E-14 -0.71054273576E-14  0.53131211937E+03  0.59824359000E+03  0.27495967846E+03 0.  0.
         25    2    3    3    0    0  0.53518167882E+02 -0.16997465222E+02  0.30443820179E+03  0.33354904408E+03  0.12417422430E+03 0.  0.
         25    2    3    3    0    0 -0.53518167882E+02  0.16997465222E+02  0.22687391759E+03  0.26469454592E+03  0.12425103638E+03 0.  0.
          5    1    4    4  502    0 -0.61302904938E+01  0.38438598918E+02  0.18372265094E+03  0.18785954545E+03  0.47000000000E+01 0. -1.
         -5    1    4    4    0  502  0.59648458376E+02 -0.55436064140E+02  0.12071555085E+03  0.14568949863E+03  0.47000000000E+01 0. -1.
          5    1    5    5  503    0 -0.83834952496E+02 -0.76597643942E+01  0.94751977454E+02  0.12683453190E+03  0.47000000000E+01 0. -1.
         -5    1    5    5    0  503  0.30316784614E+02  0.24657229616E+02  0.13212194013E+03  0.13786001402E+03  0.47000000000E+01 0. -1.
<mgrwt>
<rscale>  0 0.27495968E+03</rscale>
<asrwt>0</asrwt>
<pdfrwt beam="1">  1        2 0.86888893E-01 0.27495968E+03</pdfrwt>
<pdfrwt beam="2">  1       -2 0.51485751E-02 0.27495968E+03</pdfrwt>
<totfact> 0.10086137E+04</totfact>
</mgrwt>
</event>
<event>
 9    1  0.7997082E-001  0.2797107E+03  0.7818608E-02  0.1095847E+00
         -2   -1    0    0    0  501 -0.00000000000E+00  0.00000000000E+00  0.54947479324E+02  0.54947479324E+02  0.00000000000E+00 0.  1.
          2   -1    0    0  501    0  0.00000000000E+00 -0.00000000000E+00 -0.35596762988E+03  0.35596762988E+03  0.00000000000E+00 0.  1.
         35    2    1    2    0    0  0.71054273576E-14  0.00000000000E+00 -0.30102015056E+03  0.41091510921E+03  0.27971073618E+03 0.  0.
         25    2    3    3    0    0  0.52071077604E+02 -0.36153192859E+02 -0.16173912923E+03  0.21423086477E+03  0.12536692953E+03 0.  0.
         25    2    3    3    0    0 -0.52071077604E+02  0.36153192859E+02 -0.13928102133E+03  0.19668424444E+03  0.12355985849E+03 0.  0.
          5    1    4    4  502    0  0.56371877858E+02 -0.27776176566E+02 -0.18134283352E+03  0.19198077473E+03  0.47000000000E+01 0. -1.
         -5    1    4    4    0  502 -0.43008002537E+01 -0.83770162938E+01  0.19603704292E+02  0.22250090040E+02  0.47000000000E+01 0. -1.
          5    1    5    5  503    0  0.19863050882E+02  0.52394369568E+02 -0.27267495831E+02  0.62492536208E+02  0.47000000000E+01 0.  1.
         -5    1    5    5    0  503 -0.71934128486E+02 -0.16241176709E+02 -0.11201352550E+03  0.13419170823E+03  0.47000000000E+01 0.  1.
<mgrwt>
<rscale>  0 0.27971074E+03</rscale>
<asrwt>0</asrwt>
<pdfrwt beam="1">  1        2 0.54764250E-01 0.27971074E+03</pdfrwt>
<pdfrwt beam="2">  1       -2 0.84534585E-02 0.27971074E+03</pdfrwt>
<totfact> 0.78165287E+03</totfact>
</mgrwt>
</event>
<event>
 9    1  0.7997082E-001  0.2709820E+03  0.7818608E-02  0.1100719E+00
          2   -1    0    0  501    0  0.00000000000E+00  0.00000000000E+00  0.42754244198E+02  0.42754244198E+02  0.00000000000E+00 0.  1.
         -2   -1    0    0    0  501 -0.00000000000E+00 -0.00000000000E+00 -0.42937986357E+03  0.42937986357E+03  0.00000000000E+00 0.  1.
         35    2    1    2    0    0 -0.35527136788E-14 -0.71054273576E-14 -0.38662561937E+03  0.47213410777E+03  0.27098200339E+03 0.  0.
         25    2    3    3    0    0  0.31166778416E+01  0.52121632194E+02 -0.23844448888E+03  0.27423940595E+03  0.12500039710E+03 0.  0.
         25    2    3    3    0    0 -0.31166778416E+01 -0.52121632194E+02 -0.14818113049E+03  0.19789470182E+03  0.12032575514E+03 0.  0.
          5    1    4    4  502    0 -0.20516336934E+02  0.67934358676E+02 -0.23462396610E+03  0.24516625510E+03  0.47000000000E+01 0.  1.
         -5    1    4    4    0  502  0.23633014776E+02 -0.15812726482E+02 -0.38205227817E+01  0.29073150853E+02  0.47000000000E+01 0.  1.
          5    1    5    5  503    0 -0.33135216952E+02 -0.70834520078E+02 -0.48793264164E+02  0.92294877783E+02  0.47000000000E+01 0. -1.
         -5    1    5    5    0  503  0.30018539110E+02  0.18712887884E+02 -0.99387866326E+02  0.10559982403E+03  0.47000000000E+01 0. -1.
<mgrwt>
<rscale>  0 0.27098200E+03</rscale>
<asrwt>0</asrwt>
<pdfrwt beam="1">  1        2 0.65775760E-02 0.27098200E+03</pdfrwt>
<pdfrwt beam="2">  1       -2 0.66058441E-01 0.27098200E+03</pdfrwt>
<totfact> 0.23577016E+03</totfact>
</mgrwt>
</event>
<event>
 9    1  0.7997082E-001  0.2512429E+03  0.7818608E-02  0.1112522E+00
          2   -1    0    0  501    0  0.00000000000E+00  0.00000000000E+00  0.62290634122E+03  0.62290634122E+03  0.00000000000E+00 0.  1.
         -2   -1    0    0    0  501 -0.00000000000E+00 -0.00000000000E+00 -0.25334071011E+02  0.25334071011E+02  0.00000000000E+00 0.  1.
         35    2    1    2    0    0 -0.71054273576E-14 -0.71054273576E-14  0.59757227020E+03  0.64824041223E+03  0.25124293806E+03 0.  0.
         25    2    3    3    0    0  0.18295484077E+02 -0.33234429429E+02  0.22700816102E+03  0.25533586168E+03  0.11056421236E+03 0.  0.
         25    2    3    3    0    0 -0.18295484077E+02  0.33234429429E+02  0.37056410919E+03  0.39290455055E+03  0.12496789502E+03 0.  0.
          5    1    4    4  502    0  0.40379015847E+02 -0.60588440742E+02  0.10210793143E+03  0.12549718616E+03  0.47000000000E+01 0.  1.
         -5    1    4    4    0  502 -0.22083531769E+02  0.27354011314E+02  0.12490022959E+03  0.12983867552E+03  0.47000000000E+01 0.  1.
          5    1    5    5  503    0  0.41956593490E+02  0.24111366863E+02  0.64358634088E+02  0.80658772189E+02  0.47000000000E+01 0. -1.
         -5    1    5    5    0  503 -0.60252077568E+02  0.91230625653E+01  0.30620547510E+03  0.31224577836E+03  0.47000000000E+01 0. -1.
<mgrwt>
<rscale>  0 0.25124294E+03</rscale>
<asrwt>0</asrwt>
<pdfrwt beam="1">  1        2 0.95831733E-01 0.25124294E+03</pdfrwt>
<pdfrwt beam="2">  1       -2 0.38975499E-02 0.25124294E+03</pdfrwt>
<totfact> 0.13661373E+04</totfact>
</mgrwt>
</event>
<event>
 9    1  0.7997082E-001  0.2747685E+03  0.7818608E-02  0.1098581E+00
          1   -1    0    0  501    0  0.00000000000E+00  0.00000000000E+00  0.12808137038E+03  0.12808137038E+03  0.00000000000E+00 0.  1.
         -1   -1    0    0    0  501 -0.00000000000E+00 -0.00000000000E+00 -0.14736277129E+03  0.14736277129E+03  0.00000000000E+00 0.  1.
         35    2    1    2    0    0  0.35527136788E-14  0.71054273576E-14 -0.19281400911E+02  0.27544414167E+03  0.27476845299E+03 0.  0.
         25    2    3    3    0    0 -0.11956602436E+02  0.38542209227E+02  0.22609611510E+02  0.13406665082E+03  0.12583405777E+03 0.  0.
         25    2    3    3    0    0  0.11956602436E+02 -0.38542209227E+02 -0.41891012421E+02  0.14137749085E+03  0.12885757937E+03 0.  0.
          5    1    4    4  502    0  0.14515400732E+02  0.38839515553E+02  0.68889963839E+02  0.80542671575E+02  0.47000000000E+01 0. -1.
         -5    1    4    4    0  502 -0.26472003168E+02 -0.29730632513E+00 -0.46280352328E+02  0.53523979247E+02  0.47000000000E+01 0. -1.
          5    1    5    5  503    0 -0.88348397840E+01  0.22906255706E+02 -0.67113488522E+02  0.71617464951E+02  0.47000000000E+01 0.  1.
         -5    1    5    5    0  503  0.20791442220E+02 -0.61448464934E+02  0.25222476100E+02  0.69760025895E+02  0.47000000000E+01 0.  1.
<mgrwt>
<rscale>  0 0.27476845E+03</rscale>
<asrwt>0</asrwt>
<pdfrwt beam="1">  1        1 0.19704826E-01 0.27476845E+03</pdfrwt>
<pdfrwt beam="2">  1       -1 0.22671196E-01 0.27476845E+03</pdfrwt>
<totfact> 0.42418787E+03</totfact>
</mgrwt>
</event>
<event>
 9    1  0.7997082E-001  0.2743314E+03  0.7818608E-02  0.1098826E+00
         -1   -1    0    0    0  501 -0.00000000000E+00  0.00000000000E+00  0.12794287494E+02  0.12794287494E+02  0.00000000000E+00 0. -1.
          1   -1    0    0  501    0  0.00000000000E+00 -0.00000000000E+00 -0.14705337642E+04  0.14705337642E+04  0.00000000000E+00 0. -1.
         35    2    1    2    0    0  0.35527136788E-14 -0.14210854715E-13 -0.14577394767E+04  0.14833280517E+04  0.27433141817E+03 0.  0.
         25    2    3    3    0    0 -0.10108754051E+02  0.53230270354E+02 -0.61289988321E+03  0.62766039614E+03  0.12399861875E+03 0.  0.
         25    2    3    3    0    0  0.10108754051E+02 -0.53230270354E+02 -0.84483959349E+03  0.85566765555E+03  0.12440879966E+03 0.  0.
          5    1    4    4  502    0 -0.21472275492E+02 -0.37439702169E+02 -0.22053073652E+03  0.22476362175E+03  0.47000000000E+01 0.  1.
         -5    1    4    4    0  502  0.11363521441E+02  0.90669972523E+02 -0.39236914669E+03  0.40289677438E+03  0.47000000000E+01 0.  1.
          5    1    5    5  503    0  0.54978898743E+02 -0.64585130205E+02 -0.63991015777E+03  0.64552383254E+03  0.47000000000E+01 0. -1.
         -5    1    5    5    0  503 -0.44870144692E+02  0.11354859851E+02 -0.20492943571E+03  0.21014382301E+03  0.47000000000E+01 0. -1.
<mgrwt>
<rscale>  0 0.27433142E+03</rscale>
<asrwt>0</asrwt>
<pdfrwt beam="1">  1        1 0.22623594E+00 0.27433142E+03</pdfrwt>
<pdfrwt beam="2">  1       -1 0.19683521E-02 0.27433142E+03</pdfrwt>
<totfact> 0.52545910E+03</totfact>
</mgrwt>
</event>
<event>
 9    1  0.7997082E-001  0.2735448E+03  0.7818608E-02  0.1099268E+00
         -2   -1    0    0    0  501 -0.00000000000E+00  0.00000000000E+00  0.30533926365E+02  0.30533926365E+02  0.00000000000E+00 0.  1.
          2   -1    0    0  501    0  0.00000000000E+00 -0.00000000000E+00 -0.61265262546E+03  0.61265262546E+03  0.00000000000E+00 0.  1.
         35    2    1    2    0    0  0.00000000000E+00  0.00000000000E+00 -0.58211869909E+03  0.64318655182E+03  0.27354480549E+03 0.  0.
         25    2    3    3    0    0 -0.23439317486E+02 -0.41410027000E+02 -0.22200481175E+03  0.25906067115E+03  0.12474815812E+03 0.  0.
         25    2    3    3    0    0  0.23439317486E+02  0.41410027000E+02 -0.36011388735E+03  0.38412588068E+03  0.12492593169E+03 0.  0.
          5    1    4    4  502    0 -0.91402366532E+00 -0.58774167383E+02 -0.22254860838E+03  0.23022860657E+03  0.47000000000E+01 0.  1.
         -5    1    4    4    0  502 -0.22525293820E+02  0.17364140383E+02  0.54379663242E+00  0.28832064576E+02  0.47000000000E+01 0.  1.
          5    1    5    5  503    0  0.15113526178E+01  0.84718556530E+02 -0.22366824086E+03  0.23922602279E+03  0.47000000000E+01 0. -1.
         -5    1    5    5    0  503  0.21927964868E+02 -0.43308529530E+02 -0.13644564648E+03  0.14489985789E+03  0.47000000000E+01 0. -1.
<mgrwt>
<rscale>  0 0.27354481E+03</rscale>
<asrwt>0</asrwt>
<pdfrwt beam="1">  1        2 0.94254242E-01 0.27354481E+03</pdfrwt>
<pdfrwt beam="2">  1       -2 0.46975275E-02 0.27354481E+03</pdfrwt>
<totfact> 0.10549912E+04</totfact>
</mgrwt>
</event>
<event>
 9    1  0.7997082E-001  0.2739248E+03  0.7818608E-02  0.1099054E+00
         -4   -1    0    0    0  501 -0.00000000000E+00  0.00000000000E+00  0.15988585591E+03  0.15988585591E+03  0.00000000000E+00 0. -1.
          4   -1    0    0  501    0  0.00000000000E+00 -0.00000000000E+00 -0.11732560819E+03  0.11732560819E+03  0.00000000000E+00 0. -1.
         35    2    1    2    0    0  0.00000000000E+00  0.00000000000E+00  0.42560247714E+02  0.27721146410E+03  0.27392484580E+03 0.  0.
         25    2    3    3    0    0  0.38937258417E+01  0.12680117297E+02  0.68983933142E+02  0.14679439077E+03  0.12889477745E+03 0.  0.
         25    2    3    3    0    0 -0.38937258417E+01 -0.12680117297E+02 -0.26423685427E+02  0.13041707333E+03  0.12702147609E+03 0.  0.
          5    1    4    4  502    0 -0.57881716600E+02  0.25192994011E+01  0.69602919689E+01  0.58542084438E+02  0.47000000000E+01 0. -1.
         -5    1    4    4    0  502  0.61775442441E+02  0.10160817896E+02  0.62023641173E+02  0.88252306335E+02  0.47000000000E+01 0. -1.
          5    1    5    5  503    0 -0.50403045697E+02 -0.97030671185E+01 -0.55136089507E+02  0.75476452574E+02  0.47000000000E+01 0. -1.
         -5    1    5    5    0  503  0.46509319855E+02 -0.29770501784E+01  0.28712404079E+02  0.54940620757E+02  0.47000000000E+01 0. -1.
<mgrwt>
<rscale>  0 0.27392485E+03</rscale>
<asrwt>0</asrwt>
<pdfrwt beam="1">  1        4 0.18050094E-01 0.27392485E+03</pdfrwt>
<pdfrwt beam="2">  1       -4 0.24597824E-01 0.27392485E+03</pdfrwt>
<totfact> 0.78550260E+02</totfact>
</mgrwt>
</event>
<event>
 9    1  0.7997082E-001  0.2748608E+03  0.7818608E-02  0.1098529E+00
         -2   -1    0    0    0  501 -0.00000000000E+00  0.00000000000E+00  0.83601582953E+01  0.83601582953E+01  0.00000000000E+00 0. -1.
          2   -1    0    0  501    0  0.00000000000E+00 -0.00000000000E+00 -0.22591808932E+04  0.22591808932E+04  0.00000000000E+00 0. -1.
         35    2    1    2    0    0  0.00000000000E+00  0.00000000000E+00 -0.22508207349E+04  0.22675410515E+04  0.27486076392E+03 0.  0.
         25    2    3    3    0    0 -0.12522444076E+02 -0.32905987091E+02 -0.76332139749E+03  0.77438332208E+03  0.12558008622E+03 0.  0.
         25    2    3    3    0    0  0.12522444076E+02  0.32905987091E+02 -0.14874993374E+04  0.14931577294E+04  0.12500444199E+03 0.  0.
          5    1    4    4  502    0  0.39585704115E+02 -0.45713715765E+02 -0.21406324150E+03  0.22249029898E+03  0.47000000000E+01 0. -1.
         -5    1    4    4    0  502 -0.52108148191E+02  0.12807728674E+02 -0.54925815599E+03  0.55189302309E+03  0.47000000000E+01 0. -1.
          5    1    5    5  503    0  0.65205933613E+02  0.27285883184E+02 -0.10595414648E+04  0.10619070293E+04  0.47000000000E+01 0. -1.
         -5    1    5    5    0  503 -0.52683489537E+02  0.56201039064E+01 -0.42795787265E+03  0.43125070017E+03  0.47000000000E+01 0. -1.
<mgrwt>
<rscale>  0 0.27486076E+03</rscale>
<asrwt>0</asrwt>
<pdfrwt beam="1">  1        2 0.34756603E+00 0.27486076E+03</pdfrwt>
<pdfrwt beam="2">  1       -2 0.12861792E-02 0.27486076E+03</pdfrwt>
<totfact> 0.79994205E+03</totfact>
</mgrwt>
</event>
<event>
 9    1  0.7997082E-001  0.2706015E+03  0.7818608E-02  0.1100936E+00
          1   -1    0    0  501    0  0.00000000000E+00  0.00000000000E+00  0.16022788054E+03  0.16022788054E+03  0.00000000000E+00 0.  1.
         -1   -1    0    0    0  501 -0.00000000000E+00 -0.00000000000E+00 -0.11425164008E+03  0.11425164008E+03  0.00000000000E+00 0.  1.
         35    2    1    2    0    0 -0.35527136788E-14 -0.35527136788E-14  0.45976240464E+02  0.27447952062E+03  0.27060153834E+03 0.  0.
         25    2    3    3    0    0  0.24123439643E+02  0.26523781903E+02  0.58576976557E+02  0.14377569090E+03  0.12631205708E+03 0.  0.
         25    2    3    3    0    0 -0.24123439643E+02 -0.26523781903E+02 -0.12600736093E+02  0.13070382972E+03  0.12505703182E+03 0.  0.
          5    1    4    4  502    0  0.11318521759E+02  0.47279848386E+02  0.90793213983E+02  0.10309699658E+03  0.47000000000E+01 0. -1.
         -5    1    4    4    0  502  0.12804917884E+02 -0.20756066483E+02 -0.32216237426E+02  0.40678694322E+02  0.47000000000E+01 0. -1.
          5    1    5    5  503    0  0.74993656791E+01  0.37772091961E+02  0.28342607021E+02  0.48045445043E+02  0.47000000000E+01 0. -1.
         -5    1    5    5    0  503 -0.31622805322E+02 -0.64295873864E+02 -0.40943343114E+02  0.82658384679E+02  0.47000000000E+01 0. -1.
<mgrwt>
<rscale>  0 0.27060154E+03</rscale>
<asrwt>0</asrwt>
<pdfrwt beam="1">  1        1 0.24650443E-01 0.27060154E+03</pdfrwt>
<pdfrwt beam="2">  1       -1 0.17577175E-01 0.27060154E+03</pdfrwt>
<totfact> 0.48128397E+03</totfact>
</mgrwt>
</event>
<event>
 9    1  0.7997082E-001  0.2772813E+03  0.7818608E-02  0.1097183E+00
          4   -1    0    0  501    0  0.00000000000E+00  0.00000000000E+00  0.19750924601E+04  0.19750924601E+04  0.00000000000E+00 0.  1.
         -4   -1    0    0    0  501 -0.00000000000E+00 -0.00000000000E+00 -0.97318099350E+01  0.97318099350E+01  0.00000000000E+00 0.  1.
         35    2    1    2    0    0  0.00000000000E+00  0.00000000000E+00  0.19653606502E+04  0.19848242700E+04  0.27728126100E+03 0.  0.
         25    2    3    3    0    0  0.55914007538E+02 -0.86479323945E+01  0.84307065839E+03  0.85413609492E+03  0.12481654791E+03 0.  0.
         25    2    3    3    0    0 -0.55914007538E+02  0.86479323945E+01  0.11222899918E+04  0.11306881751E+04  0.12537846998E+03 0.  0.
          5    1    4    4  502    0 -0.77295065373E+01  0.20948952543E+02  0.61590976121E+03  0.61633231932E+03  0.47000000000E+01 0.  1.
         -5    1    4    4    0  502  0.63643514075E+02 -0.29596884937E+02  0.22716089718E+03  0.23780377560E+03  0.47000000000E+01 0.  1.
          5    1    5    5  503    0 -0.30038685475E+02 -0.39154500046E+02  0.91488785784E+03  0.91622992743E+03  0.47000000000E+01 0.  1.
         -5    1    5    5    0  503 -0.25875322063E+02  0.47802432440E+02  0.20740213395E+03  0.21445824770E+03  0.47000000000E+01 0.  1.
<mgrwt>
<rscale>  0 0.27728126E+03</rscale>
<asrwt>0</asrwt>
<pdfrwt beam="1">  1        4 0.30386006E+00 0.27728126E+03</pdfrwt>
<pdfrwt beam="2">  1       -4 0.14972031E-02 0.27728126E+03</pdfrwt>
<totfact> 0.10219229E+02</totfact>
</mgrwt>
</event>
<event>
 9    1  0.7997082E-001  0.2740150E+03  0.7818608E-02  0.1099003E+00
          2   -1    0    0  501    0  0.00000000000E+00  0.00000000000E+00  0.20947363580E+04  0.20947363580E+04  0.00000000000E+00 0. -1.
         -2   -1    0    0    0  501 -0.00000000000E+00 -0.00000000000E+00 -0.89610603614E+01  0.89610603614E+01  0.00000000000E+00 0. -1.
         35    2    1    2    0    0  0.17763568394E-14  0.00000000000E+00  0.20857752977E+04  0.21036974184E+04  0.27401502839E+03 0.  0.
         25    2    3    3    0    0  0.55900785345E+01 -0.14151258897E+02  0.14646030459E+04  0.14699803047E+04  0.12469365221E+03 0.  0.
         25    2    3    3    0    0 -0.55900785345E+01  0.14151258897E+02  0.62117225175E+03  0.63371711372E+03  0.12454279092E+03 0.  0.
          5    1    4    4  502    0  0.25859949940E+02 -0.38806812124E+02  0.13528975316E+04  0.13537091736E+04  0.47000000000E+01 0.  1.
         -5    1    4    4    0  502 -0.20269871405E+02  0.24655553227E+02  0.11170551433E+03  0.11627113109E+03  0.47000000000E+01 0.  1.
          5    1    5    5  503    0 -0.83737814876E+01  0.68822651981E+02  0.38665262329E+03  0.39284732243E+03  0.47000000000E+01 0.  1.
         -5    1    5    5    0  503  0.27837029531E+01 -0.54671393084E+02  0.23451962846E+03  0.24086979129E+03  0.47000000000E+01 0.  1.
<mgrwt>
<rscale>  0 0.27401503E+03</rscale>
<asrwt>0</asrwt>
<pdfrwt beam="1">  1        2 0.32226674E+00 0.27401503E+03</pdfrwt>
<pdfrwt beam="2">  1       -2 0.13786263E-02 0.27401503E+03</pdfrwt>
<totfact> 0.88389189E+03</totfact>
</mgrwt>
</event>
<event>
 9    1  0.7997082E-001  0.2734825E+03  0.7818608E-02  0.1099303E+00
         -2   -1    0    0    0  501 -0.00000000000E+00  0.00000000000E+00  0.11616654780E+03  0.11616654780E+03  0.00000000000E+00 0.  1.
          2   -1    0    0  501    0  0.00000000000E+00 -0.00000000000E+00 -0.16096005286E+03  0.16096005286E+03  0.00000000000E+00 0.  1.
         35    2    1    2    0    0 -0.71054273576E-14  0.00000000000E+00 -0.44793505058E+02  0.27712660067E+03  0.27348253089E+03 0.  0.
         25    2    3    3    0    0 -0.22210977283E+02  0.43743927596E+02 -0.49629650288E+02  0.14319060418E+03  0.12503434818E+03 0.  0.
         25    2    3    3    0    0  0.22210977283E+02 -0.43743927596E+02  0.48361452301E+01  0.13393599649E+03  0.12453354625E+03 0.  0.
          5    1    4    4  502    0 -0.65466938623E+02 -0.80287591524E+01 -0.17997014916E+02  0.68530019496E+02  0.47000000000E+01 0. -1.
         -5    1    4    4    0  502  0.43255961340E+02  0.51772686748E+02 -0.31632635373E+02  0.74660584683E+02  0.47000000000E+01 0. -1.
          5    1    5    5  503    0  0.60301029214E+02 -0.98866798985E+01  0.38778624608E+02  0.72524701242E+02  0.47000000000E+01 0.  1.
         -5    1    5    5    0  503 -0.38090051931E+02 -0.33857247697E+02 -0.33942479378E+02  0.61411295248E+02  0.47000000000E+01 0.  1.
<mgrwt>
<rscale>  0 0.27348253E+03</rscale>
<asrwt>0</asrwt>
<pdfrwt beam="1">  1        2 0.24763085E-01 0.27348253E+03</pdfrwt>
<pdfrwt beam="2">  1       -2 0.17871777E-01 0.27348253E+03</pdfrwt>
<totfact> 0.55008446E+03</totfact>
</mgrwt>
</event>
<event>
 9    1  0.7997082E-001  0.2728862E+03  0.7818608E-02  0.1099639E+00
         -2   -1    0    0    0  501 -0.00000000000E+00  0.00000000000E+00  0.23464582883E+02  0.23464582883E+02  0.00000000000E+00 0. -1.
          2   -1    0    0  501    0  0.00000000000E+00 -0.00000000000E+00 -0.79339652157E+03  0.79339652157E+03  0.00000000000E+00 0. -1.
         35    2    1    2    0    0  0.00000000000E+00  0.00000000000E+00 -0.76993193869E+03  0.81686110445E+03  0.27288619195E+03 0.  0.
         25    2    3    3    0    0 -0.17740329680E+02 -0.23393044095E+02 -0.47870530746E+03  0.49867415830E+03  0.13658400693E+03 0.  0.
         25    2    3    3    0    0  0.17740329680E+02  0.23393044095E+02 -0.29122663122E+03  0.31818694616E+03  0.12477190454E+03 0.  0.
          5    1    4    4  502    0 -0.69458328425E+00  0.49672606321E+02 -0.91335932694E+02  0.10407782120E+03  0.47000000000E+01 0.  1.
         -5    1    4    4    0  502 -0.17045746396E+02 -0.73065650416E+02 -0.38736937477E+03  0.39459633710E+03  0.47000000000E+01 0.  1.
          5    1    5    5  503    0  0.93349815813E+01  0.55309126261E+02 -0.51943939884E+02  0.76593108172E+02  0.47000000000E+01 0.  1.
         -5    1    5    5    0  503  0.84053480988E+01 -0.31916082165E+02 -0.23928269134E+03  0.24159383798E+03  0.47000000000E+01 0.  1.
<mgrwt>
<rscale>  0 0.27288619E+03</rscale>
<asrwt>0</asrwt>
<pdfrwt beam="1">  1        2 0.12206100E+00 0.27288619E+03</pdfrwt>
<pdfrwt beam="2">  1       -2 0.36099360E-02 0.27288619E+03</pdfrwt>
<totfact> 0.11459900E+04</totfact>
</mgrwt>
</event>
<event>
 9    1  0.7997082E-001  0.2746189E+03  0.7818608E-02  0.1098665E+00
         -1   -1    0    0    0  501 -0.00000000000E+00  0.00000000000E+00  0.10237676705E+03  0.10237676705E+03  0.00000000000E+00 0.  1.
          1   -1    0    0  501    0  0.00000000000E+00 -0.00000000000E+00 -0.18416171866E+03  0.18416171866E+03  0.00000000000E+00 0.  1.
         35    2    1    2    0    0  0.71054273576E-14  0.00000000000E+00 -0.81784951610E+02  0.28653848570E+03  0.27461887313E+03 0.  0.
         25    2    3    3    0    0 -0.24973267032E+02  0.48753934773E+02 -0.58492547326E+02  0.14790432635E+03  0.12431291743E+03 0.  0.
         25    2    3    3    0    0  0.24973267032E+02 -0.48753934773E+02 -0.23292404283E+02  0.13863415935E+03  0.12520496723E+03 0.  0.
          5    1    4    4  502    0 -0.44141101543E+02  0.80740795277E+02 -0.20358770004E+02  0.94361445429E+02  0.47000000000E+01 0.  1.
         -5    1    4    4    0  502  0.19167834511E+02 -0.31986860504E+02 -0.38133777322E+02  0.53542880924E+02  0.47000000000E+01 0.  1.
          5    1    5    5  503    0 -0.42644773655E+02 -0.44956327813E+02 -0.32494533224E+02  0.70125835609E+02  0.47000000000E+01 0. -1.
         -5    1    5    5    0  503  0.67618040687E+02 -0.37976069600E+01  0.92021289404E+01  0.68508323743E+02  0.47000000000E+01 0. -1.
<mgrwt>
<rscale>  0 0.27461887E+03</rscale>
<asrwt>0</asrwt>
<pdfrwt beam="1">  1        1 0.28332572E-01 0.27461887E+03</pdfrwt>
<pdfrwt beam="2">  1       -1 0.15750272E-01 0.27461887E+03</pdfrwt>
<totfact> 0.48096131E+03</totfact>
</mgrwt>
</event>
<event>
 9    1  0.7997082E-001  0.2727346E+03  0.7818608E-02  0.1099725E+00
         -2   -1    0    0    0  501 -0.00000000000E+00  0.00000000000E+00  0.52393966829E+02  0.52393966829E+02  0.00000000000E+00 0. -1.
          2   -1    0    0  501    0  0.00000000000E+00 -0.00000000000E+00 -0.35492700766E+03  0.35492700766E+03  0.00000000000E+00 0. -1.
         35    2    1    2    0    0 -0.71054273576E-14  0.00000000000E+00 -0.30253304083E+03  0.40732097449E+03  0.27273455128E+03 0.  0.
         25    2    3    3    0    0  0.36344352195E+02  0.36407734405E+02 -0.15093570944E+03  0.20294075410E+03  0.12552659571E+03 0.  0.
         25    2    3    3    0    0 -0.36344352195E+02 -0.36407734405E+02 -0.15159733139E+03  0.20438022039E+03  0.12705545459E+03 0.  0.
          5    1    4    4  502    0  0.72654076601E+02  0.12878550417E+02 -0.40640490361E+02  0.84369493090E+02  0.47000000000E+01 0. -1.
         -5    1    4    4    0  502 -0.36309724406E+02  0.23529183988E+02 -0.11029521908E+03  0.11857126101E+03  0.47000000000E+01 0. -1.
          5    1    5    5  503    0  0.70609108355E+01 -0.57052034111E+02 -0.14447605578E+03  0.15556417246E+03  0.47000000000E+01 0. -1.
         -5    1    5    5    0  503 -0.43405263030E+02  0.20644299706E+02 -0.71212756040E+01  0.48816047928E+02  0.47000000000E+01 0. -1.
<mgrwt>
<rscale>  0 0.27273455E+03</rscale>
<asrwt>0</asrwt>
<pdfrwt beam="1">  1        2 0.54604157E-01 0.27273455E+03</pdfrwt>
<pdfrwt beam="2">  1       -2 0.80606100E-02 0.27273455E+03</pdfrwt>
<totfact> 0.84397304E+03</totfact>
</mgrwt>
</event>
<event>
 9    1  0.7997082E-001  0.2718837E+03  0.7818608E-02  0.1100206E+00
         -1   -1    0    0    0  501 -0.00000000000E+00  0.00000000000E+00  0.24834995020E+02  0.24834995020E+02  0.00000000000E+00 0. -1.
          1   -1    0    0  501    0  0.00000000000E+00 -0.00000000000E+00 -0.74411883436E+03  0.74411883436E+03  0.00000000000E+00 0. -1.
         35    2    1    2    0    0  0.00000000000E+00  0.17763568394E-14 -0.71928383934E+03  0.76895382938E+03  0.27188370709E+03 0.  0.
         25    2    3    3    0    0 -0.50764922507E+02  0.76884900215E+01 -0.41245541128E+03  0.43379245520E+03  0.12417824953E+03 0.  0.
         25    2    3    3    0    0  0.50764922507E+02 -0.76884900215E+01 -0.30682842806E+03  0.33516137419E+03  0.12471275894E+03 0.  0.
          5    1    4    4  502    0  0.39359408941E+02  0.15787451331E+02 -0.10740722319E+03  0.11557165866E+03  0.47000000000E+01 0.  1.
         -5    1    4    4    0  502 -0.90124331447E+02 -0.80989613090E+01 -0.30504818809E+03  0.31822079654E+03  0.47000000000E+01 0.  1.
          5    1    5    5  503    0 -0.12800550412E+02  0.41175088015E+02 -0.50626946898E+02  0.66666481204E+02  0.47000000000E+01 0. -1.
         -5    1    5    5    0  503  0.63565472919E+02 -0.48863578037E+02 -0.25620148117E+03  0.26849489298E+03  0.47000000000E+01 0. -1.
<mgrwt>
<rscale>  0 0.27188371E+03</rscale>
<asrwt>0</asrwt>
<pdfrwt beam="1">  1        1 0.11447983E+00 0.27188371E+03</pdfrwt>
<pdfrwt beam="2">  1       -1 0.38207682E-02 0.27188371E+03</pdfrwt>
<totfact> 0.67588010E+03</totfact>
</mgrwt>
</event>
<event>
 9    1  0.7997082E-001  0.2857172E+03  0.7818608E-02  0.1092607E+00
          2   -1    0    0  501    0  0.00000000000E+00  0.00000000000E+00  0.21125626570E+04  0.21125626570E+04  0.00000000000E+00 0. -1.
         -2   -1    0    0    0  501 -0.00000000000E+00 -0.00000000000E+00 -0.96605812763E+01  0.96605812763E+01  0.00000000000E+00 0. -1.
         35    2    1    2    0    0  0.00000000000E+00 -0.35527136788E-14  0.21029020757E+04  0.21222232383E+04  0.28571722559E+03 0.  0.
         25    2    3    3    0    0  0.11382260018E+02  0.30699515682E+00  0.15575882150E+04  0.15626468872E+04  0.12511832950E+03 0.  0.
         25    2    3    3    0    0 -0.11382260018E+02 -0.30699515682E+00  0.54531386070E+03  0.55957635109E+03  0.12501534279E+03 0.  0.
          5    1    4    4  502    0  0.12714024840E+02  0.18317709915E+02  0.50052859773E+02  0.54996033453E+02  0.47000000000E+01 0. -1.
         -5    1    4    4    0  502 -0.13317648211E+01 -0.18010714758E+02  0.15075353553E+04  0.15076508537E+04  0.47000000000E+01 0. -1.
          5    1    5    5  503    0  0.13885646348E+02 -0.24885730391E+02  0.50497379510E+03  0.50579910487E+03  0.47000000000E+01 0.  1.
         -5    1    5    5    0  503 -0.25267906366E+02  0.24578735234E+02  0.40340065604E+02  0.53777246218E+02  0.47000000000E+01 0.  1.
<mgrwt>
<rscale>  0 0.28571723E+03</rscale>
<asrwt>0</asrwt>
<pdfrwt beam="1">  1        2 0.32500927E+00 0.28571723E+03</pdfrwt>
<pdfrwt beam="2">  1       -2 0.14862450E-02 0.28571723E+03</pdfrwt>
<totfact> 0.77505760E+03</totfact>
</mgrwt>
</event>
<event>
 8    1  0.7997082E-001  0.4822712E+03  0.7818608E-02  0.1018513E+00
         -2   -1    0    0    0  501 -0.00000000000E+00  0.00000000000E+00  0.99197848416E+02  0.99197848416E+02  0.00000000000E+00 0. -1.
          2   -1    0    0  501    0  0.00000000000E+00 -0.00000000000E+00 -0.58616578591E+03  0.58616578591E+03  0.00000000000E+00 0. -1.
         25    2    1    2    0    0  0.25604923606E+02  0.19637163723E+03 -0.16251097250E+03  0.28517059427E+03  0.12527976546E+03 0.  0.
         25    2    1    2    0    0 -0.25604923606E+02 -0.19637163723E+03 -0.32445696500E+03  0.40019304006E+03  0.12515875979E+03 0.  0.
          5    1    3    3  502    0 -0.19386855268E+01  0.10110366494E+02 -0.77857287511E+02  0.78675442362E+02  0.47000000000E+01 0.  1.
         -5    1    3    3    0  502  0.27543609133E+02  0.18626127074E+03 -0.84653684988E+02  0.20649515191E+03  0.47000000000E+01 0.  1.
          5    1    4    4  503    0  0.29822491823E+02 -0.52634191969E+02 -0.29664777941E+02  0.67541307606E+02  0.47000000000E+01 0.  1.
         -5    1    4    4    0  503 -0.55427415430E+02 -0.14373744526E+03 -0.29479218706E+03  0.33265173245E+03  0.47000000000E+01 0.  1.
<mgrwt>
<rscale>  0 0.48227123E+03</rscale>
<asrwt>0</asrwt>
<pdfrwt beam="1">  1        2 0.90179351E-01 0.48227123E+03</pdfrwt>
<pdfrwt beam="2">  1       -2 0.15261207E-01 0.48227123E+03</pdfrwt>
<totfact> 0.17329970E+03</totfact>
</mgrwt>
</event>
<event>
 9    1  0.7997082E-001  0.2751410E+03  0.7818608E-02  0.1098373E+00
         -2   -1    0    0    0  501 -0.00000000000E+00  0.00000000000E+00  0.10116526900E+04  0.10116526900E+04  0.00000000000E+00 0.  1.
          2   -1    0    0  501    0  0.00000000000E+00 -0.00000000000E+00 -0.18707641286E+02  0.18707641286E+02  0.00000000000E+00 0.  1.
         35    2    1    2    0    0  0.00000000000E+00 -0.71054273576E-14  0.99294504874E+03  0.10303603313E+04  0.27514095029E+03 0.  0.
         25    2    3    3    0    0 -0.21855655516E+02 -0.57504882283E+02  0.41868348851E+03  0.44011803220E+03  0.12092781960E+03 0.  0.
         25    2    3    3    0    0  0.21855655516E+02  0.57504882283E+02  0.57426156023E+03  0.59024229911E+03  0.12175857645E+03 0.  0.
          5    1    4    4  502    0 -0.29395397173E+02  0.31055240584E+02  0.18801482634E+03  0.19287348772E+03  0.47000000000E+01 0. -1.
         -5    1    4    4    0  502  0.75397416564E+01 -0.88560122866E+02  0.23066866217E+03  0.24724454448E+03  0.47000000000E+01 0. -1.
          5    1    5    5  503    0  0.45671903922E+02  0.79733119184E+02  0.29415872077E+03  0.30821216087E+03  0.47000000000E+01 0.  1.
         -5    1    5    5    0  503 -0.23816248406E+02 -0.22228236901E+02  0.28010283945E+03  0.28203013824E+03  0.47000000000E+01 0.  1.
<mgrwt>
<rscale>  0 0.27514095E+03</rscale>
<asrwt>0</asrwt>
<pdfrwt beam="1">  1        2 0.28780994E-02 0.27514095E+03</pdfrwt>
<pdfrwt beam="2">  1       -2 0.15563883E+00 0.27514095E+03</pdfrwt>
<totfact> 0.95535874E+02</totfact>
</mgrwt>
</event>
<event>
 9    1  0.7997082E-001  0.2740516E+03  0.7818608E-02  0.1098983E+00
          2   -1    0    0  501    0  0.00000000000E+00  0.00000000000E+00  0.90749593550E+02  0.90749593550E+02  0.00000000000E+00 0. -1.
         -2   -1    0    0    0  501 -0.00000000000E+00 -0.00000000000E+00 -0.20689976112E+03  0.20689976112E+03  0.00000000000E+00 0. -1.
         35    2    1    2    0    0 -0.35527136788E-14  0.00000000000E+00 -0.11615016757E+03  0.29764935467E+03  0.27405159534E+03 0.  0.
         25    2    3    3    0    0  0.89421869190E+01  0.57693461324E+01 -0.11632301155E+03  0.17270248417E+03  0.12720792806E+03 0.  0.
         25    2    3    3    0    0 -0.89421869190E+01 -0.57693461324E+01  0.17284398346E+00  0.12494687050E+03  0.12449274079E+03 0.  0.
          5    1    4    4  502    0  0.12610417666E+02  0.52128146350E+02 -0.11380168576E+03  0.12589392343E+03  0.47000000000E+01 0.  1.
         -5    1    4    4    0  502 -0.36682307470E+01 -0.46358800218E+02 -0.25213257894E+01  0.46808560736E+02  0.47000000000E+01 0.  1.
          5    1    5    5  503    0 -0.24206953296E+02  0.55744883595E+02 -0.51372394976E+01  0.61171479176E+02  0.47000000000E+01 0. -1.
         -5    1    5    5    0  503  0.15264766377E+02 -0.61514229727E+02  0.53100834810E+01  0.63775391320E+02  0.47000000000E+01 0. -1.
<mgrwt>
<rscale>  0 0.27405160E+03</rscale>
<asrwt>0</asrwt>
<pdfrwt beam="1">  1        2 0.13961476E-01 0.27405160E+03</pdfrwt>
<pdfrwt beam="2">  1       -2 0.31830732E-01 0.27405160E+03</pdfrwt>
<totfact> 0.38741098E+03</totfact>
</mgrwt>
</event>
<event>
 9    1  0.7997082E-001  0.2746887E+03  0.7818608E-02  0.1098626E+00
         -2   -1    0    0    0  501 -0.00000000000E+00  0.00000000000E+00  0.27493063915E+02  0.27493063915E+02  0.00000000000E+00 0. -1.
          2   -1    0    0  501    0  0.00000000000E+00 -0.00000000000E+00 -0.68611753714E+03  0.68611753714E+03  0.00000000000E+00 0. -1.
         35    2    1    2    0    0  0.00000000000E+00  0.00000000000E+00 -0.65862447323E+03  0.71361060106E+03  0.27468872057E+03 0.  0.
         25    2    3    3    0    0 -0.53119022370E+02  0.17082771503E+02 -0.38091373335E+03  0.40403601259E+03  0.12262289999E+03 0.  0.
         25    2    3    3    0    0  0.53119022370E+02 -0.17082771503E+02 -0.27771073988E+03  0.30957458846E+03  0.12489883569E+03 0.  0.
          5    1    4    4  502    0 -0.37599531260E+02 -0.51364152230E+02 -0.19952138181E+03  0.20948239230E+03  0.47000000000E+01 0. -1.
         -5    1    4    4    0  502 -0.15519491110E+02  0.68446923733E+02 -0.18139235154E+03  0.19455362029E+03  0.47000000000E+01 0. -1.
          5    1    5    5  503    0  0.41635458115E+01  0.45822070686E+02 -0.16558649560E+03  0.17192432870E+03  0.47000000000E+01 0. -1.
         -5    1    5    5    0  503  0.48955476559E+02 -0.62904842189E+02 -0.11212424428E+03  0.13765025976E+03  0.47000000000E+01 0. -1.
<mgrwt>
<rscale>  0 0.27468872E+03</rscale>
<asrwt>0</asrwt>
<pdfrwt beam="1">  1        2 0.10555656E+00 0.27468872E+03</pdfrwt>
<pdfrwt beam="2">  1       -2 0.42297017E-02 0.27468872E+03</pdfrwt>
<totfact> 0.10810474E+04</totfact>
</mgrwt>
</event>
<event>
 9    1  0.7997082E-001  0.2795469E+03  0.7818608E-02  0.1095937E+00
         -2   -1    0    0    0  501 -0.00000000000E+00  0.00000000000E+00  0.31495586249E+02  0.31495586249E+02  0.00000000000E+00 0. -1.
          2   -1    0    0  501    0  0.00000000000E+00 -0.00000000000E+00 -0.62029688995E+03  0.62029688995E+03  0.00000000000E+00 0. -1.
         35    2    1    2    0    0  0.00000000000E+00  0.00000000000E+00 -0.58880130370E+03  0.65179247620E+03  0.27954687762E+03 0.  0.
         25    2    3    3    0    0  0.29642451230E+02  0.45286938380E+02 -0.23445626776E+03  0.27220554241E+03  0.12726560465E+03 0.  0.
         25    2    3    3    0    0 -0.29642451230E+02 -0.45286938380E+02 -0.35434503595E+03  0.37958693379E+03  0.12488496346E+03 0.  0.
          5    1    4    4  502    0  0.43198676535E+02  0.47159019021E+02 -0.36630038477E+02  0.73850852725E+02  0.47000000000E+01 0.  1.
         -5    1    4    4    0  502 -0.13556225305E+02 -0.18720806414E+01 -0.19782622928E+03  0.19835468969E+03  0.47000000000E+01 0.  1.
          5    1    5    5  503    0  0.40598698127E+01  0.35916922351E+02 -0.18673138317E+03  0.19025563675E+03  0.47000000000E+01 0.  1.
         -5    1    5    5    0  503 -0.33702321043E+02 -0.81203860730E+02 -0.16761365277E+03  0.18933129703E+03  0.47000000000E+01 0.  1.
<mgrwt>
<rscale>  0 0.27954688E+03</rscale>
<asrwt>0</asrwt>
<pdfrwt beam="1">  1        2 0.95430281E-01 0.27954688E+03</pdfrwt>
<pdfrwt beam="2">  1       -2 0.48454753E-02 0.27954688E+03</pdfrwt>
<totfact> 0.99283617E+03</totfact>
</mgrwt>
</event>
<event>
 9    1  0.7997082E-001  0.2810685E+03  0.7818608E-02  0.1095107E+00
          1   -1    0    0  501    0  0.00000000000E+00  0.00000000000E+00  0.83857214695E+03  0.83857214695E+03  0.00000000000E+00 0. -1.
         -1   -1    0    0    0  501 -0.00000000000E+00 -0.00000000000E+00 -0.23551792967E+02  0.23551792967E+02  0.00000000000E+00 0. -1.
         35    2    1    2    0    0  0.00000000000E+00 -0.14210854715E-13  0.81502035398E+03  0.86212393991E+03  0.28106851544E+03 0.  0.
         25    2    3    3    0    0 -0.11443196503E+02 -0.56372866186E+02  0.31914874031E+03  0.34766433087E+03  0.12532247097E+03 0.  0.
         25    2    3    3    0    0  0.11443196503E+02  0.56372866186E+02  0.49587161367E+03  0.51445960904E+03  0.12438321954E+03 0.  0.
          5    1    4    4  502    0 -0.11486141495E+02 -0.96155074727E+02  0.24287097142E+03  0.26150741596E+03  0.47000000000E+01 0. -1.
         -5    1    4    4    0  502  0.42944992300E-01  0.39782208540E+02  0.76277768887E+02  0.86156914911E+02  0.47000000000E+01 0. -1.
          5    1    5    5  503    0  0.38088859168E+02  0.85280648173E+02  0.28649044439E+03  0.30136757435E+03  0.47000000000E+01 0. -1.
         -5    1    5    5    0  503 -0.26645662665E+02 -0.28907781986E+02  0.20938116929E+03  0.21309203470E+03  0.47000000000E+01 0. -1.
<mgrwt>
<rscale>  0 0.28106852E+03</rscale>
<asrwt>0</asrwt>
<pdfrwt beam="1">  1        1 0.12901108E+00 0.28106852E+03</pdfrwt>
<pdfrwt beam="2">  1       -1 0.36233534E-02 0.28106852E+03</pdfrwt>
<totfact> 0.60940675E+03</totfact>
</mgrwt>
</event>
<event>
 9    1  0.7997082E-001  0.2761062E+03  0.7818608E-02  0.1097835E+00
          1   -1    0    0  501    0  0.00000000000E+00  0.00000000000E+00  0.10411054214E+04  0.10411054214E+04  0.00000000000E+00 0.  1.
         -1   -1    0    0    0  501 -0.00000000000E+00 -0.00000000000E+00 -0.18306174467E+02  0.18306174467E+02  0.00000000000E+00 0.  1.
         35    2    1    2    0    0  0.00000000000E+00 -0.35527136788E-14  0.10227992469E+04  0.10594115958E+04  0.27610619321E+03 0.  0.
         25    2    3    3    0    0  0.56648764150E+02  0.13512566996E+02  0.54722980520E+03  0.56425390456E+03  0.12462077343E+03 0.  0.
         25    2    3    3    0    0 -0.56648764150E+02 -0.13512566996E+02  0.47556944171E+03  0.49515769128E+03  0.12499269338E+03 0.  0.
          5    1    4    4  502    0  0.62529465417E+02  0.41782792913E+02  0.51595714206E+03  0.52143033885E+03  0.47000000000E+01 0.  1.
         -5    1    4    4    0  502 -0.58807012665E+01 -0.28270225917E+02  0.31272663143E+02  0.42823565718E+02  0.47000000000E+01 0.  1.
          5    1    5    5  503    0 -0.45767548454E+02  0.37396456802E+02  0.39290793337E+03  0.39735613444E+03  0.47000000000E+01 0. -1.
         -5    1    5    5    0  503 -0.10881215697E+02 -0.50909023799E+02  0.82661508338E+02  0.97801556838E+02  0.47000000000E+01 0. -1.
<mgrwt>
<rscale>  0 0.27610619E+03</rscale>
<asrwt>0</asrwt>
<pdfrwt beam="1">  1        1 0.16017002E+00 0.27610619E+03</pdfrwt>
<pdfrwt beam="2">  1       -1 0.28163353E-02 0.27610619E+03</pdfrwt>
<totfact> 0.61687307E+03</totfact>
</mgrwt>
</event>
<event>
 9    1  0.7997082E-001  0.2731589E+03  0.7818608E-02  0.1099485E+00
          1   -1    0    0  501    0  0.00000000000E+00  0.00000000000E+00  0.58131482267E+03  0.58131482267E+03  0.00000000000E+00 0. -1.
         -1   -1    0    0    0  501 -0.00000000000E+00 -0.00000000000E+00 -0.32089225208E+02  0.32089225208E+02  0.00000000000E+00 0. -1.
         35    2    1    2    0    0  0.35527136788E-14  0.71054273576E-14  0.54922559746E+03  0.61340404788E+03  0.27315887144E+03 0.  0.
         25    2    3    3    0    0 -0.22492850000E+02 -0.49488235432E+02  0.27156723297E+03  0.30395298166E+03  0.12523433749E+03 0.  0.
         25    2    3    3    0    0  0.22492850000E+02  0.49488235432E+02  0.27765836449E+03  0.30945106622E+03  0.12534265541E+03 0.  0.
          5    1    4    4  502    0 -0.22730451391E+02 -0.91297610544E+02  0.19599901796E+03  0.21746179469E+03  0.47000000000E+01 0. -1.
         -5    1    4    4    0  502  0.23760139112E+00  0.41809375112E+02  0.75568215018E+02  0.86491186966E+02  0.47000000000E+01 0. -1.
          5    1    5    5  503    0  0.43488352201E+02  0.18258871354E+02  0.24290993513E+02  0.53261294822E+02  0.47000000000E+01 0. -1.
         -5    1    5    5    0  503 -0.20995502201E+02  0.31229364078E+02  0.25336737097E+03  0.25618977140E+03  0.47000000000E+01 0. -1.
<mgrwt>
<rscale>  0 0.27315887E+03</rscale>
<asrwt>0</asrwt>
<pdfrwt beam="1">  1        1 0.89433042E-01 0.27315887E+03</pdfrwt>
<pdfrwt beam="2">  1       -1 0.49368043E-02 0.27315887E+03</pdfrwt>
<totfact> 0.65670942E+03</totfact>
</mgrwt>
</event>
<event>
 9    1  0.7997082E-001  0.2791666E+03  0.7818608E-02  0.1096145E+00
         -2   -1    0    0    0  501 -0.00000000000E+00  0.00000000000E+00  0.63516776784E+01  0.63516776784E+01  0.00000000000E+00 0. -1.
          2   -1    0    0  501    0  0.00000000000E+00 -0.00000000000E+00 -0.30674566983E+04  0.30674566983E+04  0.00000000000E+00 0. -1.
         35    2    1    2    0    0  0.00000000000E+00  0.71054273576E-14 -0.30611050207E+04  0.30738083760E+04  0.27916658998E+03 0.  0.
         25    2    3    3    0    0  0.17104162542E+02 -0.30508410020E+02 -0.21025165900E+04  0.21064368966E+04  0.12360045547E+03 0.  0.
         25    2    3    3    0    0 -0.17104162542E+02  0.30508410020E+02 -0.95858843065E+03  0.96737147943E+03  0.12526964665E+03 0.  0.
          5    1    4    4  502    0  0.15202282994E+00 -0.49467106892E+02 -0.20029442130E+04  0.20035604877E+04  0.47000000000E+01 0. -1.
         -5    1    4    4    0  502  0.16952139712E+02  0.18958696873E+02 -0.99572377033E+02  0.10287640884E+03  0.47000000000E+01 0. -1.
          5    1    5    5  503    0 -0.30802778456E+02  0.76074659781E+02 -0.61754292018E+03  0.62299078106E+03  0.47000000000E+01 0. -1.
         -5    1    5    5    0  503  0.13698615914E+02 -0.45566249762E+02 -0.34104551047E+03  0.34438069836E+03  0.47000000000E+01 0. -1.
<mgrwt>
<rscale>  0 0.27916659E+03</rscale>
<asrwt>0</asrwt>
<pdfrwt beam="1">  1        2 0.47191635E+00 0.27916659E+03</pdfrwt>
<pdfrwt beam="2">  1       -2 0.97718132E-03 0.27916659E+03</pdfrwt>
<totfact> 0.41857809E+03</totfact>
</mgrwt>
</event>
<event>
 9    1  0.7997082E-001  0.2760028E+03  0.7818608E-02  0.1097892E+00
         -1   -1    0    0    0  501 -0.00000000000E+00  0.00000000000E+00  0.14084537549E+02  0.14084537549E+02  0.00000000000E+00 0. -1.
          1   -1    0    0  501    0  0.00000000000E+00 -0.00000000000E+00 -0.13521489614E+04  0.13521489614E+04  0.00000000000E+00 0. -1.
         35    2    1    2    0    0  0.00000000000E+00  0.71054273576E-14 -0.13380644238E+04  0.13662334989E+04  0.27600284650E+03 0.  0.
         25    2    3    3    0    0  0.46855797584E+02  0.35636241537E+02 -0.60646304734E+03  0.62192993844E+03  0.12463552086E+03 0.  0.
         25    2    3    3    0    0 -0.46855797584E+02 -0.35636241537E+02 -0.73160137650E+03  0.74430356050E+03  0.12361961251E+03 0.  0.
          5    1    4    4  502    0  0.33913238098E+02 -0.43318404526E+02 -0.19164893366E+03  0.19944421692E+03  0.47000000000E+01 0. -1.
         -5    1    4    4    0  502  0.12942559486E+02  0.78954646063E+02 -0.41481411368E+03  0.42248572152E+03  0.47000000000E+01 0. -1.
          5    1    5    5  503    0 -0.32380428480E+02  0.17117747272E+02 -0.60723181989E+03  0.60835358346E+03  0.47000000000E+01 0. -1.
         -5    1    5    5    0  503 -0.14475369104E+02 -0.52753988809E+02 -0.12436955661E+03  0.13594997704E+03  0.47000000000E+01 0. -1.
<mgrwt>
<rscale>  0 0.27600285E+03</rscale>
<asrwt>0</asrwt>
<pdfrwt beam="1">  1        1 0.20802297E+00 0.27600285E+03</pdfrwt>
<pdfrwt beam="2">  1       -1 0.21668514E-02 0.27600285E+03</pdfrwt>
<totfact> 0.54817711E+03</totfact>
</mgrwt>
</event>
<event>
 9    1  0.7997082E-001  0.2751469E+03  0.7818608E-02  0.1098370E+00
          2   -1    0    0  501    0  0.00000000000E+00  0.00000000000E+00  0.11717081290E+03  0.11717081290E+03  0.00000000000E+00 0.  1.
         -2   -1    0    0    0  501 -0.00000000000E+00 -0.00000000000E+00 -0.16152876195E+03  0.16152876195E+03  0.00000000000E+00 0.  1.
         35    2    1    2    0    0  0.71054273576E-14  0.71054273576E-14 -0.44357949044E+02  0.27869957485E+03  0.27514691599E+03 0.  0.
         25    2    3    3    0    0  0.18365667353E+02 -0.29950522516E+02 -0.76423822191E+02  0.14542552079E+03  0.11863241531E+03 0.  0.
         25    2    3    3    0    0 -0.18365667353E+02  0.29950522516E+02  0.32065873148E+02  0.13327405406E+03  0.12449667356E+03 0.  0.
          5    1    4    4  502    0  0.68567248899E+02 -0.10834222354E+02 -0.47388321036E+02  0.84181892152E+02  0.47000000000E+01 0.  1.
         -5    1    4    4    0  502 -0.50201581547E+02 -0.19116300162E+02 -0.29035501156E+02  0.61243628640E+02  0.47000000000E+01 0.  1.
          5    1    5    5  503    0 -0.14074089580E+01 -0.41191789847E+02  0.42335412190E+02  0.59271590801E+02  0.47000000000E+01 0. -1.
         -5    1    5    5    0  503 -0.16958258395E+02  0.71142312363E+02 -0.10269539042E+02  0.74002463258E+02  0.47000000000E+01 0. -1.
<mgrwt>
<rscale>  0 0.27514692E+03</rscale>
<asrwt>0</asrwt>
<pdfrwt beam="1">  1        2 0.18026279E-01 0.27514692E+03</pdfrwt>
<pdfrwt beam="2">  1       -2 0.24850579E-01 0.27514692E+03</pdfrwt>
<totfact> 0.44750922E+03</totfact>
</mgrwt>
</event>
<event>
 9    1  0.7997082E-001  0.2750700E+03  0.7818608E-02  0.1098412E+00
         -1   -1    0    0    0  501 -0.00000000000E+00  0.00000000000E+00  0.89311006250E+01  0.89311006250E+01  0.00000000000E+00 0. -1.
          1   -1    0    0  501    0  0.00000000000E+00 -0.00000000000E+00 -0.21179778712E+04  0.21179778712E+04  0.00000000000E+00 0. -1.
         35    2    1    2    0    0 -0.35527136788E-14  0.00000000000E+00 -0.21090467706E+04  0.21269089718E+04  0.27506998011E+03 0.  0.
         25    2    3    3    0    0 -0.28783894498E+02  0.87753397272E+01 -0.70865376923E+03  0.72029184124E+03  0.12539797744E+03 0.  0.
         25    2    3    3    0    0  0.28783894498E+02 -0.87753397272E+01 -0.14003930013E+04  0.14066171306E+04  0.12870771019E+03 0.  0.
          5    1    4    4  502    0 -0.35930849945E+01  0.53882602926E+02 -0.56432804821E+03  0.56692546349E+03  0.47000000000E+01 0.  1.
         -5    1    4    4    0  502 -0.25190809503E+02 -0.45107263199E+02 -0.14432572102E+03  0.15336637775E+03  0.47000000000E+01 0.  1.
          5    1    5    5  503    0  0.10221852766E+02 -0.92344009065E+00 -0.13688168009E+04  0.13688633473E+04  0.47000000000E+01 0. -1.
         -5    1    5    5    0  503  0.18562041731E+02 -0.78518996366E+01 -0.31576200419E+02  0.37753783308E+02  0.47000000000E+01 0. -1.
<mgrwt>
<rscale>  0 0.27506998E+03</rscale>
<asrwt>0</asrwt>
<pdfrwt beam="1">  1        1 0.32584285E+00 0.27506998E+03</pdfrwt>
<pdfrwt beam="2">  1       -1 0.13740151E-02 0.27506998E+03</pdfrwt>
<totfact> 0.33530622E+03</totfact>
</mgrwt>
</event>
<event>
 9    1  0.7997082E-001  0.2763337E+03  0.7818608E-02  0.1097708E+00
         -2   -1    0    0    0  501 -0.00000000000E+00  0.00000000000E+00  0.23224263324E+02  0.23224263324E+02  0.00000000000E+00 0. -1.
          2   -1    0    0  501    0  0.00000000000E+00 -0.00000000000E+00 -0.82198879575E+03  0.82198879575E+03  0.00000000000E+00 0. -1.
         35    2    1    2    0    0  0.00000000000E+00  0.00000000000E+00 -0.79876453242E+03  0.84521305907E+03  0.27633374200E+03 0.  0.
         25    2    3    3    0    0 -0.18959799156E+02 -0.46746951984E+01 -0.22750749125E+03  0.26018050991E+03  0.12471131626E+03 0.  0.
         25    2    3    3    0    0  0.18959799156E+02  0.46746951984E+01 -0.57125704118E+03  0.58503254917E+03  0.12468821007E+03 0.  0.
          5    1    4    4  502    0 -0.14333271415E+02  0.47444501342E+02 -0.35577403723E+02  0.61190399841E+02  0.47000000000E+01 0. -1.
         -5    1    4    4    0  502 -0.46265277418E+01 -0.52119196541E+02 -0.19193008752E+03  0.19899011007E+03  0.47000000000E+01 0. -1.
          5    1    5    5  503    0  0.18779758589E+01  0.41819707902E+02 -0.67289754304E+02  0.79387755961E+02  0.47000000000E+01 0.  1.
         -5    1    5    5    0  503  0.17081823297E+02 -0.37145012703E+02 -0.50396728687E+03  0.50564479320E+03  0.47000000000E+01 0.  1.
<mgrwt>
<rscale>  0 0.27633374E+03</rscale>
<asrwt>0</asrwt>
<pdfrwt beam="1">  1        2 0.12645979E+00 0.27633374E+03</pdfrwt>
<pdfrwt beam="2">  1       -2 0.35729642E-02 0.27633374E+03</pdfrwt>
<totfact> 0.11128150E+04</totfact>
</mgrwt>
</event>
<event>
 9    1  0.7997082E-001  0.2734698E+03  0.7818608E-02  0.1099310E+00
         -2   -1    0    0    0  501 -0.00000000000E+00  0.00000000000E+00  0.21757647483E+02  0.21757647483E+02  0.00000000000E+00 0. -1.
          2   -1    0    0  501    0  0.00000000000E+00 -0.00000000000E+00 -0.85930377520E+03  0.85930377520E+03  0.00000000000E+00 0. -1.
         35    2    1    2    0    0 -0.71054273576E-14 -0.35527136788E-14 -0.83754612772E+03  0.88106142268E+03  0.27346976887E+03 0.  0.
         25    2    3    3    0    0  0.11223666178E+02  0.10795461542E+02 -0.24716045548E+03  0.27744254653E+03  0.12507423075E+03 0.  0.
         25    2    3    3    0    0 -0.11223666178E+02 -0.10795461542E+02 -0.59038567224E+03  0.60361887616E+03  0.12473168402E+03 0.  0.
          5    1    4    4  502    0  0.22348579320E+02 -0.36087567434E+02 -0.21527967830E+03  0.21947483093E+03  0.47000000000E+01 0. -1.
         -5    1    4    4    0  502 -0.11124913142E+02  0.46883028976E+02 -0.31880777180E+02  0.57967715601E+02  0.47000000000E+01 0. -1.
          5    1    5    5  503    0 -0.67324253055E+02 -0.35140385854E-01 -0.35475798150E+03  0.36112030091E+03  0.47000000000E+01 0.  1.
         -5    1    5    5    0  503  0.56100586877E+02 -0.10760321156E+02 -0.23562769073E+03  0.24249857525E+03  0.47000000000E+01 0.  1.
<mgrwt>
<rscale>  0 0.27346977E+03</rscale>
<asrwt>0</asrwt>
<pdfrwt beam="1">  1        2 0.13220060E+00 0.27346977E+03</pdfrwt>
<pdfrwt beam="2">  1       -2 0.33473300E-02 0.27346977E+03</pdfrwt>
<totfact> 0.11577045E+04</totfact>
</mgrwt>
</event>
<event>
 9    1  0.7997082E-001  0.2818629E+03  0.7818608E-02  0.1094676E+00
         -1   -1    0    0    0  501 -0.00000000000E+00  0.00000000000E+00  0.92422126530E+02  0.92422126530E+02  0.00000000000E+00 0.  1.
          1   -1    0    0  501    0  0.00000000000E+00 -0.00000000000E+00 -0.21490176059E+03  0.21490176059E+03  0.00000000000E+00 0.  1.
         35    2    1    2    0    0  0.35527136788E-14  0.00000000000E+00 -0.12247963406E+03  0.30732388712E+03  0.28186292916E+03 0.  0.
         25    2    3    3    0    0 -0.24016588638E+02 -0.24411413942E+02 -0.11888256322E+03  0.17607813958E+03  0.12529059716E+03 0.  0.
         25    2    3    3    0    0  0.24016588638E+02  0.24411413942E+02 -0.35970708400E+01  0.13124574755E+03  0.12664830702E+03 0.  0.
          5    1    4    4  502    0 -0.23941698448E+02 -0.62760791593E+02 -0.11980402181E+03  0.13743076631E+03  0.47000000000E+01 0.  1.
         -5    1    4    4    0  502 -0.74890189772E-01  0.38349377651E+02  0.92145858588E+00  0.38647373270E+02  0.47000000000E+01 0.  1.
          5    1    5    5  503    0  0.42299906504E+02 -0.18545127655E+02 -0.47905418238E+02  0.66709991355E+02  0.47000000000E+01 0. -1.
         -5    1    5    5    0  503 -0.18283317866E+02  0.42956541597E+02  0.44308347398E+02  0.64535756193E+02  0.47000000000E+01 0. -1.
<mgrwt>
<rscale>  0 0.28186293E+03</rscale>
<asrwt>0</asrwt>
<pdfrwt beam="1">  1        1 0.33061809E-01 0.28186293E+03</pdfrwt>
<pdfrwt beam="2">  1       -1 0.14218789E-01 0.28186293E+03</pdfrwt>
<totfact> 0.46600348E+03</totfact>
</mgrwt>
</event>
<event>
 9    1  0.7997082E-001  0.2752372E+03  0.7818608E-02  0.1098319E+00
         -2   -1    0    0    0  501 -0.00000000000E+00  0.00000000000E+00  0.16495779438E+02  0.16495779438E+02  0.00000000000E+00 0. -1.
          2   -1    0    0  501    0  0.00000000000E+00 -0.00000000000E+00 -0.11481049008E+04  0.11481049008E+04  0.00000000000E+00 0. -1.
         35    2    1    2    0    0  0.00000000000E+00  0.28421709430E-13 -0.11316091214E+04  0.11646006803E+04  0.27523724469E+03 0.  0.
         25    2    3    3    0    0  0.50742444393E+01 -0.64280844676E+02 -0.58818023814E+03  0.60482156843E+03  0.12528113249E+03 0.  0.
         25    2    3    3    0    0 -0.50742444393E+01  0.64280844676E+02 -0.54342888325E+03  0.55977911183E+03  0.11781310599E+03 0.  0.
          5    1    4    4  502    0 -0.22054663174E+02 -0.53699359226E+00 -0.14193841342E+02  0.26650547121E+02  0.47000000000E+01 0.  1.
         -5    1    4    4    0  502  0.27128907613E+02 -0.63743851084E+02 -0.57398639680E+03  0.57817102131E+03  0.47000000000E+01 0.  1.
          5    1    5    5  503    0 -0.20955885913E+02  0.67977847871E+02 -0.53687490910E+03  0.54158738443E+03  0.47000000000E+01 0.  1.
         -5    1    5    5    0  503  0.15881641473E+02 -0.36970031953E+01 -0.65539741487E+01  0.18191727396E+02  0.47000000000E+01 0.  1.
<mgrwt>
<rscale>  0 0.27523724E+03</rscale>
<asrwt>0</asrwt>
<pdfrwt beam="1">  1        2 0.17663158E+00 0.27523724E+03</pdfrwt>
<pdfrwt beam="2">  1       -2 0.25378114E-02 0.27523724E+03</pdfrwt>
<totfact> 0.11616106E+04</totfact>
</mgrwt>
</event>
<event>
 9    1  0.7997082E-001  0.2748306E+03  0.7818608E-02  0.1098546E+00
          3   -1    0    0  501    0  0.00000000000E+00  0.00000000000E+00  0.32197894312E+03  0.32197894312E+03  0.00000000000E+00 0.  1.
         -3   -1    0    0    0  501 -0.00000000000E+00 -0.00000000000E+00 -0.58646567246E+02  0.58646567246E+02  0.00000000000E+00 0.  1.
         35    2    1    2    0    0  0.71054273576E-14  0.00000000000E+00  0.26333237588E+03  0.38062551037E+03  0.27483056409E+03 0.  0.
         25    2    3    3    0    0 -0.51090532029E+02  0.21221569084E+02  0.13462812527E+03  0.19218210927E+03  0.12549355980E+03 0.  0.
         25    2    3    3    0    0  0.51090532029E+02 -0.21221569084E+02  0.12870425061E+03  0.18844340110E+03  0.12603782701E+03 0.  0.
          5    1    4    4  502    0 -0.73987536006E+02 -0.12672019839E+01  0.25617526498E+02  0.78448129034E+02  0.47000000000E+01 0.  1.
         -5    1    4    4    0  502  0.22897003977E+02  0.22488771067E+02  0.10901059877E+03  0.11373398024E+03  0.47000000000E+01 0.  1.
          5    1    5    5  503    0  0.73047175758E+02  0.26805335607E+02  0.10395318986E+03  0.12993371997E+03  0.47000000000E+01 0. -1.
         -5    1    5    5    0  503 -0.21956643729E+02 -0.48026904691E+02  0.24751060750E+02  0.58509681133E+02  0.47000000000E+01 0. -1.
<mgrwt>
<rscale>  0 0.27483056E+03</rscale>
<asrwt>0</asrwt>
<pdfrwt beam="1">  1        3 0.49535221E-01 0.27483056E+03</pdfrwt>
<pdfrwt beam="2">  1       -3 0.90225490E-02 0.27483056E+03</pdfrwt>
<totfact> 0.90610278E+02</totfact>
</mgrwt>
</event>
<event>
 9    1  0.7997082E-001  0.2774351E+03  0.7818608E-02  0.1097098E+00
         -1   -1    0    0    0  501 -0.00000000000E+00  0.00000000000E+00  0.14696036341E+03  0.14696036341E+03  0.00000000000E+00 0.  1.
          1   -1    0    0  501    0  0.00000000000E+00 -0.00000000000E+00 -0.13093703127E+03  0.13093703127E+03  0.00000000000E+00 0.  1.
         35    2    1    2    0    0  0.00000000000E+00  0.35527136788E-14  0.16023332138E+02  0.27789739468E+03  0.27743506411E+03 0.  0.
         25    2    3    3    0    0  0.53038905032E+02 -0.17913117223E+02 -0.12713827360E+02  0.13761019805E+03  0.12506366373E+03 0.  0.
         25    2    3    3    0    0 -0.53038905032E+02  0.17913117223E+02  0.28737159498E+02  0.14028719663E+03  0.12538208798E+03 0.  0.
          5    1    4    4  502    0 -0.27193161219E+02  0.16590133878E+02  0.26554617035E+02  0.41736533697E+02  0.47000000000E+01 0. -1.
         -5    1    4    4    0  502  0.80232066251E+02 -0.34503251101E+02 -0.39268444394E+02  0.95873664354E+02  0.47000000000E+01 0. -1.
          5    1    5    5  503    0 -0.58369836818E+02  0.63825120104E+02  0.19110471818E+01  0.86639632430E+02  0.47000000000E+01 0. -1.
         -5    1    5    5    0  503  0.53309317859E+01 -0.45912002881E+02  0.26826112316E+02  0.53647564196E+02  0.47000000000E+01 0. -1.
<mgrwt>
<rscale>  0 0.27743506E+03</rscale>
<asrwt>0</asrwt>
<pdfrwt beam="1">  1        1 0.20144159E-01 0.27743506E+03</pdfrwt>
<pdfrwt beam="2">  1       -1 0.22609287E-01 0.27743506E+03</pdfrwt>
<totfact> 0.41428112E+03</totfact>
</mgrwt>
</event>
<event>
 9    1  0.7997082E-001  0.2628351E+03  0.7818608E-02  0.1105452E+00
          2   -1    0    0  501    0  0.00000000000E+00  0.00000000000E+00  0.12583112653E+04  0.12583112653E+04  0.00000000000E+00 0.  1.
         -2   -1    0    0    0  501 -0.00000000000E+00 -0.00000000000E+00 -0.13725202443E+02  0.13725202443E+02  0.00000000000E+00 0.  1.
         35    2    1    2    0    0  0.00000000000E+00  0.00000000000E+00  0.12445860628E+04  0.12720364677E+04  0.26283513351E+03 0.  0.
         25    2    3    3    0    0  0.10417603978E+02  0.33183814744E+02  0.71162218371E+03  0.72338575258E+03  0.12518435471E+03 0.  0.
         25    2    3    3    0    0 -0.10417603978E+02 -0.33183814744E+02  0.53296387910E+03  0.54865071511E+03  0.12552855743E+03 0.  0.
          5    1    4    4  502    0  0.32210474791E+02  0.41817533966E+02  0.11882249538E+03  0.13010417457E+03  0.47000000000E+01 0. -1.
         -5    1    4    4    0  502 -0.21792870813E+02 -0.86337192217E+01  0.59279968833E+03  0.59328157801E+03  0.47000000000E+01 0. -1.
          5    1    5    5  503    0  0.48240406010E+02 -0.44544740465E+02  0.20674859905E+03  0.21697567579E+03  0.47000000000E+01 0.  1.
         -5    1    5    5    0  503 -0.58658009988E+02  0.11360925721E+02  0.32621528005E+03  0.33167503932E+03  0.47000000000E+01 0.  1.
<mgrwt>
<rscale>  0 0.26283513E+03</rscale>
<asrwt>0</asrwt>
<pdfrwt beam="1">  1        2 0.19358626E+00 0.26283513E+03</pdfrwt>
<pdfrwt beam="2">  1       -2 0.21115706E-02 0.26283513E+03</pdfrwt>
<totfact> 0.13176500E+04</totfact>
</mgrwt>
</event>
<event>
 9    1  0.7997082E-001  0.2753211E+03  0.7818608E-02  0.1098272E+00
         -1   -1    0    0    0  501 -0.00000000000E+00  0.00000000000E+00  0.55674799693E+02  0.55674799693E+02  0.00000000000E+00 0. -1.
          1   -1    0    0  501    0  0.00000000000E+00 -0.00000000000E+00 -0.34037710267E+03  0.34037710267E+03  0.00000000000E+00 0. -1.
         35    2    1    2    0    0  0.00000000000E+00 -0.35527136788E-14 -0.28470230298E+03  0.39605190237E+03  0.27532109989E+03 0.  0.
         25    2    3    3    0    0  0.32547995079E+02  0.41063377611E+01 -0.73498036408E+02  0.14835704541E+03  0.12462591052E+03 0.  0.
         25    2    3    3    0    0 -0.32547995079E+02 -0.41063377611E+01 -0.21120426657E+03  0.24769485696E+03  0.12517693857E+03 0.  0.
          5    1    4    4  502    0 -0.30908294986E+02 -0.40398273959E+02 -0.25807382603E+02  0.57231584240E+02  0.47000000000E+01 0. -1.
         -5    1    4    4    0  502  0.63456290066E+02  0.44504611720E+02 -0.47690653806E+02  0.91125461171E+02  0.47000000000E+01 0. -1.
          5    1    5    5  503    0  0.38134563257E+02  0.19234441083E+02 -0.13237065950E+03  0.13917000444E+03  0.47000000000E+01 0.  1.
         -5    1    5    5    0  503 -0.70682558336E+02 -0.23340778844E+02 -0.78833607071E+02  0.10852485252E+03  0.47000000000E+01 0.  1.
<mgrwt>
<rscale>  0 0.27532110E+03</rscale>
<asrwt>0</asrwt>
<pdfrwt beam="1">  1        1 0.52365709E-01 0.27532110E+03</pdfrwt>
<pdfrwt beam="2">  1       -1 0.85653536E-02 0.27532110E+03</pdfrwt>
<totfact> 0.57443209E+03</totfact>
</mgrwt>
</event>
<event>
 9    1  0.7997082E-001  0.2806691E+03  0.7818608E-02  0.1095324E+00
         -2   -1    0    0    0  501 -0.00000000000E+00  0.00000000000E+00  0.85679437384E+02  0.85679437384E+02  0.00000000000E+00 0. -1.
          2   -1    0    0  501    0  0.00000000000E+00 -0.00000000000E+00 -0.22985432526E+03  0.22985432526E+03  0.00000000000E+00 0. -1.
         35    2    1    2    0    0 -0.71054273576E-14  0.71054273576E-14 -0.14417488788E+03  0.31553376264E+03  0.28066912383E+03 0.  0.
         25    2    3    3    0    0 -0.61691340750E+02  0.55144048582E+01 -0.89441324555E+02  0.16585116894E+03  0.12518238501E+03 0.  0.
         25    2    3    3    0    0  0.61691340750E+02 -0.55144048582E+01 -0.54733563323E+02  0.14968259370E+03  0.12479136877E+03 0.  0.
          5    1    4    4  502    0 -0.17187903242E+02  0.59785480888E+02 -0.16525208044E+02  0.64536038333E+02  0.47000000000E+01 0. -1.
         -5    1    4    4    0  502 -0.44503437508E+02 -0.54271076030E+02 -0.72916116510E+02  0.10131513061E+03  0.47000000000E+01 0. -1.
          5    1    5    5  503    0 -0.49085777938E+01  0.40154704082E+02  0.14478829169E+02  0.43222920887E+02  0.47000000000E+01 0. -1.
         -5    1    5    5    0  503  0.66599918544E+02 -0.45669108940E+02 -0.69212392491E+02  0.10645967281E+03  0.47000000000E+01 0. -1.
<mgrwt>
<rscale>  0 0.28066912E+03</rscale>
<asrwt>0</asrwt>
<pdfrwt beam="1">  1        2 0.35362203E-01 0.28066912E+03</pdfrwt>
<pdfrwt beam="2">  1       -2 0.13181452E-01 0.28066912E+03</pdfrwt>
<totfact> 0.61612160E+03</totfact>
</mgrwt>
</event>
<event>
 9    1  0.7997082E-001  0.2797921E+03  0.7818608E-02  0.1095803E+00
         -4   -1    0    0    0  501 -0.00000000000E+00  0.00000000000E+00  0.15705070875E+03  0.15705070875E+03  0.00000000000E+00 0. -1.
          4   -1    0    0  501    0  0.00000000000E+00 -0.00000000000E+00 -0.12461518794E+03  0.12461518794E+03  0.00000000000E+00 0. -1.
         35    2    1    2    0    0  0.00000000000E+00 -0.71054273576E-14  0.32435520810E+02  0.28166589670E+03  0.27979209130E+03 0.  0.
         25    2    3    3    0    0  0.50563786374E+02 -0.17695906284E+02  0.39637420027E+02  0.14547121245E+03  0.12930934612E+03 0.  0.
         25    2    3    3    0    0 -0.50563786374E+02  0.17695906284E+02 -0.72018992176E+01  0.13619468424E+03  0.12500913196E+03 0.  0.
          5    1    4    4  502    0  0.75055593239E+02 -0.24550239638E+02  0.69967806020E+02  0.10561079595E+03  0.47000000000E+01 0. -1.
         -5    1    4    4    0  502 -0.24491806864E+02  0.68543333542E+01 -0.30330385992E+02  0.39860416501E+02  0.47000000000E+01 0. -1.
          5    1    5    5  503    0 -0.30353672583E+02 -0.38562047549E+02 -0.43799558369E+02  0.65945949563E+02  0.47000000000E+01 0. -1.
         -5    1    5    5    0  503 -0.20210113791E+02  0.56257953833E+02  0.36597659151E+02  0.70248734682E+02  0.47000000000E+01 0. -1.
<mgrwt>
<rscale>  0 0.27979209E+03</rscale>
<asrwt>0</asrwt>
<pdfrwt beam="1">  1        4 0.19171567E-01 0.27979209E+03</pdfrwt>
<pdfrwt beam="2">  1       -4 0.24161648E-01 0.27979209E+03</pdfrwt>
<totfact> 0.73067426E+02</totfact>
</mgrwt>
</event>
<event>
 9    1  0.7997082E-001  0.2642841E+03  0.7818608E-02  0.1104596E+00
          2   -1    0    0  501    0  0.00000000000E+00  0.00000000000E+00  0.39525487132E+03  0.39525487132E+03  0.00000000000E+00 0. -1.
         -2   -1    0    0    0  501 -0.00000000000E+00 -0.00000000000E+00 -0.44177867851E+02  0.44177867851E+02  0.00000000000E+00 0. -1.
         35    2    1    2    0    0 -0.71054273576E-14  0.00000000000E+00  0.35107700347E+03  0.43943273918E+03  0.26428407045E+03 0.  0.
         25    2    3    3    0    0 -0.23312179638E+02  0.31228916833E+02  0.13482882270E+03  0.18812386705E+03  0.12527200388E+03 0.  0.
         25    2    3    3    0    0  0.23312179638E+02 -0.31228916833E+02  0.21624818077E+03  0.25130887213E+03  0.12195970875E+03 0.  0.
          5    1    4    4  502    0  0.34240987341E+02  0.19105625573E+02 -0.15570225761E+01  0.39521949116E+02  0.47000000000E+01 0. -1.
         -5    1    4    4    0  502 -0.57553166980E+02  0.12123291259E+02  0.13638584528E+03  0.14860191793E+03  0.47000000000E+01 0. -1.
          5    1    5    5  503    0 -0.23427830573E+01 -0.48948228558E+02  0.20983381441E+02  0.53514577529E+02  0.47000000000E+01 0.  1.
         -5    1    5    5    0  503  0.25654962696E+02  0.17719311725E+02  0.19526479933E+03  0.19779429460E+03  0.47000000000E+01 0.  1.
<mgrwt>
<rscale>  0 0.26428407E+03</rscale>
<asrwt>0</asrwt>
<pdfrwt beam="1">  1        2 0.60808439E-01 0.26428407E+03</pdfrwt>
<pdfrwt beam="2">  1       -2 0.67965953E-02 0.26428407E+03</pdfrwt>
<totfact> 0.97788826E+03</totfact>
</mgrwt>
</event>
<event>
 9    1  0.7997082E-001  0.2928457E+03  0.7818608E-02  0.1088873E+00
         -4   -1    0    0    0  501 -0.00000000000E+00  0.00000000000E+00  0.14823811341E+03  0.14823811341E+03  0.00000000000E+00 0. -1.
          4   -1    0    0  501    0  0.00000000000E+00 -0.00000000000E+00 -0.14462976642E+03  0.14462976642E+03  0.00000000000E+00 0. -1.
         35    2    1    2    0    0  0.35527136788E-14 -0.14210854715E-13  0.36083469914E+01  0.29286787983E+03  0.29284565025E+03 0.  0.
         25    2    3    3    0    0  0.49353483776E+01  0.57039209253E+02  0.51516120388E+02  0.14732573336E+03  0.12559113024E+03 0.  0.
         25    2    3    3    0    0 -0.49353483776E+01 -0.57039209253E+02 -0.47907773396E+02  0.14554214647E+03  0.12493811504E+03 0.  0.
          5    1    4    4  502    0 -0.32443596991E+02  0.87435537854E+01 -0.30049602033E+02  0.45322238480E+02  0.47000000000E+01 0. -1.
         -5    1    4    4    0  502  0.37378945368E+02  0.48295655468E+02  0.81565722421E+02  0.10200349488E+03  0.47000000000E+01 0. -1.
          5    1    5    5  503    0 -0.18544012486E+02 -0.82601070651E+02 -0.69077108285E+02  0.10936431850E+03  0.47000000000E+01 0.  1.
         -5    1    5    5    0  503  0.13608664108E+02  0.25561861397E+02  0.21169334889E+02  0.36177827969E+02  0.47000000000E+01 0.  1.
<mgrwt>
<rscale>  0 0.29284565E+03</rscale>
<asrwt>0</asrwt>
<pdfrwt beam="1">  1        4 0.22250733E-01 0.29284565E+03</pdfrwt>
<pdfrwt beam="2">  1       -4 0.22805864E-01 0.29284565E+03</pdfrwt>
<totfact> 0.62339126E+02</totfact>
</mgrwt>
</event>
<event>
 9    1  0.7997082E-001  0.2714699E+03  0.7818608E-02  0.1100441E+00
         -3   -1    0    0    0  501 -0.00000000000E+00  0.00000000000E+00  0.22041917371E+02  0.22041917371E+02  0.00000000000E+00 0. -1.
          3   -1    0    0  501    0  0.00000000000E+00 -0.00000000000E+00 -0.83586082828E+03  0.83586082828E+03  0.00000000000E+00 0. -1.
         35    2    1    2    0    0 -0.71054273576E-14 -0.71054273576E-14 -0.81381891091E+03  0.85790274565E+03  0.27146989012E+03 0.  0.
         25    2    3    3    0    0  0.46410431072E+02  0.22300981616E+02 -0.46399532586E+03  0.48290453008E+03  0.12350652151E+03 0.  0.
         25    2    3    3    0    0 -0.46410431072E+02 -0.22300981616E+02 -0.34982358505E+03  0.37499821558E+03  0.12488338213E+03 0.  0.
          5    1    4    4  502    0 -0.12312381896E+02  0.59940875791E+02 -0.26410181305E+03  0.27113900678E+03  0.47000000000E+01 0.  1.
         -5    1    4    4    0  502  0.58722812968E+02 -0.37639894175E+02 -0.19989351281E+03  0.21176552330E+03  0.47000000000E+01 0.  1.
          5    1    5    5  503    0 -0.39684740504E+02 -0.72912587796E+02 -0.19793996288E+03  0.21469383548E+03  0.47000000000E+01 0.  1.
         -5    1    5    5    0  503 -0.67256905684E+01  0.50611606180E+02 -0.15188362218E+03  0.16030438010E+03  0.47000000000E+01 0.  1.
<mgrwt>
<rscale>  0 0.27146989E+03</rscale>
<asrwt>0</asrwt>
<pdfrwt beam="1">  1        3 0.12859399E+00 0.27146989E+03</pdfrwt>
<pdfrwt beam="2">  1       -3 0.33910637E-02 0.27146989E+03</pdfrwt>
<totfact> 0.53511148E+02</totfact>
</mgrwt>
</event>
<event>
 9    1  0.7997082E-001  0.2776921E+03  0.7818608E-02  0.1096956E+00
          1   -1    0    0  501    0  0.00000000000E+00  0.00000000000E+00  0.89179165556E+03  0.89179165556E+03  0.00000000000E+00 0.  1.
         -1   -1    0    0    0  501 -0.00000000000E+00 -0.00000000000E+00 -0.21617402670E+02  0.21617402670E+02  0.00000000000E+00 0.  1.
         35    2    1    2    0    0  0.71054273576E-14  0.00000000000E+00  0.87017425289E+03  0.91340905823E+03  0.27769205474E+03 0.  0.
         25    2    3    3    0    0  0.54849392439E+02 -0.23795368936E+02  0.46846505532E+03  0.48856436990E+03  0.12514375754E+03 0.  0.
         25    2    3    3    0    0 -0.54849392439E+02  0.23795368936E+02  0.40170919757E+03  0.42484468833E+03  0.12469183755E+03 0.  0.
          5    1    4    4  502    0  0.28708192459E+02  0.10001476127E+02  0.17174405665E+02  0.35231236835E+02  0.47000000000E+01 0. -1.
         -5    1    4    4    0  502  0.26141199980E+02 -0.33796845063E+02  0.45129064965E+03  0.45333313306E+03  0.47000000000E+01 0. -1.
          5    1    5    5  503    0  0.64862275771E+01 -0.38319988229E+02  0.56494934344E+02  0.68733254343E+02  0.47000000000E+01 0. -1.
         -5    1    5    5    0  503 -0.61335620016E+02  0.62115357165E+02  0.34521426323E+03  0.35611143399E+03  0.47000000000E+01 0. -1.
<mgrwt>
<rscale>  0 0.27769205E+03</rscale>
<asrwt>0</asrwt>
<pdfrwt beam="1">  1        1 0.13719869E+00 0.27769205E+03</pdfrwt>
<pdfrwt beam="2">  1       -1 0.33257550E-02 0.27769205E+03</pdfrwt>
<totfact> 0.62699223E+03</totfact>
</mgrwt>
</event>
<event>
 9    1  0.7997082E-001  0.2783882E+03  0.7818608E-02  0.1096573E+00
          2   -1    0    0  501    0  0.00000000000E+00  0.00000000000E+00  0.41269246576E+03  0.41269246576E+03  0.00000000000E+00 0.  1.
         -2   -1    0    0    0  501 -0.00000000000E+00 -0.00000000000E+00 -0.46947792967E+02  0.46947792967E+02  0.00000000000E+00 0.  1.
         35    2    1    2    0    0  0.00000000000E+00  0.71054273576E-14  0.36574467280E+03  0.45964025873E+03  0.27838822132E+03 0.  0.
         25    2    3    3    0    0  0.92468494056E+01 -0.39617148129E+02  0.25726462343E+03  0.28839744277E+03  0.12382639411E+03 0.  0.
         25    2    3    3    0    0 -0.92468494056E+01  0.39617148129E+02  0.10848004937E+03  0.17124281596E+03  0.12609979484E+03 0.  0.
          5    1    4    4  502    0 -0.19086920196E+02 -0.78980128351E+02  0.16894364390E+03  0.18752657415E+03  0.47000000000E+01 0.  1.
         -5    1    4    4    0  502  0.28333769601E+02  0.39362980222E+02  0.88320979526E+02  0.10087086862E+03  0.47000000000E+01 0.  1.
          5    1    5    5  503    0 -0.15418847491E+02  0.50684608014E+02  0.13300242699E+03  0.14324247252E+03  0.47000000000E+01 0.  1.
         -5    1    5    5    0  503  0.61719980852E+01 -0.11067459884E+02 -0.24522377624E+02  0.28000343444E+02  0.47000000000E+01 0.  1.
<mgrwt>
<rscale>  0 0.27838822E+03</rscale>
<asrwt>0</asrwt>
<pdfrwt beam="1">  1        2 0.63491146E-01 0.27838822E+03</pdfrwt>
<pdfrwt beam="2">  1       -2 0.72227376E-02 0.27838822E+03</pdfrwt>
<totfact> 0.85095543E+03</totfact>
</mgrwt>
</event>
<event>
 9    1  0.7997082E-001  0.2781132E+03  0.7818608E-02  0.1096724E+00
         -2   -1    0    0    0  501 -0.00000000000E+00  0.00000000000E+00  0.89086801487E+02  0.89086801487E+02  0.00000000000E+00 0. -1.
          2   -1    0    0  501    0  0.00000000000E+00 -0.00000000000E+00 -0.21705499708E+03  0.21705499708E+03  0.00000000000E+00 0. -1.
         35    2    1    2    0    0  0.00000000000E+00  0.00000000000E+00 -0.12796819559E+03  0.30614179856E+03  0.27811318154E+03 0.  0.
         25    2    3    3    0    0 -0.23699486304E+02 -0.54206681491E+02 -0.96850097735E+02  0.16920391418E+03  0.12549897679E+03 0.  0.
         25    2    3    3    0    0  0.23699486304E+02  0.54206681491E+02 -0.31118097855E+02  0.13693788438E+03  0.11951409204E+03 0.  0.
          5    1    4    4  502    0 -0.35734718456E+02 -0.65494124143E+02 -0.40875947699E+01  0.74868209751E+02  0.47000000000E+01 0.  1.
         -5    1    4    4    0  502  0.12035232152E+02  0.11287442652E+02 -0.92762502965E+02  0.94335704434E+02  0.47000000000E+01 0.  1.
          5    1    5    5  503    0  0.49976295189E+02  0.74976980299E+02  0.10866403869E+01  0.90235516527E+02  0.47000000000E+01 0. -1.
         -5    1    5    5    0  503 -0.26276808886E+02 -0.20770298808E+02 -0.32204738242E+02  0.46702367853E+02  0.47000000000E+01 0. -1.
<mgrwt>
<rscale>  0 0.27811318E+03</rscale>
<asrwt>0</asrwt>
<pdfrwt beam="1">  1        2 0.33393076E-01 0.27811318E+03</pdfrwt>
<pdfrwt beam="2">  1       -2 0.13705662E-01 0.27811318E+03</pdfrwt>
<totfact> 0.61505339E+03</totfact>
</mgrwt>
</event>
<event>
 9    1  0.7997082E-001  0.2751417E+03  0.7818608E-02  0.1098372E+00
          1   -1    0    0  501    0  0.00000000000E+00  0.00000000000E+00  0.95096981395E+02  0.95096981395E+02  0.00000000000E+00 0.  1.
         -1   -1    0    0    0  501 -0.00000000000E+00 -0.00000000000E+00 -0.19901507742E+03  0.19901507742E+03  0.00000000000E+00 0.  1.
         35    2    1    2    0    0 -0.35527136788E-14  0.00000000000E+00 -0.10391809602E+03  0.29411205881E+03  0.27514165889E+03 0.  0.
         25    2    3    3    0    0 -0.29523114279E+02  0.46935133925E+02 -0.29614702855E+02  0.13973938597E+03  0.12480202039E+03 0.  0.
         25    2    3    3    0    0  0.29523114279E+02 -0.46935133925E+02 -0.74303393167E+02  0.15437267284E+03  0.12343179012E+03 0.  0.
          5    1    4    4  502    0 -0.75767086872E+02  0.32419171589E+02 -0.37049915666E+02  0.90478949985E+02  0.47000000000E+01 0. -1.
         -5    1    4    4    0  502  0.46243972592E+02  0.14515962336E+02  0.74352128113E+01  0.49260435983E+02  0.47000000000E+01 0. -1.
          5    1    5    5  503    0  0.20006636675E+02  0.41130268820E+02 -0.18402601480E+02  0.49524844931E+02  0.47000000000E+01 0.  1.
         -5    1    5    5    0  503  0.95164776042E+01 -0.88065402745E+02 -0.55900791687E+02  0.10484782791E+03  0.47000000000E+01 0.  1.
<mgrwt>
<rscale>  0 0.27514166E+03</rscale>
<asrwt>0</asrwt>
<pdfrwt beam="1">  1        1 0.14630305E-01 0.27514166E+03</pdfrwt>
<pdfrwt beam="2">  1       -1 0.30617704E-01 0.27514166E+03</pdfrwt>
<totfact> 0.37796757E+03</totfact>
</mgrwt>
</event>
<event>
 9    1  0.7997082E-001  0.2758755E+03  0.7818608E-02  0.1097963E+00
          2   -1    0    0  501    0  0.00000000000E+00  0.00000000000E+00  0.75344658103E+02  0.75344658103E+02  0.00000000000E+00 0.  1.
         -2   -1    0    0    0  501 -0.00000000000E+00 -0.00000000000E+00 -0.25253047432E+03  0.25253047432E+03  0.00000000000E+00 0.  1.
         35    2    1    2    0    0  0.00000000000E+00 -0.14210854715E-13 -0.17718581622E+03  0.32787513243E+03  0.27587549546E+03 0.  0.
         25    2    3    3    0    0  0.37690465525E+02 -0.37531784784E+02 -0.58965372000E+02  0.14763110620E+03  0.12445409741E+03 0.  0.
         25    2    3    3    0    0 -0.37690465525E+02  0.37531784784E+02 -0.11822044422E+03  0.18024402623E+03  0.12523030583E+03 0.  0.
          5    1    4    4  502    0  0.26749943339E+01 -0.67919102018E+02 -0.72115324185E+02  0.99211239262E+02  0.47000000000E+01 0.  1.
         -5    1    4    4    0  502  0.35015471191E+02  0.30387317234E+02  0.13149952185E+02  0.48419866934E+02  0.47000000000E+01 0.  1.
          5    1    5    5  503    0 -0.61041908772E+02 -0.56099884291E+01 -0.11555446166E+03  0.13089121516E+03  0.47000000000E+01 0.  1.
         -5    1    5    5    0  503  0.23351443247E+02  0.43141773213E+02 -0.26659825632E+01  0.49352811072E+02  0.47000000000E+01 0.  1.
<mgrwt>
<rscale>  0 0.27587550E+03</rscale>
<asrwt>0</asrwt>
<pdfrwt beam="1">  1        2 0.11591486E-01 0.27587550E+03</pdfrwt>
<pdfrwt beam="2">  1       -2 0.38850842E-01 0.27587550E+03</pdfrwt>
<totfact> 0.33451553E+03</totfact>
</mgrwt>
</event>
<event>
 9    1  0.7997082E-001  0.2633329E+03  0.7818608E-02  0.1105157E+00
          3   -1    0    0  501    0  0.00000000000E+00  0.00000000000E+00  0.16682371276E+03  0.16682371276E+03  0.00000000000E+00 0. -1.
         -3   -1    0    0    0  501 -0.00000000000E+00 -0.00000000000E+00 -0.10391839808E+03  0.10391839808E+03  0.00000000000E+00 0. -1.
         35    2    1    2    0    0  0.00000000000E+00  0.35527136788E-14  0.62905314680E+02  0.27074211083E+03  0.26333289192E+03 0.  0.
         25    2    3    3    0    0 -0.26802039558E+02 -0.31669068334E+02  0.40417344740E+02  0.13716043141E+03  0.12433078048E+03 0.  0.
         25    2    3    3    0    0  0.26802039558E+02  0.31669068334E+02  0.22487969940E+02  0.13358167943E+03  0.12496830427E+03 0.  0.
          5    1    4    4  502    0 -0.76159807569E+02 -0.21482482528E+02  0.15617522504E+02  0.80794865887E+02  0.47000000000E+01 0.  1.
         -5    1    4    4    0  502  0.49357768011E+02 -0.10186585806E+02  0.24799822236E+02  0.56365565520E+02  0.47000000000E+01 0.  1.
          5    1    5    5  503    0  0.61124535503E+02 -0.91863074602E+01 -0.20081079347E+02  0.65160853532E+02  0.47000000000E+01 0. -1.
         -5    1    5    5    0  503 -0.34322495945E+02  0.40855375794E+02  0.42569049287E+02  0.68420825897E+02  0.47000000000E+01 0. -1.
<mgrwt>
<rscale>  0 0.26333289E+03</rscale>
<asrwt>0</asrwt>
<pdfrwt beam="1">  1        3 0.25665187E-01 0.26333289E+03</pdfrwt>
<pdfrwt beam="2">  1       -3 0.15987446E-01 0.26333289E+03</pdfrwt>
<totfact> 0.12053804E+03</totfact>
</mgrwt>
</event>
<event>
 9    1  0.7997082E-001  0.2710673E+03  0.7818608E-02  0.1100670E+00
          2   -1    0    0  501    0  0.00000000000E+00  0.00000000000E+00  0.16568398923E+04  0.16568398923E+04  0.00000000000E+00 0.  1.
         -2   -1    0    0    0  501 -0.00000000000E+00 -0.00000000000E+00 -0.11086995737E+02  0.11086995737E+02  0.00000000000E+00 0.  1.
         35    2    1    2    0    0  0.71054273576E-14 -0.71054273576E-14  0.16457528965E+04  0.16679268880E+04  0.27106734826E+03 0.  0.
         25    2    3    3    0    0  0.32546486154E+02  0.52504963207E+01  0.58447247108E+03  0.59911557145E+03  0.12745413698E+03 0.  0.
         25    2    3    3    0    0 -0.32546486154E+02 -0.52504963207E+01  0.10612804255E+04  0.10688113166E+04  0.12228919607E+03 0.  0.
          5    1    4    4  502    0  0.28173941080E+02 -0.57860755341E+02  0.22421201928E+03  0.23331257479E+03  0.47000000000E+01 0.  1.
         -5    1    4    4    0  502  0.43725450745E+01  0.63111251661E+02  0.36026045180E+03  0.36580299666E+03  0.47000000000E+01 0.  1.
          5    1    5    5  503    0 -0.49869128047E+01  0.46321433902E+02  0.78381249119E+03  0.78520994383E+03  0.47000000000E+01 0. -1.
         -5    1    5    5    0  503 -0.27559573350E+02 -0.51571930222E+02  0.27746793426E+03  0.28360137273E+03  0.47000000000E+01 0. -1.
<mgrwt>
<rscale>  0 0.27106735E+03</rscale>
<asrwt>0</asrwt>
<pdfrwt beam="1">  1        2 0.25489825E+00 0.27106735E+03</pdfrwt>
<pdfrwt beam="2">  1       -2 0.17056930E-02 0.27106735E+03</pdfrwt>
<totfact> 0.10997458E+04</totfact>
</mgrwt>
</event>
<event>
 9    1  0.7997082E-001  0.2683644E+03  0.7818608E-02  0.1102219E+00
         -1   -1    0    0    0  501 -0.00000000000E+00  0.00000000000E+00  0.49871804798E+03  0.49871804798E+03  0.00000000000E+00 0. -1.
          1   -1    0    0  501    0  0.00000000000E+00 -0.00000000000E+00 -0.36102282448E+02  0.36102282448E+02  0.00000000000E+00 0. -1.
         35    2    1    2    0    0 -0.71054273576E-14  0.71054273576E-14  0.46261576553E+03  0.53482033043E+03  0.26836437789E+03 0.  0.
         25    2    3    3    0    0  0.44598404009E+02 -0.16058167127E+02  0.20760330740E+03  0.24689849532E+03  0.12495139606E+03 0.  0.
         25    2    3    3    0    0 -0.44598404009E+02  0.16058167127E+02  0.25501245813E+03  0.28792183510E+03  0.12498298667E+03 0.  0.
          5    1    4    4  502    0  0.15879307407E+02  0.54673398225E+02  0.91346598271E+02  0.10773868336E+03  0.47000000000E+01 0.  1.
         -5    1    4    4    0  502  0.28719096602E+02 -0.70731565352E+02  0.11625670913E+03  0.13915981196E+03  0.47000000000E+01 0.  1.
          5    1    5    5  503    0  0.24525349636E+02 -0.17210567024E+02  0.17255507313E+03  0.17519999902E+03  0.47000000000E+01 0. -1.
         -5    1    5    5    0  503 -0.69123753646E+02  0.33268734151E+02  0.82457384997E+02  0.11272183609E+03  0.47000000000E+01 0. -1.
<mgrwt>
<rscale>  0 0.26836438E+03</rscale>
<asrwt>0</asrwt>
<pdfrwt beam="1">  1        1 0.55541977E-02 0.26836438E+03</pdfrwt>
<pdfrwt beam="2">  1       -1 0.76725849E-01 0.26836438E+03</pdfrwt>
<totfact> 0.25505903E+03</totfact>
</mgrwt>
</event>
<event>
 9    1  0.7997082E-001  0.2759723E+03  0.7818608E-02  0.1097909E+00
          2   -1    0    0  501    0  0.00000000000E+00  0.00000000000E+00  0.20368138761E+04  0.20368138761E+04  0.00000000000E+00 0.  1.
         -2   -1    0    0    0  501 -0.00000000000E+00 -0.00000000000E+00 -0.93480195634E+01  0.93480195634E+01  0.00000000000E+00 0.  1.
         35    2    1    2    0    0  0.71054273576E-14 -0.17763568394E-14  0.20274658566E+04  0.20461618957E+04  0.27597228818E+03 0.  0.
         25    2    3    3    0    0  0.52163422244E+02 -0.91943428397E+01  0.11504154126E+04  0.11585485542E+04  0.12638659781E+03 0.  0.
         25    2    3    3    0    0 -0.52163422244E+02  0.91943428397E+01  0.87705044390E+03  0.88761334153E+03  0.12583482962E+03 0.  0.
          5    1    4    4  502    0  0.77154295276E+02 -0.94188710247E+01  0.38945922654E+03  0.39716757112E+03  0.47000000000E+01 0. -1.
         -5    1    4    4    0  502 -0.24990873032E+02  0.22452818505E+00  0.76095618611E+03  0.76138098304E+03  0.47000000000E+01 0. -1.
          5    1    5    5  503    0  0.26286233496E+02 -0.63614300902E+01  0.55741845634E+03  0.55809395206E+03  0.47000000000E+01 0. -1.
         -5    1    5    5    0  503 -0.78449655740E+02  0.15555772930E+02  0.31963198757E+03  0.32951938946E+03  0.47000000000E+01 0. -1.
<mgrwt>
<rscale>  0 0.27597229E+03</rscale>
<asrwt>0</asrwt>
<pdfrwt beam="1">  1        2 0.31335563E+00 0.27597229E+03</pdfrwt>
<pdfrwt beam="2">  1       -2 0.14381585E-02 0.27597229E+03</pdfrwt>
<totfact> 0.89156769E+03</totfact>
</mgrwt>
</event>
<event>
 9    1  0.7997082E-001  0.2732695E+03  0.7818608E-02  0.1099423E+00
          1   -1    0    0  501    0  0.00000000000E+00  0.00000000000E+00  0.34761033063E+04  0.34761033063E+04  0.00000000000E+00 0.  1.
         -1   -1    0    0    0  501 -0.00000000000E+00 -0.00000000000E+00 -0.53706863181E+01  0.53706863181E+01  0.00000000000E+00 0.  1.
         35    2    1    2    0    0  0.00000000000E+00  0.00000000000E+00  0.34707326200E+04  0.34814739926E+04  0.27326954069E+03 0.  0.
         25    2    3    3    0    0 -0.11904770145E+02  0.49457587331E+02  0.19769321563E+04  0.19817373524E+04  0.12819674954E+03 0.  0.
         25    2    3    3    0    0  0.11904770145E+02 -0.49457587331E+02  0.14938004637E+04  0.14997366403E+04  0.12321683476E+03 0.  0.
          5    1    4    4  502    0 -0.77379130347E+01  0.24306501474E+02  0.70355262975E+02  0.74984227277E+02  0.47000000000E+01 0.  1.
         -5    1    4    4    0  502 -0.41668571099E+01  0.25151085857E+02  0.19065768933E+04  0.19067531251E+04  0.47000000000E+01 0.  1.
          5    1    5    5  503    0  0.63156281016E+02 -0.51750212933E+02  0.92000044376E+03  0.92362855461E+03  0.47000000000E+01 0. -1.
         -5    1    5    5    0  503 -0.51251510872E+02  0.22926256022E+01  0.57380001992E+03  0.57610808565E+03  0.47000000000E+01 0. -1.
<mgrwt>
<rscale>  0 0.27326954E+03</rscale>
<asrwt>0</asrwt>
<pdfrwt beam="1">  1        1 0.53478333E+00 0.27326954E+03</pdfrwt>
<pdfrwt beam="2">  1       -1 0.82626221E-03 0.27326954E+03</pdfrwt>
<totfact> 0.81085911E+02</totfact>
</mgrwt>
</event>
<event>
 9    1  0.7997082E-001  0.2782056E+03  0.7818608E-02  0.1096673E+00
          2   -1    0    0  501    0  0.00000000000E+00  0.00000000000E+00  0.21465979271E+03  0.21465979271E+03  0.00000000000E+00 0.  1.
         -2   -1    0    0    0  501 -0.00000000000E+00 -0.00000000000E+00 -0.90140755310E+02  0.90140755310E+02  0.00000000000E+00 0.  1.
         35    2    1    2    0    0 -0.71054273576E-14  0.00000000000E+00  0.12451903740E+03  0.30480054802E+03  0.27820564947E+03 0.  0.
         25    2    3    3    0    0 -0.26361640847E+02  0.22300348982E+02  0.40006991573E+01  0.12814231609E+03  0.12333777162E+03 0.  0.
         25    2    3    3    0    0  0.26361640847E+02 -0.22300348982E+02  0.12051833825E+03  0.17665823193E+03  0.12446372717E+03 0.  0.
          5    1    4    4  502    0  0.24312780945E+02 -0.62976944555E+01  0.48446504785E+02  0.54771581122E+02  0.47000000000E+01 0.  1.
         -5    1    4    4    0  502 -0.50674421792E+02  0.28598043438E+02 -0.44445805627E+02  0.73370734971E+02  0.47000000000E+01 0.  1.
          5    1    5    5  503    0 -0.43010749829E+02  0.19913971614E+02  0.39907412489E+02  0.62138413544E+02  0.47000000000E+01 0.  1.
         -5    1    5    5    0  503  0.69372390675E+02 -0.42214320596E+02  0.80610925758E+02  0.11451981839E+03  0.47000000000E+01 0.  1.
<mgrwt>
<rscale>  0 0.27820565E+03</rscale>
<asrwt>0</asrwt>
<pdfrwt beam="1">  1        2 0.33024583E-01 0.27820565E+03</pdfrwt>
<pdfrwt beam="2">  1       -2 0.13867809E-01 0.27820565E+03</pdfrwt>
<totfact> 0.61066539E+03</totfact>
</mgrwt>
</event>
<event>
 9    1  0.7997082E-001  0.2706525E+03  0.7818608E-02  0.1100907E+00
          3   -1    0    0  501    0  0.00000000000E+00  0.00000000000E+00  0.12143952644E+03  0.12143952644E+03  0.00000000000E+00 0. -1.
         -3   -1    0    0    0  501 -0.00000000000E+00 -0.00000000000E+00 -0.15080094676E+03  0.15080094676E+03  0.00000000000E+00 0. -1.
         35    2    1    2    0    0 -0.88817841970E-15 -0.71054273576E-14 -0.29361420321E+02  0.27224047319E+03  0.27065251198E+03 0.  0.
         25    2    3    3    0    0 -0.56132686320E+01  0.89620499395E+01 -0.62242165924E+02  0.14222101009E+03  0.12743979507E+03 0.  0.
         25    2    3    3    0    0  0.56132686320E+01 -0.89620499395E+01  0.32880745604E+02  0.13001946310E+03  0.12534787685E+03 0.  0.
          5    1    4    4  502    0  0.28191405937E+01 -0.43157335692E+02  0.17148327619E+02  0.46761718508E+02  0.47000000000E+01 0. -1.
         -5    1    4    4    0  502 -0.84324092257E+01  0.52119385631E+02 -0.79390493544E+02  0.95459291581E+02  0.47000000000E+01 0. -1.
          5    1    5    5  503    0 -0.63065606116E+00 -0.53579208905E+02 -0.22645289918E+02  0.58361190095E+02  0.47000000000E+01 0. -1.
         -5    1    5    5    0  503  0.62439246931E+01  0.44617158965E+02  0.55526035521E+02  0.71658273008E+02  0.47000000000E+01 0. -1.
<mgrwt>
<rscale>  0 0.27065251E+03</rscale>
<asrwt>0</asrwt>
<pdfrwt beam="1">  1        3 0.18683004E-01 0.27065251E+03</pdfrwt>
<pdfrwt beam="2">  1       -3 0.23200146E-01 0.27065251E+03</pdfrwt>
<totfact> 0.11058966E+03</totfact>
</mgrwt>
</event>
<event>
 9    1  0.7997082E-001  0.2755177E+03  0.7818608E-02  0.1098163E+00
          2   -1    0    0  501    0  0.00000000000E+00  0.00000000000E+00  0.97044042153E+03  0.97044042153E+03  0.00000000000E+00 0.  1.
         -2   -1    0    0    0  501 -0.00000000000E+00 -0.00000000000E+00 -0.19555550982E+02  0.19555550982E+02  0.00000000000E+00 0.  1.
         35    2    1    2    0    0  0.17763568394E-14  0.00000000000E+00  0.95088487055E+03  0.98999597251E+03  0.27551767376E+03 0.  0.
         25    2    3    3    0    0 -0.99361287962E+01 -0.41311713750E+02  0.62129972106E+03  0.63521756643E+03  0.12523030367E+03 0.  0.
         25    2    3    3    0    0  0.99361287962E+01  0.41311713750E+02  0.32958514949E+03  0.35477840609E+03  0.12424154826E+03 0.  0.
          5    1    4    4  502    0 -0.14133649668E+02 -0.71242863138E+02  0.57586478230E+03  0.58044607252E+03  0.47000000000E+01 0.  1.
         -5    1    4    4    0  502  0.41975208719E+01  0.29931149389E+02  0.45434938757E+02  0.54771493909E+02  0.47000000000E+01 0.  1.
          5    1    5    5  503    0 -0.12082409731E+02 -0.32968190010E+02  0.20466904726E+03  0.20771228920E+03  0.47000000000E+01 0.  1.
         -5    1    5    5    0  503  0.22018538527E+02  0.74279903760E+02  0.12491610223E+03  0.14706611689E+03  0.47000000000E+01 0.  1.
<mgrwt>
<rscale>  0 0.27551767E+03</rscale>
<asrwt>0</asrwt>
<pdfrwt beam="1">  1        2 0.14929849E+00 0.27551767E+03</pdfrwt>
<pdfrwt beam="2">  1       -2 0.30085471E-02 0.27551767E+03</pdfrwt>
<totfact> 0.11523317E+04</totfact>
</mgrwt>
</event>
<event>
 9    1  0.7997082E-001  0.2726773E+03  0.7818608E-02  0.1099757E+00
         -1   -1    0    0    0  501 -0.00000000000E+00  0.00000000000E+00  0.33388368174E+02  0.33388368174E+02  0.00000000000E+00 0. -1.
          1   -1    0    0  501    0  0.00000000000E+00 -0.00000000000E+00 -0.55672782988E+03  0.55672782988E+03  0.00000000000E+00 0. -1.
         35    2    1    2    0    0  0.00000000000E+00  0.71054273576E-14 -0.52333946170E+03  0.59011619805E+03  0.27267734601E+03 0.  0.
         25    2    3    3    0    0 -0.53511732064E+02  0.10801189072E+02 -0.28221229718E+03  0.31323352233E+03  0.12446400155E+03 0.  0.
         25    2    3    3    0    0  0.53511732064E+02 -0.10801189072E+02 -0.24112716453E+03  0.27688267572E+03  0.12466569491E+03 0.  0.
          5    1    4    4  502    0 -0.57373268670E+02  0.58348087140E+02 -0.13028349701E+03  0.15392228826E+03  0.47000000000E+01 0. -1.
         -5    1    4    4    0  502  0.38615366064E+01 -0.47546898067E+02 -0.15192880017E+03  0.15931123407E+03  0.47000000000E+01 0. -1.
          5    1    5    5  503    0  0.33480504358E+02 -0.57627603284E+02 -0.64005424813E+02  0.92523884688E+02  0.47000000000E+01 0. -1.
         -5    1    5    5    0  503  0.20031227706E+02  0.46826414211E+02 -0.17712173971E+03  0.18435879103E+03  0.47000000000E+01 0. -1.
<mgrwt>
<rscale>  0 0.27267735E+03</rscale>
<asrwt>0</asrwt>
<pdfrwt beam="1">  1        1 0.85650433E-01 0.27267735E+03</pdfrwt>
<pdfrwt beam="2">  1       -1 0.51366722E-02 0.27267735E+03</pdfrwt>
<totfact> 0.65647062E+03</totfact>
</mgrwt>
</event>
<event>
 9    1  0.7997082E-001  0.2729279E+03  0.7818608E-02  0.1099615E+00
         -1   -1    0    0    0  501 -0.00000000000E+00  0.00000000000E+00  0.13935363854E+03  0.13935363854E+03  0.00000000000E+00 0.  1.
          1   -1    0    0  501    0  0.00000000000E+00 -0.00000000000E+00 -0.13363422062E+03  0.13363422062E+03  0.00000000000E+00 0.  1.
         35    2    1    2    0    0  0.00000000000E+00 -0.35527136788E-14  0.57194179182E+01  0.27298785916E+03  0.27292793831E+03 0.  0.
         25    2    3    3    0    0  0.16261756140E+02 -0.30757335450E+02 -0.35751244926E+02  0.13499645241E+03  0.12544095126E+03 0.  0.
         25    2    3    3    0    0 -0.16261756140E+02  0.30757335450E+02  0.41470662844E+02  0.13799140675E+03  0.12693050880E+03 0.  0.
          5    1    4    4  502    0 -0.43118340246E+02 -0.46644544620E+02  0.74260643394E-01  0.63694586293E+02  0.47000000000E+01 0. -1.
         -5    1    4    4    0  502  0.59380096387E+02  0.15887209170E+02 -0.35825505569E+02  0.71301866114E+02  0.47000000000E+01 0. -1.
          5    1    5    5  503    0  0.47877558513E+02  0.17247015327E+01 -0.11819177522E+02  0.49568318126E+02  0.47000000000E+01 0.  1.
         -5    1    5    5    0  503 -0.64139314653E+02  0.29032633917E+02  0.53289840366E+02  0.88423088628E+02  0.47000000000E+01 0.  1.
<mgrwt>
<rscale>  0 0.27292794E+03</rscale>
<asrwt>0</asrwt>
<pdfrwt beam="1">  1        1 0.20559111E-01 0.27292794E+03</pdfrwt>
<pdfrwt beam="2">  1       -1 0.21439021E-01 0.27292794E+03</pdfrwt>
<totfact> 0.44010685E+03</totfact>
</mgrwt>
</event>
<event>
 9    1  0.7997082E-001  0.2789452E+03  0.7818608E-02  0.1096266E+00
          2   -1    0    0  501    0  0.00000000000E+00  0.00000000000E+00  0.22323601072E+04  0.22323601072E+04  0.00000000000E+00 0.  1.
         -2   -1    0    0    0  501 -0.00000000000E+00 -0.00000000000E+00 -0.87139179445E+01  0.87139179445E+01  0.00000000000E+00 0.  1.
         35    2    1    2    0    0 -0.35527136788E-14  0.14210854715E-13  0.22236461892E+04  0.22410740251E+04  0.27894517595E+03 0.  0.
         25    2    3    3    0    0 -0.24275278561E+02  0.57631786553E+02  0.11667347045E+04  0.11749591849E+04  0.12388907778E+03 0.  0.
         25    2    3    3    0    0  0.24275278561E+02 -0.57631786553E+02  0.10569114848E+04  0.10661148402E+04  0.12501301512E+03 0.  0.
          5    1    4    4  502    0 -0.14098999298E+02 -0.34530441752E+02  0.18104318942E+03  0.18490500162E+03  0.47000000000E+01 0. -1.
         -5    1    4    4    0  502 -0.10176279263E+02  0.92162228305E+02  0.98569151505E+03  0.99005418328E+03  0.47000000000E+01 0. -1.
          5    1    5    5  503    0 -0.32570843153E+02 -0.51152027557E+02  0.25509607895E+03  0.26224700045E+03  0.47000000000E+01 0. -1.
         -5    1    5    5    0  503  0.56846121714E+02 -0.64797589961E+01  0.80181540582E+03  0.80386783979E+03  0.47000000000E+01 0. -1.
<mgrwt>
<rscale>  0 0.27894518E+03</rscale>
<asrwt>0</asrwt>
<pdfrwt beam="1">  1        2 0.34343956E+00 0.27894518E+03</pdfrwt>
<pdfrwt beam="2">  1       -2 0.13406045E-02 0.27894518E+03</pdfrwt>
<totfact> 0.77825843E+03</totfact>
</mgrwt>
</event>
<event>
 9    1  0.7997082E-001  0.2756441E+03  0.7818608E-02  0.1098092E+00
          1   -1    0    0  501    0  0.00000000000E+00  0.00000000000E+00  0.17842777885E+04  0.17842777885E+04  0.00000000000E+00 0. -1.
         -1   -1    0    0    0  501 -0.00000000000E+00 -0.00000000000E+00 -0.10645719712E+02  0.10645719712E+02  0.00000000000E+00 0. -1.
         35    2    1    2    0    0  0.00000000000E+00  0.35527136788E-14  0.17736320688E+04  0.17949235082E+04  0.27564412727E+03 0.  0.
         25    2    3    3    0    0  0.58092378684E+02  0.14395619303E+01  0.79382116655E+03  0.80574360180E+03  0.12527533910E+03 0.  0.
         25    2    3    3    0    0 -0.58092378684E+02 -0.14395619303E+01  0.97981090224E+03  0.98917990641E+03  0.12276272356E+03 0.  0.
          5    1    4    4  502    0 -0.31708627496E+02  0.29293812313E+02  0.21880472637E+03  0.22307210220E+03  0.47000000000E+01 0.  1.
         -5    1    4    4    0  502  0.89801006180E+02 -0.27854250383E+02  0.57501644018E+03  0.58267149960E+03  0.47000000000E+01 0.  1.
          5    1    5    5  503    0 -0.30162546120E+01 -0.51303274313E+02  0.23187537347E+03  0.23754873725E+03  0.47000000000E+01 0. -1.
         -5    1    5    5    0  503 -0.55076124072E+02  0.49863712383E+02  0.74793552876E+03  0.75163116915E+03  0.47000000000E+01 0. -1.
<mgrwt>
<rscale>  0 0.27564413E+03</rscale>
<asrwt>0</asrwt>
<pdfrwt beam="1">  1        1 0.27450404E+00 0.27564413E+03</pdfrwt>
<pdfrwt beam="2">  1       -1 0.16378045E-02 0.27564413E+03</pdfrwt>
<totfact> 0.42776801E+03</totfact>
</mgrwt>
</event>
<event>
 9    1  0.7997082E-001  0.2758469E+03  0.7818608E-02  0.1097979E+00
          2   -1    0    0  501    0  0.00000000000E+00  0.00000000000E+00  0.19807550280E+03  0.19807550280E+03  0.00000000000E+00 0.  1.
         -2   -1    0    0    0  501 -0.00000000000E+00 -0.00000000000E+00 -0.96038547392E+02  0.96038547392E+02  0.00000000000E+00 0.  1.
         35    2    1    2    0    0 -0.71054273576E-14  0.00000000000E+00  0.10203695540E+03  0.29411405019E+03  0.27584693990E+03 0.  0.
         25    2    3    3    0    0  0.37013719942E+02  0.17810285067E+02 -0.68555532999E+00  0.13151790223E+03  0.12493705176E+03 0.  0.
         25    2    3    3    0    0 -0.37013719942E+02 -0.17810285067E+02  0.10272251073E+03  0.16259614796E+03  0.11915691924E+03 0.  0.
          5    1    4    4  502    0 -0.14649687608E+01  0.38834206286E+01 -0.59436335043E+02  0.59766169465E+02  0.47000000000E+01 0. -1.
         -5    1    4    4    0  502  0.38478688703E+02  0.13926864439E+02  0.58750779713E+02  0.71751732761E+02  0.47000000000E+01 0. -1.
          5    1    5    5  503    0 -0.28765104978E+02  0.30806623997E+02 -0.62744382354E+01  0.42871178216E+02  0.47000000000E+01 0.  1.
         -5    1    5    5    0  503 -0.82486149645E+01 -0.48616909065E+02  0.10899694897E+03  0.11972496975E+03  0.47000000000E+01 0.  1.
<mgrwt>
<rscale>  0 0.27584694E+03</rscale>
<asrwt>0</asrwt>
<pdfrwt beam="1">  1        2 0.30473154E-01 0.27584694E+03</pdfrwt>
<pdfrwt beam="2">  1       -2 0.14775161E-01 0.27584694E+03</pdfrwt>
<totfact> 0.60059946E+03</totfact>
</mgrwt>
</event>
<event>
 9    1  0.7997082E-001  0.2809931E+03  0.7818608E-02  0.1095148E+00
         -2   -1    0    0    0  501 -0.00000000000E+00  0.00000000000E+00  0.22302022009E+02  0.22302022009E+02  0.00000000000E+00 0. -1.
          2   -1    0    0  501    0  0.00000000000E+00 -0.00000000000E+00 -0.88508901012E+03  0.88508901012E+03  0.00000000000E+00 0. -1.
         35    2    1    2    0    0 -0.35527136788E-14  0.71054273576E-14 -0.86278698811E+03  0.90739103213E+03  0.28099305745E+03 0.  0.
         25    2    3    3    0    0  0.95897963940E+01  0.62392150159E+02 -0.38648910187E+03  0.41112605007E+03  0.12516412659E+03 0.  0.
         25    2    3    3    0    0 -0.95897963940E+01 -0.62392150159E+02 -0.47629788624E+03  0.49626498206E+03  0.12423570897E+03 0.  0.
          5    1    4    4  502    0 -0.45927029826E+02  0.36028057434E+02 -0.29535565482E+03  0.30110524045E+03  0.47000000000E+01 0. -1.
         -5    1    4    4    0  502  0.55516826220E+02  0.26364092725E+02 -0.91133447051E+02  0.11002080962E+03  0.47000000000E+01 0. -1.
          5    1    5    5  503    0 -0.18267772557E+02 -0.13640783608E+01 -0.38808871739E+03  0.38854924372E+03  0.47000000000E+01 0. -1.
         -5    1    5    5    0  503  0.86779761633E+01 -0.61028071799E+02 -0.88209168844E+02  0.10771573834E+03  0.47000000000E+01 0. -1.
<mgrwt>
<rscale>  0 0.28099306E+03</rscale>
<asrwt>0</asrwt>
<pdfrwt beam="1">  1        2 0.13616752E+00 0.28099306E+03</pdfrwt>
<pdfrwt beam="2">  1       -2 0.34310808E-02 0.28099306E+03</pdfrwt>
<totfact> 0.10739748E+04</totfact>
</mgrwt>
</event>
<event>
 9    1  0.7997082E-001  0.2700202E+03  0.7818608E-02  0.1101268E+00
         -2   -1    0    0    0  501 -0.00000000000E+00  0.00000000000E+00  0.20484171779E+04  0.20484171779E+04  0.00000000000E+00 0.  1.
          2   -1    0    0  501    0  0.00000000000E+00 -0.00000000000E+00 -0.88984476638E+01  0.88984476638E+01  0.00000000000E+00 0.  1.
         35    2    1    2    0    0  0.00000000000E+00  0.71054273576E-14  0.20395187302E+04  0.20573156256E+04  0.27002024406E+03 0.  0.
         25    2    3    3    0    0  0.14310951913E+02  0.43165837650E+02  0.87695787698E+03  0.88700845044E+03  0.12514303918E+03 0.  0.
         25    2    3    3    0    0 -0.14310951913E+02 -0.43165837650E+02  0.11625608532E+04  0.11703071751E+04  0.12650317687E+03 0.  0.
          5    1    4    4  502    0  0.43828339258E+02  0.59136340293E+02  0.79367525659E+03  0.79709505894E+03  0.47000000000E+01 0. -1.
         -5    1    4    4    0  502 -0.29517387345E+02 -0.15970502642E+02  0.83282620391E+02  0.89913391492E+02  0.47000000000E+01 0. -1.
          5    1    5    5  503    0 -0.46797860575E+02 -0.74876966050E+02  0.80661191879E+03  0.81144406913E+03  0.47000000000E+01 0. -1.
         -5    1    5    5    0  503  0.32486908662E+02  0.31711128400E+02  0.35594893446E+03  0.35886310599E+03  0.47000000000E+01 0. -1.
<mgrwt>
<rscale>  0 0.27002024E+03</rscale>
<asrwt>0</asrwt>
<pdfrwt beam="1">  1        2 0.13689936E-02 0.27002024E+03</pdfrwt>
<pdfrwt beam="2">  1       -2 0.31514073E+00 0.27002024E+03</pdfrwt>
<totfact> 0.27699225E+02</totfact>
</mgrwt>
</event>
<event>
 9    1  0.7997082E-001  0.2761494E+03  0.7818608E-02  0.1097811E+00
         -3   -1    0    0    0  501 -0.00000000000E+00  0.00000000000E+00  0.15443290694E+03  0.15443290694E+03  0.00000000000E+00 0.  1.
          3   -1    0    0  501    0  0.00000000000E+00 -0.00000000000E+00 -0.12344926947E+03  0.12344926947E+03  0.00000000000E+00 0.  1.
         35    2    1    2    0    0 -0.17763568394E-14 -0.71054273576E-14  0.30983637472E+02  0.27788217642E+03  0.27614944899E+03 0.  0.
         25    2    3    3    0    0 -0.50872198304E+01  0.55389627485E+02  0.13207135630E+02  0.13357196597E+03  0.12071930675E+03 0.  0.
         25    2    3    3    0    0  0.50872198304E+01 -0.55389627485E+02  0.17776501841E+02  0.14431021045E+03  0.13196795893E+03 0.  0.
          5    1    4    4  502    0 -0.21009893869E+02  0.78481166845E+02  0.43286195178E+02  0.92176428021E+02  0.47000000000E+01 0.  1.
         -5    1    4    4    0  502  0.15922674039E+02 -0.23091539360E+02 -0.30079059548E+02  0.41395537946E+02  0.47000000000E+01 0.  1.
          5    1    5    5  503    0  0.30982024797E+02  0.33600901689E+02 -0.10822133502E+02  0.47202913347E+02  0.47000000000E+01 0.  1.
         -5    1    5    5    0  503 -0.25894804967E+02 -0.88990529174E+02  0.28598635344E+02  0.97107297102E+02  0.47000000000E+01 0.  1.
<mgrwt>
<rscale>  0 0.27614945E+03</rscale>
<asrwt>0</asrwt>
<pdfrwt beam="1">  1        3 0.18992195E-01 0.27614945E+03</pdfrwt>
<pdfrwt beam="2">  1       -3 0.23758909E-01 0.27614945E+03</pdfrwt>
<totfact> 0.10312012E+03</totfact>
</mgrwt>
</event>
<event>
 9    1  0.7997082E-001  0.2705294E+03  0.7818608E-02  0.1100977E+00
         -1   -1    0    0    0  501 -0.00000000000E+00  0.00000000000E+00  0.28536097893E+03  0.28536097893E+03  0.00000000000E+00 0. -1.
          1   -1    0    0  501    0  0.00000000000E+00 -0.00000000000E+00 -0.64117190924E+02  0.64117190924E+02  0.00000000000E+00 0. -1.
         35    2    1    2    0    0  0.00000000000E+00  0.00000000000E+00  0.22124378801E+03  0.34947816985E+03  0.27052943920E+03 0.  0.
         25    2    3    3    0    0 -0.49633426643E+02 -0.15050107696E+02  0.11437682038E+03  0.17719831012E+03  0.12500880484E+03 0.  0.
         25    2    3    3    0    0  0.49633426643E+02  0.15050107696E+02  0.10686696763E+03  0.17227985974E+03  0.12477907885E+03 0.  0.
          5    1    4    4  502    0 -0.62615046760E+02  0.30815738996E+02  0.10828918445E+03  0.12891427896E+03  0.47000000000E+01 0.  1.
         -5    1    4    4    0  502  0.12981620117E+02 -0.45865846692E+02  0.60876359224E+01  0.48284031157E+02  0.47000000000E+01 0.  1.
          5    1    5    5  503    0  0.79393783693E+02  0.43389744101E+02  0.89711823157E+02  0.12750036861E+03  0.47000000000E+01 0. -1.
         -5    1    5    5    0  503 -0.29760357050E+02 -0.28339636405E+02  0.17155144473E+02  0.44779491123E+02  0.47000000000E+01 0. -1.
<mgrwt>
<rscale>  0 0.27052944E+03</rscale>
<asrwt>0</asrwt>
<pdfrwt beam="1">  1        1 0.98641834E-02 0.27052944E+03</pdfrwt>
<pdfrwt beam="2">  1       -1 0.43901688E-01 0.27052944E+03</pdfrwt>
<totfact> 0.33942300E+03</totfact>
</mgrwt>
</event>
<event>
 9    1  0.7997082E-001  0.2764045E+03  0.7818608E-02  0.1097669E+00
         -2   -1    0    0    0  501 -0.00000000000E+00  0.00000000000E+00  0.15301862712E+03  0.15301862712E+03  0.00000000000E+00 0. -1.
          2   -1    0    0  501    0  0.00000000000E+00 -0.00000000000E+00 -0.12482048230E+03  0.12482048230E+03  0.00000000000E+00 0. -1.
         35    2    1    2    0    0 -0.35527136788E-14  0.14210854715E-13  0.28198144812E+02  0.27783910942E+03  0.27640447781E+03 0.  0.
         25    2    3    3    0    0 -0.13175945138E+02  0.45656917589E+02 -0.21741910670E+02  0.13495764944E+03  0.12442948528E+03 0.  0.
         25    2    3    3    0    0  0.13175945138E+02 -0.45656917589E+02  0.49940055483E+02  0.14288145999E+03  0.12515167922E+03 0.  0.
          5    1    4    4  502    0  0.25101257281E+02  0.67023003398E+02  0.19773981874E+02  0.74399304169E+02  0.47000000000E+01 0.  1.
         -5    1    4    4    0  502 -0.38277202419E+02 -0.21366085809E+02 -0.41515892544E+02  0.60558345268E+02  0.47000000000E+01 0.  1.
          5    1    5    5  503    0 -0.23006468268E+02  0.10922797596E+02  0.68344880556E+02  0.73087056225E+02  0.47000000000E+01 0.  1.
         -5    1    5    5    0  503  0.36182413406E+02 -0.56579715185E+02 -0.18404825073E+02  0.69794403760E+02  0.47000000000E+01 0.  1.
<mgrwt>
<rscale>  0 0.27640448E+03</rscale>
<asrwt>0</asrwt>
<pdfrwt beam="1">  1        2 0.19203151E-01 0.27640448E+03</pdfrwt>
<pdfrwt beam="2">  1       -2 0.23541327E-01 0.27640448E+03</pdfrwt>
<totfact> 0.45752336E+03</totfact>
</mgrwt>
</event>
<event>
 9    1  0.7997082E-001  0.2669776E+03  0.7818608E-02  0.1103022E+00
          2   -1    0    0  501    0  0.00000000000E+00  0.00000000000E+00  0.49254340106E+03  0.49254340106E+03  0.00000000000E+00 0.  1.
         -2   -1    0    0    0  501 -0.00000000000E+00 -0.00000000000E+00 -0.36178043555E+02  0.36178043555E+02  0.00000000000E+00 0.  1.
         35    2    1    2    0    0 -0.35527136788E-14 -0.35527136788E-14  0.45636535750E+03  0.52872144461E+03  0.26697757671E+03 0.  0.
         25    2    3    3    0    0 -0.11176164116E+02 -0.30564428739E+01  0.14335889110E+03  0.19169302188E+03  0.12672882266E+03 0.  0.
         25    2    3    3    0    0  0.11176164116E+02  0.30564428739E+01  0.31300646640E+03  0.33702842273E+03  0.12442210910E+03 0.  0.
          5    1    4    4  502    0 -0.11600281942E+02  0.53169669731E+02  0.23986845744E+02  0.59657682566E+02  0.47000000000E+01 0.  1.
         -5    1    4    4    0  502  0.42411782691E+00 -0.56226112605E+02  0.11937204536E+03  0.13203533931E+03  0.47000000000E+01 0.  1.
          5    1    5    5  503    0 -0.16206386952E+02  0.31220819143E+02  0.18775478780E+02  0.40149659144E+02  0.47000000000E+01 0.  1.
         -5    1    5    5    0  503  0.27382551068E+02 -0.28164376269E+02  0.29423098762E+03  0.29687876359E+03  0.47000000000E+01 0.  1.
<mgrwt>
<rscale>  0 0.26697758E+03</rscale>
<asrwt>0</asrwt>
<pdfrwt beam="1">  1        2 0.75775903E-01 0.26697758E+03</pdfrwt>
<pdfrwt beam="2">  1       -2 0.55658532E-02 0.26697758E+03</pdfrwt>
<totfact> 0.10441108E+04</totfact>
</mgrwt>
</event>
<event>
 9    1  0.7997082E-001  0.2830300E+03  0.7818608E-02  0.1094045E+00
          1   -1    0    0  501    0  0.00000000000E+00  0.00000000000E+00  0.14973328789E+03  0.14973328789E+03  0.00000000000E+00 0.  1.
         -1   -1    0    0    0  501 -0.00000000000E+00 -0.00000000000E+00 -0.13374778154E+03  0.13374778154E+03  0.00000000000E+00 0.  1.
         35    2    1    2    0    0  0.00000000000E+00 -0.35527136788E-14  0.15985506348E+02  0.28348106942E+03  0.28302999895E+03 0.  0.
         25    2    3    3    0    0 -0.18731950386E+02 -0.11012440395E+02 -0.50904601505E+02  0.14280102136E+03  0.13163849528E+03 0.  0.
         25    2    3    3    0    0  0.18731950386E+02  0.11012440395E+02  0.66890107853E+02  0.14068004806E+03  0.12183771823E+03 0.  0.
          5    1    4    4  502    0  0.18002313325E+02 -0.31707999309E+02 -0.82223993231E+02  0.90068615889E+02  0.47000000000E+01 0.  1.
         -5    1    4    4    0  502 -0.36734263711E+02  0.20695558914E+02  0.31319391726E+02  0.52732405476E+02  0.47000000000E+01 0.  1.
          5    1    5    5  503    0  0.17837562185E+01 -0.49710852639E+02  0.58458059939E+02  0.76901140617E+02  0.47000000000E+01 0. -1.
         -5    1    5    5    0  503  0.16948194167E+02  0.60723293034E+02  0.84320479137E+01  0.63778907442E+02  0.47000000000E+01 0. -1.
<mgrwt>
<rscale>  0 0.28303000E+03</rscale>
<asrwt>0</asrwt>
<pdfrwt beam="1">  1        1 0.23035890E-01 0.28303000E+03</pdfrwt>
<pdfrwt beam="2">  1       -1 0.20576582E-01 0.28303000E+03</pdfrwt>
<totfact> 0.40718699E+03</totfact>
</mgrwt>
</event>
<event>
 9    1  0.7997082E-001  0.2739173E+03  0.7818608E-02  0.1099058E+00
         -2   -1    0    0    0  501 -0.00000000000E+00  0.00000000000E+00  0.57221668842E+02  0.57221668842E+02  0.00000000000E+00 0.  1.
          2   -1    0    0  501    0  0.00000000000E+00 -0.00000000000E+00 -0.32780711123E+03  0.32780711123E+03  0.00000000000E+00 0.  1.
         35    2    1    2    0    0 -0.71054273576E-14 -0.35527136788E-14 -0.27058544239E+03  0.38502878007E+03  0.27391728652E+03 0.  0.
         25    2    3    3    0    0 -0.20801784326E+02 -0.22493964317E+02 -0.73038381887E+02  0.14922618428E+03  0.12647195809E+03 0.  0.
         25    2    3    3    0    0  0.20801784326E+02  0.22493964317E+02 -0.19754706050E+03  0.23580259580E+03  0.12505730850E+03 0.  0.
          5    1    4    4  502    0  0.46998125748E+02 -0.37637581554E+02 -0.30923184716E+02  0.67850900672E+02  0.47000000000E+01 0. -1.
         -5    1    4    4    0  502 -0.67799910074E+02  0.15143617236E+02 -0.42115197171E+02  0.81375283605E+02  0.47000000000E+01 0. -1.
          5    1    5    5  503    0 -0.41134289429E+02 -0.15493686043E+02 -0.12678969627E+03  0.13427509506E+03  0.47000000000E+01 0. -1.
         -5    1    5    5    0  503  0.61936073755E+02  0.37987650361E+02 -0.70757364232E+02  0.10152750073E+03  0.47000000000E+01 0. -1.
<mgrwt>
<rscale>  0 0.27391729E+03</rscale>
<asrwt>0</asrwt>
<pdfrwt beam="1">  1        2 0.50431864E-01 0.27391729E+03</pdfrwt>
<pdfrwt beam="2">  1       -2 0.88033335E-02 0.27391729E+03</pdfrwt>
<totfact> 0.80094880E+03</totfact>
</mgrwt>
</event>
<event>
 9    1  0.7997082E-001  0.2698938E+03  0.7818608E-02  0.1101340E+00
          2   -1    0    0  501    0  0.00000000000E+00  0.00000000000E+00  0.14213194464E+03  0.14213194464E+03  0.00000000000E+00 0.  1.
         -2   -1    0    0    0  501 -0.00000000000E+00 -0.00000000000E+00 -0.12812509609E+03  0.12812509609E+03  0.00000000000E+00 0.  1.
         35    2    1    2    0    0  0.71054273576E-14  0.00000000000E+00  0.14006848550E+02  0.27025704073E+03  0.26989382405E+03 0.  0.
         25    2    3    3    0    0  0.35657322911E+02  0.32014537250E+02 -0.11272073512E+02  0.13403496953E+03  0.12466730984E+03 0.  0.
         25    2    3    3    0    0 -0.35657322911E+02 -0.32014537250E+02  0.25278922062E+02  0.13622207121E+03  0.12498421305E+03 0.  0.
          5    1    4    4  502    0  0.80491919125E+00  0.76529633310E+02 -0.96310509081E+01  0.77280526726E+02  0.47000000000E+01 0.  1.
         -5    1    4    4    0  502  0.34852403720E+02 -0.44515096060E+02 -0.16410226039E+01  0.56754442799E+02  0.47000000000E+01 0.  1.
          5    1    5    5  503    0 -0.12038661437E+02 -0.58870998279E+02 -0.32220370082E+02  0.68344466168E+02  0.47000000000E+01 0. -1.
         -5    1    5    5    0  503 -0.23618661475E+02  0.26856461029E+02  0.57499292144E+02  0.67877605040E+02  0.47000000000E+01 0. -1.
<mgrwt>
<rscale>  0 0.26989382E+03</rscale>
<asrwt>0</asrwt>
<pdfrwt beam="1">  1        2 0.21866453E-01 0.26989382E+03</pdfrwt>
<pdfrwt beam="2">  1       -2 0.19711553E-01 0.26989382E+03</pdfrwt>
<totfact> 0.53563210E+03</totfact>
</mgrwt>
</event>
<event>
 9    1  0.7997082E-001  0.2730255E+03  0.7818608E-02  0.1099560E+00
         -2   -1    0    0    0  501 -0.00000000000E+00  0.00000000000E+00  0.35473050613E+03  0.35473050613E+03  0.00000000000E+00 0.  1.
          2   -1    0    0  501    0  0.00000000000E+00 -0.00000000000E+00 -0.52534884601E+02  0.52534884601E+02  0.00000000000E+00 0.  1.
         35    2    1    2    0    0  0.35527136788E-14  0.00000000000E+00  0.30219562153E+03  0.40726539073E+03  0.27302546551E+03 0.  0.
         25    2    3    3    0    0 -0.21055155124E+02 -0.53404428349E+02  0.12589345002E+03  0.18629384521E+03  0.12474327028E+03 0.  0.
         25    2    3    3    0    0  0.21055155124E+02  0.53404428349E+02  0.17630217150E+03  0.22097154552E+03  0.12021071386E+03 0.  0.
          5    1    4    4  502    0  0.80813284256E+01 -0.89492502740E+02  0.73685949683E+02  0.11630101073E+03  0.47000000000E+01 0.  1.
         -5    1    4    4    0  502 -0.29136483550E+02  0.36088074391E+02  0.52207500339E+02  0.69992834480E+02  0.47000000000E+01 0.  1.
          5    1    5    5  503    0 -0.31279533261E+02  0.67581987077E+01  0.12772031690E+01  0.32369796087E+02  0.47000000000E+01 0. -1.
         -5    1    5    5    0  503  0.52334688385E+02  0.46646229641E+02  0.17502496833E+03  0.18860174943E+03  0.47000000000E+01 0. -1.
<mgrwt>
<rscale>  0 0.27302547E+03</rscale>
<asrwt>0</asrwt>
<pdfrwt beam="1">  1        2 0.80822901E-02 0.27302547E+03</pdfrwt>
<pdfrwt beam="2">  1       -2 0.54573923E-01 0.27302547E+03</pdfrwt>
<totfact> 0.26897495E+03</totfact>
</mgrwt>
</event>
<event>
 9    1  0.7997082E-001  0.2685985E+03  0.7818608E-02  0.1102084E+00
         -2   -1    0    0    0  501 -0.00000000000E+00  0.00000000000E+00  0.20379147973E+02  0.20379147973E+02  0.00000000000E+00 0.  1.
          2   -1    0    0  501    0  0.00000000000E+00 -0.00000000000E+00 -0.88503661276E+03  0.88503661276E+03  0.00000000000E+00 0.  1.
         35    2    1    2    0    0  0.71054273576E-14  0.00000000000E+00 -0.86465746479E+03  0.90541576074E+03  0.26859852638E+03 0.  0.
         25    2    3    3    0    0 -0.29474692358E+02 -0.48905078769E+01 -0.57643691218E+03  0.59062995115E+03  0.12518606518E+03 0.  0.
         25    2    3    3    0    0  0.29474692358E+02  0.48905078769E+01 -0.28822055261E+03  0.31478580959E+03  0.12298920446E+03 0.  0.
          5    1    4    4  502    0 -0.75690300201E+02  0.15677485424E+02 -0.37202812506E+03  0.38000239595E+03  0.47000000000E+01 0.  1.
         -5    1    4    4    0  502  0.46215607843E+02 -0.20567993301E+02 -0.20440878712E+03  0.21062755519E+03  0.47000000000E+01 0.  1.
          5    1    5    5  503    0  0.58844526533E+02 -0.23381571500E+01 -0.27528917590E+03  0.28155703800E+03  0.47000000000E+01 0. -1.
         -5    1    5    5    0  503 -0.29369834175E+02  0.72286650269E+01 -0.12931376715E+02  0.33228771588E+02  0.47000000000E+01 0. -1.
<mgrwt>
<rscale>  0 0.26859853E+03</rscale>
<asrwt>0</asrwt>
<pdfrwt beam="1">  1        2 0.13615947E+00 0.26859853E+03</pdfrwt>
<pdfrwt beam="2">  1       -2 0.31352538E-02 0.26859853E+03</pdfrwt>
<totfact> 0.12269457E+04</totfact>
</mgrwt>
</event>
<event>
 9    1  0.7997082E-001  0.2779756E+03  0.7818608E-02  0.1096800E+00
          1   -1    0    0  501    0  0.00000000000E+00  0.00000000000E+00  0.69287632260E+02  0.69287632260E+02  0.00000000000E+00 0. -1.
         -1   -1    0    0    0  501 -0.00000000000E+00 -0.00000000000E+00 -0.27880315057E+03  0.27880315057E+03  0.00000000000E+00 0. -1.
         35    2    1    2    0    0 -0.10658141036E-13  0.71054273576E-14 -0.20951551831E+03  0.34809078283E+03  0.27797561166E+03 0.  0.
         25    2    3    3    0    0  0.11566214503E+02 -0.44209628607E+02 -0.14748105891E+03  0.20048116126E+03  0.12788183884E+03 0.  0.
         25    2    3    3    0    0 -0.11566214503E+02  0.44209628607E+02 -0.62034459395E+02  0.14760962156E+03  0.12590495481E+03 0.  0.
          5    1    4    4  502    0  0.57133683666E+02  0.71684199817E+01 -0.10427607294E+03  0.11921087804E+03  0.47000000000E+01 0.  1.
         -5    1    4    4    0  502 -0.45567469164E+02 -0.51378048589E+02 -0.43204985970E+02  0.81270283225E+02  0.47000000000E+01 0.  1.
          5    1    5    5  503    0  0.30291474453E+02  0.72541508943E+02 -0.18883061342E+02  0.80984590818E+02  0.47000000000E+01 0.  1.
         -5    1    5    5    0  503 -0.41857688955E+02 -0.28331880336E+02 -0.43151398052E+02  0.66625030746E+02  0.47000000000E+01 0.  1.
<mgrwt>
<rscale>  0 0.27797561E+03</rscale>
<asrwt>0</asrwt>
<pdfrwt beam="1">  1        1 0.10659636E-01 0.27797561E+03</pdfrwt>
<pdfrwt beam="2">  1       -1 0.42892792E-01 0.27797561E+03</pdfrwt>
<totfact> 0.31918366E+03</totfact>
</mgrwt>
</event>
<event>
 9    1  0.7997082E-001  0.2753665E+03  0.7818608E-02  0.1098247E+00
         -2   -1    0    0    0  501 -0.00000000000E+00  0.00000000000E+00  0.62834427623E+03  0.62834427623E+03  0.00000000000E+00 0. -1.
          2   -1    0    0  501    0  0.00000000000E+00 -0.00000000000E+00 -0.30169260238E+02  0.30169260238E+02  0.00000000000E+00 0. -1.
         35    2    1    2    0    0  0.17763568394E-14  0.71054273576E-14  0.59817501599E+03  0.65851353646E+03  0.27536653383E+03 0.  0.
         25    2    3    3    0    0 -0.28510277942E+01 -0.13208422663E+02  0.16839594646E+03  0.21095926252E+03  0.12634882220E+03 0.  0.
         25    2    3    3    0    0  0.28510277942E+01  0.13208422663E+02  0.42977906953E+03  0.44755427394E+03  0.12414583653E+03 0.  0.
          5    1    4    4  502    0 -0.15868918338E+02 -0.68276407043E+02  0.95585669450E+02  0.11862630624E+03  0.47000000000E+01 0.  1.
         -5    1    4    4    0  502  0.13017890544E+02  0.55067984380E+02  0.72810277009E+02  0.92332956283E+02  0.47000000000E+01 0.  1.
          5    1    5    5  503    0  0.15529343577E+02 -0.53525946253E+02  0.16805276748E+03  0.17711580983E+03  0.47000000000E+01 0.  1.
         -5    1    5    5    0  503 -0.12678315783E+02  0.66734368917E+02  0.26172630205E+03  0.27043846411E+03  0.47000000000E+01 0.  1.
<mgrwt>
<rscale>  0 0.27536653E+03</rscale>
<asrwt>0</asrwt>
<pdfrwt beam="1">  1        2 0.46414251E-02 0.27536653E+03</pdfrwt>
<pdfrwt beam="2">  1       -2 0.96668340E-01 0.27536653E+03</pdfrwt>
<totfact> 0.16093010E+03</totfact>
</mgrwt>
</event>
<event>
 9    1  0.7997082E-001  0.2709131E+03  0.7818608E-02  0.1100758E+00
         -2   -1    0    0    0  501 -0.00000000000E+00  0.00000000000E+00  0.36142480592E+02  0.36142480592E+02  0.00000000000E+00 0.  1.
          2   -1    0    0  501    0  0.00000000000E+00 -0.00000000000E+00 -0.50767073720E+03  0.50767073720E+03  0.00000000000E+00 0.  1.
         35    2    1    2    0    0  0.00000000000E+00 -0.71054273576E-14 -0.47152825661E+03  0.54381321779E+03  0.27091312088E+03 0.  0.
         25    2    3    3    0    0  0.45199592228E+02  0.38085144021E+02 -0.22968271858E+03  0.26533717135E+03  0.11897975438E+03 0.  0.
         25    2    3    3    0    0 -0.45199592228E+02 -0.38085144021E+02 -0.24184553803E+03  0.27847604644E+03  0.12476442941E+03 0.  0.
          5    1    4    4  502    0  0.19916640215E+02  0.68377436082E+01 -0.22333364507E+03  0.22437342605E+03  0.47000000000E+01 0.  1.
         -5    1    4    4    0  502  0.25282952013E+02  0.31247400412E+02 -0.63490735108E+01  0.40963745306E+02  0.47000000000E+01 0.  1.
          5    1    5    5  503    0 -0.53797510759E+02 -0.79015004469E+02 -0.15986273327E+03  0.18632156768E+03  0.47000000000E+01 0. -1.
         -5    1    5    5    0  503  0.85979185307E+01  0.40929860448E+02 -0.81982804761E+02  0.92154478762E+02  0.47000000000E+01 0. -1.
<mgrwt>
<rscale>  0 0.27091312E+03</rscale>
<asrwt>0</asrwt>
<pdfrwt beam="1">  1        2 0.78103188E-01 0.27091312E+03</pdfrwt>
<pdfrwt beam="2">  1       -2 0.55603818E-02 0.27091312E+03</pdfrwt>
<totfact> 0.10115009E+04</totfact>
</mgrwt>
</event>
<event>
 9    1  0.7997082E-001  0.2668008E+03  0.7818608E-02  0.1103125E+00
          2   -1    0    0  501    0  0.00000000000E+00  0.00000000000E+00  0.10129414814E+04  0.10129414814E+04  0.00000000000E+00 0. -1.
         -2   -1    0    0    0  501 -0.00000000000E+00 -0.00000000000E+00 -0.17568312175E+02  0.17568312175E+02  0.00000000000E+00 0. -1.
         35    2    1    2    0    0  0.88817841970E-15  0.00000000000E+00  0.99537316919E+03  0.10305097935E+04  0.26680084077E+03 0.  0.
         25    2    3    3    0    0  0.20761774177E+01 -0.69327674576E+01  0.68090273027E+03  0.69193495322E+03  0.12285388727E+03 0.  0.
         25    2    3    3    0    0 -0.20761774177E+01  0.69327674576E+01  0.31447043892E+03  0.33857484033E+03  0.12525530635E+03 0.  0.
          5    1    4    4  502    0  0.13610139058E+02 -0.22525703133E+02  0.66718049740E+03  0.66771591960E+03  0.47000000000E+01 0. -1.
         -5    1    4    4    0  502 -0.11533961640E+02  0.15592935675E+02  0.13722232872E+02  0.24219033612E+02  0.47000000000E+01 0. -1.
          5    1    5    5  503    0 -0.92625127453E+01 -0.55850441345E+02  0.19792607562E+03  0.20591718566E+03  0.47000000000E+01 0.  1.
         -5    1    5    5    0  503  0.71863353276E+01  0.62783208803E+02  0.11654436331E+03  0.13265765467E+03  0.47000000000E+01 0.  1.
<mgrwt>
<rscale>  0 0.26680084E+03</rscale>
<asrwt>0</asrwt>
<pdfrwt beam="1">  1        2 0.15583710E+00 0.26680084E+03</pdfrwt>
<pdfrwt beam="2">  1       -2 0.27028181E-02 0.26680084E+03</pdfrwt>
<totfact> 0.12709134E+04</totfact>
</mgrwt>
</event>
<event>
 9    1  0.7997082E-001  0.2933097E+03  0.7818608E-02  0.1088634E+00
         -1   -1    0    0    0  501 -0.00000000000E+00  0.00000000000E+00  0.60730806895E+02  0.60730806895E+02  0.00000000000E+00 0. -1.
          1   -1    0    0  501    0  0.00000000000E+00 -0.00000000000E+00 -0.35414730121E+03  0.35414730121E+03  0.00000000000E+00 0. -1.
         35    2    1    2    0    0  0.00000000000E+00  0.00000000000E+00 -0.29341649432E+03  0.41487810811E+03  0.29330974319E+03 0.  0.
         25    2    3    3    0    0 -0.26604093024E+02 -0.46368703317E+02 -0.60588932667E+02  0.14703278061E+03  0.12284048762E+03 0.  0.
         25    2    3    3    0    0  0.26604093024E+02  0.46368703317E+02 -0.23282756165E+03  0.26784532750E+03  0.12113881122E+03 0.  0.
          5    1    4    4  502    0  0.21221501842E+02 -0.26299262065E+02 -0.83451643748E+02  0.90156919700E+02  0.47000000000E+01 0. -1.
         -5    1    4    4    0  502 -0.47825594866E+02 -0.20069441252E+02  0.22862711081E+02  0.56875860911E+02  0.47000000000E+01 0. -1.
          5    1    5    5  503    0 -0.36820345973E+02  0.53688467949E+02 -0.88584247223E+02  0.11003385081E+03  0.47000000000E+01 0. -1.
         -5    1    5    5    0  503  0.63424438997E+02 -0.73197646322E+01 -0.14424331443E+03  0.15781147669E+03  0.47000000000E+01 0. -1.
<mgrwt>
<rscale>  0 0.29330974E+03</rscale>
<asrwt>0</asrwt>
<pdfrwt beam="1">  1        1 0.54484202E-01 0.29330974E+03</pdfrwt>
<pdfrwt beam="2">  1       -1 0.93432008E-02 0.29330974E+03</pdfrwt>
<totfact> 0.47877641E+03</totfact>
</mgrwt>
</event>
<event>
 9    1  0.7997082E-001  0.2778177E+03  0.7818608E-02  0.1096887E+00
         -1   -1    0    0    0  501 -0.00000000000E+00  0.00000000000E+00  0.29251413891E+02  0.29251413891E+02  0.00000000000E+00 0.  1.
          1   -1    0    0  501    0  0.00000000000E+00 -0.00000000000E+00 -0.65964916690E+03  0.65964916690E+03  0.00000000000E+00 0.  1.
         35    2    1    2    0    0  0.71054273576E-14  0.00000000000E+00 -0.63039775301E+03  0.68890058079E+03  0.27781771580E+03 0.  0.
         25    2    3    3    0    0 -0.34278988135E+02  0.35118709815E+02 -0.21567442054E+03  0.25383762628E+03  0.12453799435E+03 0.  0.
         25    2    3    3    0    0  0.34278988135E+02 -0.35118709815E+02 -0.41472333247E+03  0.43506295450E+03  0.12196704096E+03 0.  0.
          5    1    4    4  502    0 -0.61207914427E+02 -0.26160426730E+02 -0.11017172872E+03  0.12880480008E+03  0.47000000000E+01 0.  1.
         -5    1    4    4    0  502  0.26928926292E+02  0.61279136546E+02 -0.10550269182E+03  0.12503282620E+03  0.47000000000E+01 0.  1.
          5    1    5    5  503    0 -0.39803096730E+02 -0.31860882406E+02 -0.10879499185E+03  0.12024076925E+03  0.47000000000E+01 0. -1.
         -5    1    5    5    0  503  0.74082084865E+02 -0.32578274090E+01 -0.30592834061E+03  0.31482218526E+03  0.47000000000E+01 0. -1.
<mgrwt>
<rscale>  0 0.27781772E+03</rscale>
<asrwt>0</asrwt>
<pdfrwt beam="1">  1        1 0.10148448E+00 0.27781772E+03</pdfrwt>
<pdfrwt beam="2">  1       -1 0.45002176E-02 0.27781772E+03</pdfrwt>
<totfact> 0.63200701E+03</totfact>
</mgrwt>
</event>
<event>
 9    1  0.7997082E-001  0.2780638E+03  0.7818608E-02  0.1096751E+00
         -1   -1    0    0    0  501 -0.00000000000E+00  0.00000000000E+00  0.71223438155E+02  0.71223438155E+02  0.00000000000E+00 0.  1.
          1   -1    0    0  501    0  0.00000000000E+00 -0.00000000000E+00 -0.27139752584E+03  0.27139752584E+03  0.00000000000E+00 0.  1.
         35    2    1    2    0    0  0.00000000000E+00 -0.14210854715E-13 -0.20017408769E+03  0.34262096400E+03  0.27806376893E+03 0.  0.
         25    2    3    3    0    0 -0.43701708449E+02  0.40592604544E+02 -0.13116219683E+03  0.18754421485E+03  0.12004878918E+03 0.  0.
         25    2    3    3    0    0  0.43701708449E+02 -0.40592604544E+02 -0.69011890861E+02  0.15507674915E+03  0.12541354863E+03 0.  0.
          5    1    4    4  502    0 -0.42934550734E+02  0.53828090798E+02 -0.14936597519E+03  0.16453912468E+03  0.47000000000E+01 0. -1.
         -5    1    4    4    0  502 -0.76715771458E+00 -0.13235486254E+02  0.18203778360E+02  0.23005090174E+02  0.47000000000E+01 0. -1.
          5    1    5    5  503    0  0.26310609124E+02  0.33394677560E+02  0.11465250476E+02  0.44283118796E+02  0.47000000000E+01 0. -1.
         -5    1    5    5    0  503  0.17391099325E+02 -0.73987282103E+02 -0.80477141337E+02  0.11079363035E+03  0.47000000000E+01 0. -1.
<mgrwt>
<rscale>  0 0.27806377E+03</rscale>
<asrwt>0</asrwt>
<pdfrwt beam="1">  1        1 0.41753466E-01 0.27806377E+03</pdfrwt>
<pdfrwt beam="2">  1       -1 0.10957452E-01 0.27806377E+03</pdfrwt>
<totfact> 0.52259446E+03</totfact>
</mgrwt>
</event>
<event>
 9    1  0.7997082E-001  0.2774186E+03  0.7818608E-02  0.1097107E+00
          2   -1    0    0  501    0  0.00000000000E+00  0.00000000000E+00  0.76129177296E+03  0.76129177296E+03  0.00000000000E+00 0. -1.
         -2   -1    0    0    0  501 -0.00000000000E+00 -0.00000000000E+00 -0.25273192740E+02  0.25273192740E+02  0.00000000000E+00 0. -1.
         35    2    1    2    0    0 -0.71054273576E-14 -0.35527136788E-14  0.73601858022E+03  0.78656496570E+03  0.27741862742E+03 0.  0.
         25    2    3    3    0    0  0.41357554774E+02 -0.85052570436E+01  0.49059939348E+03  0.50842840122E+03  0.12660524295E+03 0.  0.
         25    2    3    3    0    0 -0.41357554774E+02  0.85052570436E+01  0.24541918674E+03  0.27813656448E+03  0.12388133253E+03 0.  0.
          5    1    4    4  502    0  0.61898422308E+02  0.26748206301E+02  0.42963663044E+03  0.43492137846E+03  0.47000000000E+01 0. -1.
         -5    1    4    4    0  502 -0.20540867533E+02 -0.35253463345E+02  0.60962763039E+02  0.73507022755E+02  0.47000000000E+01 0. -1.
          5    1    5    5  503    0  0.17024621907E+01 -0.29664255489E+02  0.45253255272E+01  0.30420963206E+02  0.47000000000E+01 0. -1.
         -5    1    5    5    0  503 -0.43060016965E+02  0.38169512533E+02  0.24089386121E+03  0.24771560128E+03  0.47000000000E+01 0. -1.
<mgrwt>
<rscale>  0 0.27741863E+03</rscale>
<asrwt>0</asrwt>
<pdfrwt beam="1">  1        2 0.11712179E+00 0.27741863E+03</pdfrwt>
<pdfrwt beam="2">  1       -2 0.38881841E-02 0.27741863E+03</pdfrwt>
<totfact> 0.10805301E+04</totfact>
</mgrwt>
</event>
<event>
 9    1  0.7997082E-001  0.2778096E+03  0.7818608E-02  0.1096891E+00
         -1   -1    0    0    0  501 -0.00000000000E+00  0.00000000000E+00  0.15150891591E+04  0.15150891591E+04  0.00000000000E+00 0.  1.
          1   -1    0    0  501    0  0.00000000000E+00 -0.00000000000E+00 -0.12734920054E+02  0.12734920054E+02  0.00000000000E+00 0.  1.
         35    2    1    2    0    0  0.35527136788E-14  0.00000000000E+00  0.15023542390E+04  0.15278240791E+04  0.27780957015E+03 0.  0.
         25    2    3    3    0    0 -0.16571462022E+02 -0.50307724458E+02  0.58552349486E+03  0.60100582735E+03  0.12475881122E+03 0.  0.
         25    2    3    3    0    0  0.16571462022E+02  0.50307724458E+02  0.91683074416E+03  0.92681825178E+03  0.12493189307E+03 0.  0.
          5    1    4    4  502    0 -0.78776425122E+01  0.41151662668E+02  0.22605205814E+03  0.22995029807E+03  0.47000000000E+01 0. -1.
         -5    1    4    4    0  502 -0.86938195095E+01 -0.91459387125E+02  0.35947143672E+03  0.37105552928E+03  0.47000000000E+01 0. -1.
          5    1    5    5  503    0  0.53422334093E+02 -0.41945669778E+01  0.20507111253E+03  0.21200894171E+03  0.47000000000E+01 0. -1.
         -5    1    5    5    0  503 -0.36850872071E+02  0.54502291435E+02  0.71175963163E+03  0.71480931007E+03  0.47000000000E+01 0. -1.
<mgrwt>
<rscale>  0 0.27780957E+03</rscale>
<asrwt>0</asrwt>
<pdfrwt beam="1">  1        1 0.19592197E-02 0.27780957E+03</pdfrwt>
<pdfrwt beam="2">  1       -1 0.23309050E+00 0.27780957E+03</pdfrwt>
<totfact> 0.63269728E+02</totfact>
</mgrwt>
</event>
<event>
 9    1  0.7997082E-001  0.2765321E+03  0.7818608E-02  0.1097598E+00
          2   -1    0    0  501    0  0.00000000000E+00  0.00000000000E+00  0.60606524203E+03  0.60606524203E+03  0.00000000000E+00 0. -1.
         -2   -1    0    0    0  501 -0.00000000000E+00 -0.00000000000E+00 -0.31543636856E+02  0.31543636856E+02  0.00000000000E+00 0. -1.
         35    2    1    2    0    0  0.71054273576E-14  0.00000000000E+00  0.57452160517E+03  0.63760887889E+03  0.27653210957E+03 0.  0.
         25    2    3    3    0    0 -0.47886159928E-01 -0.40954449266E+02  0.38582745720E+03  0.40750053662E+03  0.12456561087E+03 0.  0.
         25    2    3    3    0    0  0.47886159928E-01  0.40954449266E+02  0.18869414798E+03  0.23010834226E+03  0.12516828069E+03 0.  0.
          5    1    4    4  502    0 -0.51748509257E+02 -0.56660773266E+02  0.22397510366E+03  0.23680221387E+03  0.47000000000E+01 0. -1.
         -5    1    4    4    0  502  0.51700623097E+02  0.15706324000E+02  0.16185235354E+03  0.17069832275E+03  0.47000000000E+01 0. -1.
          5    1    5    5  503    0  0.26147720991E+02  0.63817075607E+02  0.45645334222E+02  0.82836640373E+02  0.47000000000E+01 0.  1.
         -5    1    5    5    0  503 -0.26099834831E+02 -0.22862626341E+02  0.14304881375E+03  0.14727170189E+03  0.47000000000E+01 0.  1.
<mgrwt>
<rscale>  0 0.27653211E+03</rscale>
<asrwt>0</asrwt>
<pdfrwt beam="1">  1        2 0.93240798E-01 0.27653211E+03</pdfrwt>
<pdfrwt beam="2">  1       -2 0.48528677E-02 0.27653211E+03</pdfrwt>
<totfact> 0.10173660E+04</totfact>
</mgrwt>
</event>
<event>
 9    1  0.7997082E-001  0.2733420E+03  0.7818608E-02  0.1099382E+00
          2   -1    0    0  501    0  0.00000000000E+00  0.00000000000E+00  0.14323539422E+03  0.14323539422E+03  0.00000000000E+00 0.  1.
         -2   -1    0    0    0  501 -0.00000000000E+00 -0.00000000000E+00 -0.13040740710E+03  0.13040740710E+03  0.00000000000E+00 0.  1.
         35    2    1    2    0    0  0.00000000000E+00  0.71054273576E-14  0.12827987121E+02  0.27364280132E+03  0.27334195701E+03 0.  0.
         25    2    3    3    0    0 -0.44439912238E+02  0.40918105910E+01 -0.24224532019E+02  0.13613780344E+03  0.12631320145E+03 0.  0.
         25    2    3    3    0    0  0.44439912238E+02 -0.40918105910E+01  0.37052519140E+02  0.13750499788E+03  0.12467191566E+03 0.  0.
          5    1    4    4  502    0 -0.38409901777E+02  0.63115164840E+02 -0.80958753640E+01  0.74474678819E+02  0.47000000000E+01 0. -1.
         -5    1    4    4    0  502 -0.60300104616E+01 -0.59023354249E+02 -0.16128656655E+02  0.61663124624E+02  0.47000000000E+01 0. -1.
          5    1    5    5  503    0  0.27316902646E+02 -0.60905346560E+02  0.39908066987E+02  0.77912888667E+02  0.47000000000E+01 0. -1.
         -5    1    5    5    0  503  0.17123009592E+02  0.56813535969E+02 -0.28555478464E+01  0.59592109212E+02  0.47000000000E+01 0. -1.
<mgrwt>
<rscale>  0 0.27334196E+03</rscale>
<asrwt>0</asrwt>
<pdfrwt beam="1">  1        2 0.22036214E-01 0.27334196E+03</pdfrwt>
<pdfrwt beam="2">  1       -2 0.20062678E-01 0.27334196E+03</pdfrwt>
<totfact> 0.51541302E+03</totfact>
</mgrwt>
</event>
<event>
 9    1  0.7997082E-001  0.2747206E+03  0.7818608E-02  0.1098608E+00
         -3   -1    0    0    0  501 -0.00000000000E+00  0.00000000000E+00  0.16805623343E+03  0.16805623343E+03  0.00000000000E+00 0.  1.
          3   -1    0    0  501    0  0.00000000000E+00 -0.00000000000E+00 -0.11227104705E+03  0.11227104705E+03  0.00000000000E+00 0.  1.
         35    2    1    2    0    0  0.71054273576E-14 -0.14210854715E-13  0.55785186383E+02  0.28032728049E+03  0.27472058016E+03 0.  0.
         25    2    3    3    0    0 -0.30242368168E+02  0.47409255028E+02  0.25409853894E+02  0.13824415861E+03  0.12370751158E+03 0.  0.
         25    2    3    3    0    0  0.30242368168E+02 -0.47409255028E+02  0.30375332489E+02  0.14208312187E+03  0.12689647120E+03 0.  0.
          5    1    4    4  502    0  0.52086954692E+01  0.83230662842E+02  0.50247577736E+01  0.83676830343E+02  0.47000000000E+01 0.  1.
         -5    1    4    4    0  502 -0.35451063637E+02 -0.35821407814E+02  0.20385096120E+02  0.54567328271E+02  0.47000000000E+01 0.  1.
          5    1    5    5  503    0  0.75229066401E+02 -0.24808582310E+02 -0.63238469756E+01  0.79605020120E+02  0.47000000000E+01 0.  1.
         -5    1    5    5    0  503 -0.44986698233E+02 -0.22600672718E+02  0.36699179464E+02  0.62478101753E+02  0.47000000000E+01 0.  1.
<mgrwt>
<rscale>  0 0.27472058E+03</rscale>
<asrwt>0</asrwt>
<pdfrwt beam="1">  1        3 0.17272469E-01 0.27472058E+03</pdfrwt>
<pdfrwt beam="2">  1       -3 0.25854805E-01 0.27472058E+03</pdfrwt>
<totfact> 0.10440020E+03</totfact>
</mgrwt>
</event>
<event>
 9    1  0.7997082E-001  0.2764675E+03  0.7818608E-02  0.1097634E+00
         -1   -1    0    0    0  501 -0.00000000000E+00  0.00000000000E+00  0.10132505058E+04  0.10132505058E+04  0.00000000000E+00 0. -1.
          1   -1    0    0  501    0  0.00000000000E+00 -0.00000000000E+00 -0.18858685395E+02  0.18858685395E+02  0.00000000000E+00 0. -1.
         35    2    1    2    0    0  0.35527136788E-14  0.71054273576E-14  0.99439182040E+03  0.10321091912E+04  0.27646752081E+03 0.  0.
         25    2    3    3    0    0  0.23475850126E+02  0.34426458112E+02  0.34196656092E+03  0.36645957567E+03  0.12496077489E+03 0.  0.
         25    2    3    3    0    0 -0.23475850126E+02 -0.34426458112E+02  0.65242525949E+03  0.66564961552E+03  0.12527727196E+03 0.  0.
          5    1    4    4  502    0 -0.11334536876E+01 -0.12702089258E+02  0.29514896684E+03  0.29546172411E+03  0.47000000000E+01 0.  1.
         -5    1    4    4    0  502  0.24609303814E+02  0.47128547370E+02  0.46817594081E+02  0.70997851566E+02  0.47000000000E+01 0.  1.
          5    1    5    5  503    0 -0.42130508591E+02 -0.54671344770E+02  0.61538173326E+03  0.61925818793E+03  0.47000000000E+01 0. -1.
         -5    1    5    5    0  503  0.18654658465E+02  0.20244886658E+02  0.37043526226E+02  0.46391427586E+02  0.47000000000E+01 0. -1.
<mgrwt>
<rscale>  0 0.27646752E+03</rscale>
<asrwt>0</asrwt>
<pdfrwt beam="1">  1        1 0.29013370E-02 0.27646752E+03</pdfrwt>
<pdfrwt beam="2">  1       -1 0.15588465E+00 0.27646752E+03</pdfrwt>
<totfact> 0.12195549E+03</totfact>
</mgrwt>
</event>
<event>
 9    1  0.7997082E-001  0.2733280E+03  0.7818608E-02  0.1099390E+00
         -2   -1    0    0    0  501 -0.00000000000E+00  0.00000000000E+00  0.22329839713E+02  0.22329839713E+02  0.00000000000E+00 0. -1.
          2   -1    0    0  501    0  0.00000000000E+00 -0.00000000000E+00 -0.83641670722E+03  0.83641670722E+03  0.00000000000E+00 0. -1.
         35    2    1    2    0    0  0.71054273576E-14  0.00000000000E+00 -0.81408686751E+03  0.85874654693E+03  0.27332801543E+03 0.  0.
         25    2    3    3    0    0  0.20770209126E+02 -0.33829187386E+02 -0.53470089283E+03  0.55071857673E+03  0.12573818218E+03 0.  0.
         25    2    3    3    0    0 -0.20770209126E+02  0.33829187386E+02 -0.27938597468E+03  0.30802797020E+03  0.12348640441E+03 0.  0.
          5    1    4    4  502    0 -0.48428470903E+02  0.13018759703E+01 -0.28714045221E+03  0.29123657217E+03  0.47000000000E+01 0. -1.
         -5    1    4    4    0  502  0.69198680029E+02 -0.35131063357E+02 -0.24756044062E+03  0.25948200456E+03  0.47000000000E+01 0. -1.
          5    1    5    5  503    0 -0.59763277955E+02  0.56068739594E+02 -0.20752677572E+03  0.22316990298E+03  0.47000000000E+01 0. -1.
         -5    1    5    5    0  503  0.38993068829E+02 -0.22239552207E+02 -0.71859198954E+02  0.84858067226E+02  0.47000000000E+01 0. -1.
<mgrwt>
<rscale>  0 0.27332802E+03</rscale>
<asrwt>0</asrwt>
<pdfrwt beam="1">  1        2 0.12867950E+00 0.27332802E+03</pdfrwt>
<pdfrwt beam="2">  1       -2 0.34353598E-02 0.27332802E+03</pdfrwt>
<totfact> 0.11535127E+04</totfact>
</mgrwt>
</event>
<event>
 9    1  0.7997082E-001  0.2739281E+03  0.7818608E-02  0.1099052E+00
         -1   -1    0    0    0  501 -0.00000000000E+00  0.00000000000E+00  0.18087512565E+03  0.18087512565E+03  0.00000000000E+00 0. -1.
          1   -1    0    0  501    0  0.00000000000E+00 -0.00000000000E+00 -0.10371329985E+03  0.10371329985E+03  0.00000000000E+00 0. -1.
         35    2    1    2    0    0  0.17763568394E-14  0.00000000000E+00  0.77161825800E+02  0.28458842551E+03  0.27392813760E+03 0.  0.
         25    2    3    3    0    0 -0.67900699081E+01 -0.20397530869E+02  0.44909998841E+01  0.12755368283E+03  0.12564875092E+03 0.  0.
         25    2    3    3    0    0  0.67900699081E+01  0.20397530869E+02  0.72670825916E+02  0.15703474268E+03  0.13753798440E+03 0.  0.
          5    1    4    4  502    0 -0.15727621186E+02 -0.48427605113E+02  0.51064889319E+02  0.72265509935E+02  0.47000000000E+01 0.  1.
         -5    1    4    4    0  502  0.89375512781E+01  0.28030074243E+02 -0.46573889434E+02  0.55288172894E+02  0.47000000000E+01 0.  1.
          5    1    5    5  503    0 -0.14105615223E+02 -0.59892500146E+01  0.10731432772E+03  0.10850481294E+03  0.47000000000E+01 0.  1.
         -5    1    5    5    0  503  0.20895685131E+02  0.26386780884E+02 -0.34643501809E+02  0.48529929735E+02  0.47000000000E+01 0.  1.
<mgrwt>
<rscale>  0 0.27392814E+03</rscale>
<asrwt>0</asrwt>
<pdfrwt beam="1">  1        1 0.15955892E-01 0.27392814E+03</pdfrwt>
<pdfrwt beam="2">  1       -1 0.27826942E-01 0.27392814E+03</pdfrwt>
<totfact> 0.39663718E+03</totfact>
</mgrwt>
</event>
<event>
 9    1  0.7997082E-001  0.2737465E+03  0.7818608E-02  0.1099154E+00
          2   -1    0    0  501    0  0.00000000000E+00  0.00000000000E+00  0.11108838000E+04  0.11108838000E+04  0.00000000000E+00 0.  1.
         -2   -1    0    0    0  501 -0.00000000000E+00 -0.00000000000E+00 -0.16864304999E+02  0.16864304999E+02  0.00000000000E+00 0.  1.
         35    2    1    2    0    0  0.00000000000E+00 -0.35527136788E-14  0.10940194950E+04  0.11277481050E+04  0.27374647557E+03 0.  0.
         25    2    3    3    0    0 -0.24682857858E+02  0.22374813506E+02  0.36042470499E+03  0.38285265382E+03  0.12474097490E+03 0.  0.
         25    2    3    3    0    0  0.24682857858E+02 -0.22374813506E+02  0.73359479002E+03  0.74489545119E+03  0.12489211947E+03 0.  0.
          5    1    4    4  502    0 -0.28197694296E+02 -0.31477383088E+01  0.35493067053E+03  0.35609393298E+03  0.47000000000E+01 0. -1.
         -5    1    4    4    0  502  0.35148364381E+01  0.25522551815E+02  0.54940344546E+01  0.26758720838E+02  0.47000000000E+01 0. -1.
          5    1    5    5  503    0  0.16521155613E+02 -0.34291526585E+02  0.60519822070E+02  0.71649118918E+02  0.47000000000E+01 0. -1.
         -5    1    5    5    0  503  0.81617022451E+01  0.11916713079E+02  0.67307496795E+03  0.67324633227E+03  0.47000000000E+01 0. -1.
<mgrwt>
<rscale>  0 0.27374648E+03</rscale>
<asrwt>0</asrwt>
<pdfrwt beam="1">  1        2 0.17090514E+00 0.27374648E+03</pdfrwt>
<pdfrwt beam="2">  1       -2 0.25945093E-02 0.27374648E+03</pdfrwt>
<totfact> 0.11814434E+04</totfact>
</mgrwt>
</event>
<event>
 9    1  0.7997082E-001  0.2760978E+03  0.7818608E-02  0.1097840E+00
          2   -1    0    0  501    0  0.00000000000E+00  0.00000000000E+00  0.36688730534E+03  0.36688730534E+03  0.00000000000E+00 0. -1.
         -2   -1    0    0    0  501 -0.00000000000E+00 -0.00000000000E+00 -0.51943734512E+02  0.51943734512E+02  0.00000000000E+00 0. -1.
         35    2    1    2    0    0  0.71054273576E-14 -0.17763568394E-14  0.31494357082E+03  0.41883103985E+03  0.27609778546E+03 0.  0.
         25    2    3    3    0    0 -0.46075797626E+02  0.50921664476E+01  0.21136125548E+03  0.24972155295E+03  0.12465297591E+03 0.  0.
         25    2    3    3    0    0  0.46075797626E+02 -0.50921664476E+01  0.10358231534E+03  0.16910948690E+03  0.12537867929E+03 0.  0.
          5    1    4    4  502    0  0.10711406719E+02 -0.46130149896E+02  0.40588139214E+02  0.62547677880E+02  0.47000000000E+01 0. -1.
         -5    1    4    4    0  502 -0.56787204345E+02  0.51222316343E+02  0.17077311627E+03  0.18717387507E+03  0.47000000000E+01 0. -1.
          5    1    5    5  503    0  0.85619762830E+02  0.12494060202E+02  0.86224116204E+02  0.12224374644E+03  0.47000000000E+01 0. -1.
         -5    1    5    5    0  503 -0.39543965204E+02 -0.17586226649E+02  0.17358199139E+02  0.46865740463E+02  0.47000000000E+01 0. -1.
<mgrwt>
<rscale>  0 0.27609779E+03</rscale>
<asrwt>0</asrwt>
<pdfrwt beam="1">  1        2 0.56444199E-01 0.27609779E+03</pdfrwt>
<pdfrwt beam="2">  1       -2 0.79913440E-02 0.27609779E+03</pdfrwt>
<totfact> 0.82571894E+03</totfact>
</mgrwt>
</event>
<event>
 9    1  0.7997082E-001  0.2764838E+03  0.7818608E-02  0.1097625E+00
         -2   -1    0    0    0  501 -0.00000000000E+00  0.00000000000E+00  0.32625965670E+02  0.32625965670E+02  0.00000000000E+00 0.  1.
          2   -1    0    0  501    0  0.00000000000E+00 -0.00000000000E+00 -0.58575495921E+03  0.58575495921E+03  0.00000000000E+00 0.  1.
         35    2    1    2    0    0 -0.17763568394E-14  0.00000000000E+00 -0.55312899354E+03  0.61838092488E+03  0.27648378752E+03 0.  0.
         25    2    3    3    0    0  0.98982790677E+00  0.25182622936E+02 -0.39227476042E+03  0.41265964927E+03  0.12559201492E+03 0.  0.
         25    2    3    3    0    0 -0.98982790677E+00 -0.25182622936E+02 -0.16085423312E+03  0.20572127561E+03  0.12574583361E+03 0.  0.
          5    1    4    4  502    0  0.87785294694E+01  0.22006467625E+02 -0.42623673426E+01  0.24527636909E+02  0.47000000000E+01 0.  1.
         -5    1    4    4    0  502 -0.77887015626E+01  0.31761553107E+01 -0.38801239308E+03  0.38813201236E+03  0.47000000000E+01 0.  1.
          5    1    5    5  503    0  0.16769101805E+02 -0.22611821949E+02 -0.17811266902E+03  0.18038489442E+03  0.47000000000E+01 0. -1.
         -5    1    5    5    0  503 -0.17758929712E+02 -0.25708009871E+01  0.17258435904E+02  0.25336381195E+02  0.47000000000E+01 0. -1.
<mgrwt>
<rscale>  0 0.27648379E+03</rscale>
<asrwt>0</asrwt>
<pdfrwt beam="1">  1        2 0.90116137E-01 0.27648379E+03</pdfrwt>
<pdfrwt beam="2">  1       -2 0.50193799E-02 0.27648379E+03</pdfrwt>
<totfact> 0.10055161E+04</totfact>
</mgrwt>
</event>
<event>
 9    1  0.7997082E-001  0.2829325E+03  0.7818608E-02  0.1094098E+00
          2   -1    0    0  501    0  0.00000000000E+00  0.00000000000E+00  0.40878518391E+03  0.40878518391E+03  0.00000000000E+00 0.  1.
         -2   -1    0    0    0  501 -0.00000000000E+00 -0.00000000000E+00 -0.48956530201E+02  0.48956530201E+02  0.00000000000E+00 0.  1.
         35    2    1    2    0    0  0.00000000000E+00  0.71054273576E-14  0.35982865371E+03  0.45774171411E+03  0.28293253049E+03 0.  0.
         25    2    3    3    0    0  0.21274028448E+02  0.52935883855E+02  0.23530353305E+03  0.27218432460E+03  0.12434533287E+03 0.  0.
         25    2    3    3    0    0 -0.21274028448E+02 -0.52935883855E+02  0.12452512066E+03  0.18555738951E+03  0.12518085733E+03 0.  0.
          5    1    4    4  502    0  0.96628369163E+00  0.89113395423E+02  0.19356489205E+03  0.21314687045E+03  0.47000000000E+01 0.  1.
         -5    1    4    4    0  502  0.20307744756E+02 -0.36177511568E+02  0.41738641006E+02  0.59037454157E+02  0.47000000000E+01 0.  1.
          5    1    5    5  503    0 -0.13740614085E+02 -0.84813770132E+02  0.40207126687E+02  0.94978329717E+02  0.47000000000E+01 0. -1.
         -5    1    5    5    0  503 -0.75334143622E+01  0.31877886277E+02  0.84317993971E+02  0.90579059792E+02  0.47000000000E+01 0. -1.
<mgrwt>
<rscale>  0 0.28293253E+03</rscale>
<asrwt>0</asrwt>
<pdfrwt beam="1">  1        2 0.62890026E-01 0.28293253E+03</pdfrwt>
<pdfrwt beam="2">  1       -2 0.75317742E-02 0.28293253E+03</pdfrwt>
<totfact> 0.80608604E+03</totfact>
</mgrwt>
</event>
<event>
 9    1  0.7997082E-001  0.2750028E+03  0.7818608E-02  0.1098450E+00
         -1   -1    0    0    0  501 -0.00000000000E+00  0.00000000000E+00  0.67581215140E+02  0.67581215140E+02  0.00000000000E+00 0.  1.
          1   -1    0    0  501    0  0.00000000000E+00 -0.00000000000E+00 -0.27976166491E+03  0.27976166491E+03  0.00000000000E+00 0.  1.
         35    2    1    2    0    0  0.14210854715E-13  0.17763568394E-14 -0.21218044977E+03  0.34734288005E+03  0.27500278736E+03 0.  0.
         25    2    3    3    0    0  0.46781188035E+02 -0.31910458719E+01 -0.13600817037E+03  0.19313693489E+03  0.12886035419E+03 0.  0.
         25    2    3    3    0    0 -0.46781188035E+02  0.31910458719E+01 -0.76172279403E+02  0.15420594516E+03  0.12561287771E+03 0.  0.
          5    1    4    4  502    0  0.46366724540E+02  0.18111982385E+01  0.93907392486E+01  0.47575514367E+02  0.47000000000E+01 0. -1.
         -5    1    4    4    0  502  0.41446349445E+00 -0.50022441103E+01 -0.14539890962E+03  0.14556142052E+03  0.47000000000E+01 0. -1.
          5    1    5    5  503    0  0.33426333824E+02  0.22865990695E+02  0.14133031079E+01  0.40795352052E+02  0.47000000000E+01 0.  1.
         -5    1    5    5    0  503 -0.80207521859E+02 -0.19674944823E+02 -0.77585582511E+02  0.11341059311E+03  0.47000000000E+01 0.  1.
<mgrwt>
<rscale>  0 0.27500279E+03</rscale>
<asrwt>0</asrwt>
<pdfrwt beam="1">  1        1 0.43040256E-01 0.27500279E+03</pdfrwt>
<pdfrwt beam="2">  1       -1 0.10397110E-01 0.27500279E+03</pdfrwt>
<totfact> 0.54554414E+03</totfact>
</mgrwt>
</event>
<event>
 9    1  0.7997082E-001  0.2710277E+03  0.7818608E-02  0.1100693E+00
          2   -1    0    0  501    0  0.00000000000E+00  0.00000000000E+00  0.23594997343E+04  0.23594997343E+04  0.00000000000E+00 0.  1.
         -2   -1    0    0    0  501 -0.00000000000E+00 -0.00000000000E+00 -0.77830065724E+01  0.77830065724E+01  0.00000000000E+00 0.  1.
         35    2    1    2    0    0  0.71054273576E-14 -0.71054273576E-14  0.23517167278E+04  0.23672827409E+04  0.27102768818E+03 0.  0.
         25    2    3    3    0    0  0.42211121244E+02 -0.27471683834E+02  0.10692196375E+04  0.10777055380E+04  0.12522827617E+03 0.  0.
         25    2    3    3    0    0 -0.42211121244E+02  0.27471683834E+02  0.12824970902E+04  0.12895772029E+04  0.12519626063E+03 0.  0.
          5    1    4    4  502    0 -0.20723950403E+02  0.19816742642E+02  0.67769911910E+03  0.67832173151E+03  0.47000000000E+01 0.  1.
         -5    1    4    4    0  502  0.62935071648E+02 -0.47288426477E+02  0.39152051842E+03  0.39938380647E+03  0.47000000000E+01 0.  1.
          5    1    5    5  503    0 -0.41249812808E+02  0.37316281562E+02  0.12751915858E+04  0.12764128338E+04  0.47000000000E+01 0. -1.
         -5    1    5    5    0  503 -0.96130843685E+00 -0.98445977282E+01  0.73055044576E+01  0.13164369097E+02  0.47000000000E+01 0. -1.
<mgrwt>
<rscale>  0 0.27102769E+03</rscale>
<asrwt>0</asrwt>
<pdfrwt beam="1">  1        2 0.36299939E+00 0.27102769E+03</pdfrwt>
<pdfrwt beam="2">  1       -2 0.11973875E-02 0.27102769E+03</pdfrwt>
<totfact> 0.78430709E+03</totfact>
</mgrwt>
</event>
<event>
 9    1  0.7997082E-001  0.2806703E+03  0.7818608E-02  0.1095323E+00
         -3   -1    0    0    0  501 -0.00000000000E+00  0.00000000000E+00  0.85027975502E+02  0.85027975502E+02  0.00000000000E+00 0.  1.
          3   -1    0    0  501    0  0.00000000000E+00 -0.00000000000E+00 -0.23161735384E+03  0.23161735384E+03  0.00000000000E+00 0.  1.
         35    2    1    2    0    0  0.00000000000E+00  0.17763568394E-14 -0.14658937834E+03  0.31664532934E+03  0.28067030258E+03 0.  0.
         25    2    3    3    0    0 -0.62114888407E+02 -0.15705866403E+02 -0.57335100965E+02  0.15164855629E+03  0.12492012336E+03 0.  0.
         25    2    3    3    0    0  0.62114888407E+02  0.15705866403E+02 -0.89254277372E+02  0.16499677305E+03  0.12309620420E+03 0.  0.
          5    1    4    4  502    0 -0.78851316295E+02  0.88436048056E+01 -0.80917058247E+02  0.11342574550E+03  0.47000000000E+01 0. -1.
         -5    1    4    4    0  502  0.16736427887E+02 -0.24549471208E+02  0.23581957282E+02  0.38222810784E+02  0.47000000000E+01 0. -1.
          5    1    5    5  503    0  0.42500955040E+02 -0.17059510523E+02 -0.11144572890E+03  0.12058025779E+03  0.47000000000E+01 0.  1.
         -5    1    5    5    0  503  0.19613933367E+02  0.32765376926E+02  0.22191451529E+02  0.44416515264E+02  0.47000000000E+01 0.  1.
<mgrwt>
<rscale>  0 0.28067030E+03</rscale>
<asrwt>0</asrwt>
<pdfrwt beam="1">  1        3 0.35633438E-01 0.28067030E+03</pdfrwt>
<pdfrwt beam="2">  1       -3 0.13081227E-01 0.28067030E+03</pdfrwt>
<totfact> 0.92812711E+02</totfact>
</mgrwt>
</event>
<event>
 9    1  0.7997082E-001  0.2767894E+03  0.7818608E-02  0.1097456E+00
         -2   -1    0    0    0  501 -0.00000000000E+00  0.00000000000E+00  0.56918030537E+01  0.56918030537E+01  0.00000000000E+00 0.  1.
          2   -1    0    0  501    0  0.00000000000E+00 -0.00000000000E+00 -0.33650298621E+04  0.33650298621E+04  0.00000000000E+00 0.  1.
         35    2    1    2    0    0 -0.14210854715E-13 -0.71054273576E-14 -0.33593380590E+04  0.33707216651E+04  0.27678935850E+03 0.  0.
         25    2    3    3    0    0  0.49161635052E+02 -0.36292755740E+02 -0.17836431427E+04  0.17890805505E+04  0.12526901212E+03 0.  0.
         25    2    3    3    0    0 -0.49161635052E+02  0.36292755740E+02 -0.15756949164E+04  0.15816411146E+04  0.12263814865E+03 0.  0.
          5    1    4    4  502    0  0.71255860902E+02 -0.65944189204E+02 -0.14740785892E+04  0.14772798688E+04  0.47000000000E+01 0.  1.
         -5    1    4    4    0  502 -0.22094225851E+02  0.29651433464E+02 -0.30956455349E+03  0.31180068169E+03  0.47000000000E+01 0.  1.
          5    1    5    5  503    0 -0.81227756464E+02 -0.59597829029E+01 -0.81046718465E+03  0.81456283664E+03  0.47000000000E+01 0.  1.
         -5    1    5    5    0  503  0.32066121412E+02  0.42252538643E+02 -0.76522773171E+03  0.76707827797E+03  0.47000000000E+01 0.  1.
<mgrwt>
<rscale>  0 0.27678936E+03</rscale>
<asrwt>0</asrwt>
<pdfrwt beam="1">  1        2 0.51769848E+00 0.27678936E+03</pdfrwt>
<pdfrwt beam="2">  1       -2 0.87565934E-03 0.27678936E+03</pdfrwt>
<totfact> 0.32098218E+03</totfact>
</mgrwt>
</event>
<event>
 9    1  0.7997082E-001  0.2740058E+03  0.7818608E-02  0.1099009E+00
         -1   -1    0    0    0  501 -0.00000000000E+00  0.00000000000E+00  0.47780704702E+03  0.47780704702E+03  0.00000000000E+00 0.  1.
          1   -1    0    0  501    0  0.00000000000E+00 -0.00000000000E+00 -0.39283205056E+02  0.39283205056E+02  0.00000000000E+00 0.  1.
         35    2    1    2    0    0  0.71054273576E-14 -0.35527136788E-14  0.43852384197E+03  0.51709025208E+03  0.27400578246E+03 0.  0.
         25    2    3    3    0    0  0.54948517539E+02  0.90612040113E+01  0.21904718617E+03  0.25832657441E+03  0.12509797871E+03 0.  0.
         25    2    3    3    0    0 -0.54948517539E+02 -0.90612040113E+01  0.21947665580E+03  0.25876367767E+03  0.12524852672E+03 0.  0.
          5    1    4    4  502    0  0.13840940630E+02  0.44788907037E+02  0.19131037340E+03  0.19702630993E+03  0.47000000000E+01 0.  1.
         -5    1    4    4    0  502  0.41107576910E+02 -0.35727703026E+02  0.27736812768E+02  0.61300264481E+02  0.47000000000E+01 0.  1.
          5    1    5    5  503    0 -0.36197659176E+01  0.28764766493E+02  0.18262070163E+03  0.18496736242E+03  0.47000000000E+01 0. -1.
         -5    1    5    5    0  503 -0.51328751622E+02 -0.37825970504E+02  0.36855954168E+02  0.73796315255E+02  0.47000000000E+01 0. -1.
<mgrwt>
<rscale>  0 0.27400578E+03</rscale>
<asrwt>0</asrwt>
<pdfrwt beam="1">  1        1 0.60435704E-02 0.27400578E+03</pdfrwt>
<pdfrwt beam="2">  1       -1 0.73508772E-01 0.27400578E+03</pdfrwt>
<totfact> 0.24785478E+03</totfact>
</mgrwt>
</event>
<event>
 9    1  0.7997082E-001  0.2758714E+03  0.7818608E-02  0.1097965E+00
          2   -1    0    0  501    0  0.00000000000E+00  0.00000000000E+00  0.34076461627E+03  0.34076461627E+03  0.00000000000E+00 0.  1.
         -2   -1    0    0    0  501 -0.00000000000E+00 -0.00000000000E+00 -0.55834019133E+02  0.55834019133E+02  0.00000000000E+00 0.  1.
         35    2    1    2    0    0 -0.17763568394E-14  0.00000000000E+00  0.28493059714E+03  0.39659863541E+03  0.27587140559E+03 0.  0.
         25    2    3    3    0    0  0.14673807494E+02  0.55195254764E+02  0.13917399297E+03  0.19611445745E+03  0.12581591047E+03 0.  0.
         25    2    3    3    0    0 -0.14673807494E+02 -0.55195254764E+02  0.14575660417E+03  0.20048417795E+03  0.12524807853E+03 0.  0.
          5    1    4    4  502    0 -0.75268861719E+01 -0.17124025030E+02 -0.14922565482E+02  0.24385635305E+02  0.47000000000E+01 0. -1.
         -5    1    4    4    0  502  0.22200693666E+02  0.72319279794E+02  0.15409655845E+03  0.17172882215E+03  0.47000000000E+01 0. -1.
          5    1    5    5  503    0 -0.38730917248E+02 -0.52130203030E+02  0.14219775120E+02  0.66647835848E+02  0.47000000000E+01 0.  1.
         -5    1    5    5    0  503  0.24057109754E+02 -0.30650517346E+01  0.13153682905E+03  0.13383634210E+03  0.47000000000E+01 0.  1.
<mgrwt>
<rscale>  0 0.27587141E+03</rscale>
<asrwt>0</asrwt>
<pdfrwt beam="1">  1        2 0.52425324E-01 0.27587141E+03</pdfrwt>
<pdfrwt beam="2">  1       -2 0.85898493E-02 0.27587141E+03</pdfrwt>
<totfact> 0.79861856E+03</totfact>
</mgrwt>
</event>
<event>
 9    1  0.7997082E-001  0.2745066E+03  0.7818608E-02  0.1098728E+00
          2   -1    0    0  501    0  0.00000000000E+00  0.00000000000E+00  0.16019899788E+04  0.16019899788E+04  0.00000000000E+00 0.  1.
         -2   -1    0    0    0  501 -0.00000000000E+00 -0.00000000000E+00 -0.11759415440E+02  0.11759415440E+02  0.00000000000E+00 0.  1.
         35    2    1    2    0    0  0.71054273576E-14  0.00000000000E+00  0.15902305634E+04  0.16137493943E+04  0.27450658056E+03 0.  0.
         25    2    3    3    0    0 -0.22585095589E+02  0.92073283460E+01  0.10808931038E+04  0.10883351913E+04  0.12469452759E+03 0.  0.
         25    2    3    3    0    0  0.22585095589E+02 -0.92073283460E+01  0.50933745957E+03  0.52541420301E+03  0.12665139386E+03 0.  0.
          5    1    4    4  502    0  0.35688304394E+02 -0.36921405978E+01  0.81424881153E+03  0.81505245478E+03  0.47000000000E+01 0. -1.
         -5    1    4    4    0  502 -0.58273399983E+02  0.12899468944E+02  0.26664429229E+03  0.27328273647E+03  0.47000000000E+01 0. -1.
          5    1    5    5  503    0  0.54254783481E+02  0.16319172052E+02  0.10850971683E+03  0.12250039002E+03  0.47000000000E+01 0.  1.
         -5    1    5    5    0  503 -0.31669687892E+02 -0.25526500398E+02  0.40082774274E+03  0.40291381300E+03  0.47000000000E+01 0.  1.
<mgrwt>
<rscale>  0 0.27450658E+03</rscale>
<asrwt>0</asrwt>
<pdfrwt beam="1">  1        2 0.24645982E+00 0.27450658E+03</pdfrwt>
<pdfrwt beam="2">  1       -2 0.18091421E-02 0.27450658E+03</pdfrwt>
<totfact> 0.10786538E+04</totfact>
</mgrwt>
</event>
<event>
 9    1  0.7997082E-001  0.2645538E+03  0.7818608E-02  0.1104438E+00
          2   -1    0    0  501    0  0.00000000000E+00  0.00000000000E+00  0.92611902267E+02  0.92611902267E+02  0.00000000000E+00 0.  1.
         -2   -1    0    0    0  501 -0.00000000000E+00 -0.00000000000E+00 -0.18893006109E+03  0.18893006109E+03  0.00000000000E+00 0.  1.
         35    2    1    2    0    0 -0.35527136788E-14  0.35527136788E-14 -0.96318158827E+02  0.28154196336E+03  0.26455375524E+03 0.  0.
         25    2    3    3    0    0  0.13416993357E+02 -0.21008424760E+02 -0.88623242317E+02  0.15610462863E+03  0.12606826079E+03 0.  0.
         25    2    3    3    0    0 -0.13416993357E+02  0.21008424760E+02 -0.76949165094E+01  0.12543733474E+03  0.12269451326E+03 0.  0.
          5    1    4    4  502    0  0.62650752183E+02  0.15132856387E+02 -0.29744886591E+02  0.71140483340E+02  0.47000000000E+01 0.  1.
         -5    1    4    4    0  502 -0.49233758826E+02 -0.36141281147E+02 -0.58878355726E+02  0.84964145285E+02  0.47000000000E+01 0.  1.
          5    1    5    5  503    0  0.29151829489E+02 -0.21616631738E+02  0.35638199366E+02  0.51081103985E+02  0.47000000000E+01 0. -1.
         -5    1    5    5    0  503 -0.42568822845E+02  0.42625056499E+02 -0.43333115876E+02  0.74356230751E+02  0.47000000000E+01 0. -1.
<mgrwt>
<rscale>  0 0.26455376E+03</rscale>
<asrwt>0</asrwt>
<pdfrwt beam="1">  1        2 0.14247985E-01 0.26455376E+03</pdfrwt>
<pdfrwt beam="2">  1       -2 0.29066163E-01 0.26455376E+03</pdfrwt>
<totfact> 0.44558194E+03</totfact>
</mgrwt>
</event>
<event>
 9    1  0.7997082E-001  0.2756580E+03  0.7818608E-02  0.1098084E+00
         -3   -1    0    0    0  501 -0.00000000000E+00  0.00000000000E+00  0.94016066640E+02  0.94016066640E+02  0.00000000000E+00 0. -1.
          3   -1    0    0  501    0  0.00000000000E+00 -0.00000000000E+00 -0.20205945741E+03  0.20205945741E+03  0.00000000000E+00 0. -1.
         35    2    1    2    0    0  0.00000000000E+00 -0.71054273576E-14 -0.10804339077E+03  0.29607552405E+03  0.27565801576E+03 0.  0.
         25    2    3    3    0    0 -0.49765006255E+01 -0.38756685783E+01  0.96897540580E+01  0.12539206348E+03  0.12485788675E+03 0.  0.
         25    2    3    3    0    0  0.49765006255E+01  0.38756685783E+01 -0.11773314483E+03  0.17068346057E+03  0.12341784294E+03 0.  0.
          5    1    4    4  502    0 -0.13732239466E+02  0.41846134608E+02 -0.38163462286E+02  0.58465487563E+02  0.47000000000E+01 0. -1.
         -5    1    4    4    0  502  0.87557388407E+01 -0.45721803186E+02  0.47853216344E+02  0.66926575915E+02  0.47000000000E+01 0. -1.
          5    1    5    5  503    0  0.54043638477E+01  0.62889093583E+02 -0.49540030083E+02  0.80377545502E+02  0.47000000000E+01 0.  1.
         -5    1    5    5    0  503 -0.42786322224E+00 -0.59013425005E+02 -0.68193114744E+02  0.90305915068E+02  0.47000000000E+01 0.  1.
<mgrwt>
<rscale>  0 0.27565802E+03</rscale>
<asrwt>0</asrwt>
<pdfrwt beam="1">  1        3 0.31086070E-01 0.27565802E+03</pdfrwt>
<pdfrwt beam="2">  1       -3 0.14464010E-01 0.27565802E+03</pdfrwt>
<totfact> 0.10099785E+03</totfact>
</mgrwt>
</event>
<event>
 9    1  0.7997082E-001  0.2742354E+03  0.7818608E-02  0.1098880E+00
         -2   -1    0    0    0  501 -0.00000000000E+00  0.00000000000E+00  0.61426357168E+03  0.61426357168E+03  0.00000000000E+00 0.  1.
          2   -1    0    0  501    0  0.00000000000E+00 -0.00000000000E+00 -0.30607814121E+02  0.30607814121E+02  0.00000000000E+00 0.  1.
         35    2    1    2    0    0 -0.35527136788E-14  0.00000000000E+00  0.58365575756E+03  0.64487138580E+03  0.27423541145E+03 0.  0.
         25    2    3    3    0    0 -0.25883786338E+02  0.49253485645E+02  0.30075817319E+03  0.33063248839E+03  0.12556467416E+03 0.  0.
         25    2    3    3    0    0  0.25883786338E+02 -0.49253485645E+02  0.28289758437E+03  0.31423889741E+03  0.12497665846E+03 0.  0.
          5    1    4    4  502    0 -0.37730283358E+02  0.21261099106E+02  0.19551758190E+02  0.47749029999E+02  0.47000000000E+01 0. -1.
         -5    1    4    4    0  502  0.11846497020E+02  0.27992386538E+02  0.28120641500E+03  0.28288345839E+03  0.47000000000E+01 0. -1.
          5    1    5    5  503    0 -0.31111084464E+02 -0.16145065604E+02  0.15177148364E+02  0.38483744001E+02  0.47000000000E+01 0.  1.
         -5    1    5    5    0  503  0.56994870802E+02 -0.33108420040E+02  0.26772043601E+03  0.27575515341E+03  0.47000000000E+01 0.  1.
<mgrwt>
<rscale>  0 0.27423541E+03</rscale>
<asrwt>0</asrwt>
<pdfrwt beam="1">  1        2 0.47088949E-02 0.27423541E+03</pdfrwt>
<pdfrwt beam="2">  1       -2 0.94502079E-01 0.27423541E+03</pdfrwt>
<totfact> 0.16628744E+03</totfact>
</mgrwt>
</event>
<event>
 9    1  0.7997082E-001  0.2754144E+03  0.7818608E-02  0.1098220E+00
          2   -1    0    0  501    0  0.00000000000E+00  0.00000000000E+00  0.11312412248E+04  0.11312412248E+04  0.00000000000E+00 0. -1.
         -2   -1    0    0    0  501 -0.00000000000E+00 -0.00000000000E+00 -0.16763246254E+02  0.16763246254E+02  0.00000000000E+00 0. -1.
         35    2    1    2    0    0  0.00000000000E+00  0.71054273576E-14  0.11144779785E+04  0.11480044710E+04  0.27541441664E+03 0.  0.
         25    2    3    3    0    0  0.31581228778E+02 -0.34665402657E+02  0.69219569527E+03  0.70497426320E+03  0.12511901161E+03 0.  0.
         25    2    3    3    0    0 -0.31581228778E+02  0.34665402657E+02  0.42228228326E+03  0.44303020784E+03  0.12551642981E+03 0.  0.
          5    1    4    4  502    0  0.29385926812E+02 -0.73795699033E+02  0.28592078231E+03  0.29678632322E+03  0.47000000000E+01 0. -1.
         -5    1    4    4    0  502  0.21953019663E+01  0.39130296376E+02  0.40627491296E+03  0.40818793998E+03  0.47000000000E+01 0. -1.
          5    1    5    5  503    0 -0.73582867526E+02  0.14123465098E+02  0.34078096687E+03  0.34895224321E+03  0.47000000000E+01 0. -1.
         -5    1    5    5    0  503  0.42001638748E+02  0.20541937559E+02  0.81501316387E+02  0.94077964630E+02  0.47000000000E+01 0. -1.
<mgrwt>
<rscale>  0 0.27541442E+03</rscale>
<asrwt>0</asrwt>
<pdfrwt beam="1">  1        2 0.17403705E+00 0.27541442E+03</pdfrwt>
<pdfrwt beam="2">  1       -2 0.25789618E-02 0.27541442E+03</pdfrwt>
<totfact> 0.11600880E+04</totfact>
</mgrwt>
</event>
<event>
 9    1  0.7997082E-001  0.2699220E+03  0.7818608E-02  0.1101324E+00
          2   -1    0    0  501    0  0.00000000000E+00  0.00000000000E+00  0.26967638033E+04  0.26967638033E+04  0.00000000000E+00 0.  1.
         -2   -1    0    0    0  501 -0.00000000000E+00 -0.00000000000E+00 -0.67541961201E+01  0.67541961201E+01  0.00000000000E+00 0.  1.
         35    2    1    2    0    0 -0.35527136788E-14  0.00000000000E+00  0.26900096072E+04  0.27035179995E+04  0.26992200071E+03 0.  0.
         25    2    3    3    0    0  0.13376173187E+02  0.19104024646E+01  0.18585496164E+04  0.18625161208E+04  0.12073546266E+03 0.  0.
         25    2    3    3    0    0 -0.13376173187E+02 -0.19104024646E+01  0.83145999084E+03  0.84100187869E+03  0.12560203797E+03 0.  0.
          5    1    4    4  502    0 -0.44236771925E+02 -0.31391762084E+02  0.90411802139E+03  0.90575593916E+03  0.47000000000E+01 0. -1.
         -5    1    4    4    0  502  0.57612945112E+02  0.33302164549E+02  0.95443159499E+03  0.95676018161E+03  0.47000000000E+01 0. -1.
          5    1    5    5  503    0  0.31434907512E+02  0.40758791887E+02  0.56735811267E+03  0.56970760092E+03  0.47000000000E+01 0. -1.
         -5    1    5    5    0  503 -0.44811080699E+02 -0.42669194352E+02  0.26410187817E+03  0.27129427777E+03  0.47000000000E+01 0. -1.
<mgrwt>
<rscale>  0 0.26992200E+03</rscale>
<asrwt>0</asrwt>
<pdfrwt beam="1">  1        2 0.41488588E+00 0.26992200E+03</pdfrwt>
<pdfrwt beam="2">  1       -2 0.10391092E-02 0.26992200E+03</pdfrwt>
<totfact> 0.62883914E+03</totfact>
</mgrwt>
</event>
<event>
 9    1  0.7997082E-001  0.2747419E+03  0.7818608E-02  0.1098596E+00
          2   -1    0    0  501    0  0.00000000000E+00  0.00000000000E+00  0.54845574525E+02  0.54845574525E+02  0.00000000000E+00 0. -1.
         -2   -1    0    0    0  501 -0.00000000000E+00 -0.00000000000E+00 -0.34407101119E+03  0.34407101119E+03  0.00000000000E+00 0. -1.
         35    2    1    2    0    0 -0.71054273576E-14  0.00000000000E+00 -0.28922543667E+03  0.39891658572E+03  0.27474185911E+03 0.  0.
         25    2    3    3    0    0 -0.53986360198E+02  0.14282894818E+02 -0.11714299354E+03  0.18005861065E+03  0.12482024740E+03 0.  0.
         25    2    3    3    0    0  0.53986360198E+02 -0.14282894818E+02 -0.17208244313E+03  0.21885797507E+03  0.12315810102E+03 0.  0.
          5    1    4    4  502    0 -0.43218757587E+02  0.67720575531E+02 -0.82776755609E+02  0.11544703819E+03  0.47000000000E+01 0.  1.
         -5    1    4    4    0  502 -0.10767602610E+02 -0.53437680712E+02 -0.34366237931E+02  0.64611572457E+02  0.47000000000E+01 0.  1.
          5    1    5    5  503    0  0.82481770305E+02  0.24917908252E+02 -0.10359575371E+03  0.13482698087E+03  0.47000000000E+01 0.  1.
         -5    1    5    5    0  503 -0.28495410108E+02 -0.39200803070E+02 -0.68486689422E+02  0.84030994202E+02  0.47000000000E+01 0.  1.
<mgrwt>
<rscale>  0 0.27474186E+03</rscale>
<asrwt>0</asrwt>
<pdfrwt beam="1">  1        2 0.84377806E-02 0.27474186E+03</pdfrwt>
<pdfrwt beam="2">  1       -2 0.52934002E-01 0.27474186E+03</pdfrwt>
<totfact> 0.27097733E+03</totfact>
</mgrwt>
</event>
<event>
 9    1  0.7997082E-001  0.2759987E+03  0.7818608E-02  0.1097895E+00
         -1   -1    0    0    0  501 -0.00000000000E+00  0.00000000000E+00  0.32276037446E+03  0.32276037446E+03  0.00000000000E+00 0. -1.
          1   -1    0    0  501    0  0.00000000000E+00 -0.00000000000E+00 -0.59002985828E+02  0.59002985828E+02  0.00000000000E+00 0. -1.
         35    2    1    2    0    0 -0.10658141036E-13  0.71054273576E-14  0.26375738863E+03  0.38176336029E+03  0.27599873768E+03 0.  0.
         25    2    3    3    0    0 -0.25875512641E+02  0.45921105022E+02  0.93951116370E+02  0.16518749265E+03  0.12522701554E+03 0.  0.
         25    2    3    3    0    0  0.25875512641E+02 -0.45921105022E+02  0.16980627226E+03  0.21657586764E+03  0.12366343964E+03 0.  0.
          5    1    4    4  502    0 -0.38493705185E+02  0.85214778090E+02  0.57116465097E+02  0.10967089098E+03  0.47000000000E+01 0. -1.
         -5    1    4    4    0  502  0.12618192545E+02 -0.39293673067E+02  0.36834651274E+02  0.55516601667E+02  0.47000000000E+01 0. -1.
          5    1    5    5  503    0 -0.19555221130E+02  0.67069469888E+01 -0.10218677425E+02  0.23535105261E+02  0.47000000000E+01 0.  1.
         -5    1    5    5    0  503  0.45430733770E+02 -0.52628052011E+02  0.18002494969E+03  0.19304076238E+03  0.47000000000E+01 0.  1.
<mgrwt>
<rscale>  0 0.27599874E+03</rscale>
<asrwt>0</asrwt>
<pdfrwt beam="1">  1        1 0.90773826E-02 0.27599874E+03</pdfrwt>
<pdfrwt beam="2">  1       -1 0.49655441E-01 0.27599874E+03</pdfrwt>
<totfact> 0.30341854E+03</totfact>
</mgrwt>
</event>
<event>
 9    1  0.7997082E-001  0.2760274E+03  0.7818608E-02  0.1097879E+00
          2   -1    0    0  501    0  0.00000000000E+00  0.00000000000E+00  0.11720770146E+03  0.11720770146E+03  0.00000000000E+00 0. -1.
         -2   -1    0    0    0  501 -0.00000000000E+00 -0.00000000000E+00 -0.16251302739E+03  0.16251302739E+03  0.00000000000E+00 0. -1.
         35    2    1    2    0    0 -0.71054273576E-14  0.14210854715E-13 -0.45305325928E+02  0.27972072885E+03  0.27602737834E+03 0.  0.
         25    2    3    3    0    0  0.41691751920E+02 -0.40540079747E+02 -0.31792223854E+02  0.14143912660E+03  0.12495031329E+03 0.  0.
         25    2    3    3    0    0 -0.41691751920E+02  0.40540079747E+02 -0.13513102075E+02  0.13828160225E+03  0.12472969714E+03 0.  0.
          5    1    4    4  502    0  0.27539954639E+02  0.36349864132E+02 -0.42344123903E+02  0.62408946097E+02  0.47000000000E+01 0.  1.
         -5    1    4    4    0  502  0.14151797282E+02 -0.76889943879E+02  0.10551900049E+02  0.79030180505E+02  0.47000000000E+01 0.  1.
          5    1    5    5  503    0  0.79675490183E+01  0.18492690159E+02 -0.61969315537E+02  0.65327999317E+02  0.47000000000E+01 0.  1.
         -5    1    5    5    0  503 -0.49659300939E+02  0.22047389588E+02  0.48456213463E+02  0.72953602930E+02  0.47000000000E+01 0.  1.
<mgrwt>
<rscale>  0 0.27602738E+03</rscale>
<asrwt>0</asrwt>
<pdfrwt beam="1">  1        2 0.18031954E-01 0.27602738E+03</pdfrwt>
<pdfrwt beam="2">  1       -2 0.25002004E-01 0.27602738E+03</pdfrwt>
<totfact> 0.44262575E+03</totfact>
</mgrwt>
</event>
<event>
 9    1  0.7997082E-001  0.2757638E+03  0.7818608E-02  0.1098025E+00
         -1   -1    0    0    0  501 -0.00000000000E+00  0.00000000000E+00  0.20552442318E+02  0.20552442318E+02  0.00000000000E+00 0.  1.
          1   -1    0    0  501    0  0.00000000000E+00 -0.00000000000E+00 -0.92501976183E+03  0.92501976183E+03  0.00000000000E+00 0.  1.
         35    2    1    2    0    0  0.00000000000E+00  0.00000000000E+00 -0.90446731951E+03  0.94557220415E+03  0.27576377788E+03 0.  0.
         25    2    3    3    0    0 -0.64514326319E+01 -0.55037607777E+02 -0.39143509566E+03  0.41477990729E+03  0.12549971362E+03 0.  0.
         25    2    3    3    0    0  0.64514326319E+01  0.55037607777E+02 -0.51303222385E+03  0.53079229686E+03  0.12436896898E+03 0.  0.
          5    1    4    4  502    0  0.11705400099E+02  0.27960268678E+02 -0.23236807293E+03  0.23438388240E+03  0.47000000000E+01 0. -1.
         -5    1    4    4    0  502 -0.18156832731E+02 -0.82997876455E+02 -0.15906702274E+03  0.18039602488E+03  0.47000000000E+01 0. -1.
          5    1    5    5  503    0 -0.25603925908E+02  0.11920132563E+02 -0.43496832800E+03  0.43590960869E+03  0.47000000000E+01 0.  1.
         -5    1    5    5    0  503  0.32055358540E+02  0.43117475214E+02 -0.78063895847E+02  0.94882688172E+02  0.47000000000E+01 0.  1.
<mgrwt>
<rscale>  0 0.27576378E+03</rscale>
<asrwt>0</asrwt>
<pdfrwt beam="1">  1        1 0.14231077E+00 0.27576378E+03</pdfrwt>
<pdfrwt beam="2">  1       -1 0.31619134E-02 0.27576378E+03</pdfrwt>
<totfact> 0.63626590E+03</totfact>
</mgrwt>
</event>
<event>
 9    1  0.7997082E-001  0.2766450E+03  0.7818608E-02  0.1097536E+00
          1   -1    0    0  501    0  0.00000000000E+00  0.00000000000E+00  0.36170484045E+03  0.36170484045E+03  0.00000000000E+00 0. -1.
         -1   -1    0    0    0  501 -0.00000000000E+00 -0.00000000000E+00 -0.52897047126E+02  0.52897047126E+02  0.00000000000E+00 0. -1.
         35    2    1    2    0    0  0.00000000000E+00 -0.14210854715E-13  0.30880779333E+03  0.41460188758E+03  0.27664502881E+03 0.  0.
         25    2    3    3    0    0 -0.12100526089E+02  0.58621107522E+02  0.14939717255E+03  0.20360187698E+03  0.12470506071E+03 0.  0.
         25    2    3    3    0    0  0.12100526089E+02 -0.58621107522E+02  0.15941062078E+03  0.21100001060E+03  0.12460498175E+03 0.  0.
          5    1    4    4  502    0  0.19396367329E+02 -0.34219369255E+02  0.34910395548E+02  0.52801609967E+02  0.47000000000E+01 0.  1.
         -5    1    4    4    0  502 -0.31496893419E+02  0.92840476778E+02  0.11448677700E+03  0.15080026702E+03  0.47000000000E+01 0.  1.
          5    1    5    5  503    0  0.79822775432E+01  0.16341590555E+02  0.12818450477E+03  0.12955354723E+03  0.47000000000E+01 0. -1.
         -5    1    5    5    0  503  0.41182485461E+01 -0.74962698077E+02  0.31226116005E+02  0.81446463366E+02  0.47000000000E+01 0. -1.
<mgrwt>
<rscale>  0 0.27664503E+03</rscale>
<asrwt>0</asrwt>
<pdfrwt beam="1">  1        1 0.55646897E-01 0.27664503E+03</pdfrwt>
<pdfrwt beam="2">  1       -1 0.81380075E-02 0.27664503E+03</pdfrwt>
<totfact> 0.57523627E+03</totfact>
</mgrwt>
</event>
<event>
 9    1  0.7997082E-001  0.2747071E+03  0.7818608E-02  0.1098615E+00
         -3   -1    0    0    0  501 -0.00000000000E+00  0.00000000000E+00  0.51415523512E+02  0.51415523512E+02  0.00000000000E+00 0. -1.
          3   -1    0    0  501    0  0.00000000000E+00 -0.00000000000E+00 -0.36693198993E+03  0.36693198993E+03  0.00000000000E+00 0. -1.
         35    2    1    2    0    0  0.35527136788E-14 -0.71054273576E-14 -0.31551646641E+03  0.41834751344E+03  0.27470711935E+03 0.  0.
         25    2    3    3    0    0 -0.21973619586E+02  0.50116835770E+02 -0.12615107616E+03  0.18602642298E+03  0.12528846254E+03 0.  0.
         25    2    3    3    0    0  0.21973619586E+02 -0.50116835770E+02 -0.18936539025E+03  0.23232109045E+03  0.12296056628E+03 0.  0.
          5    1    4    4  502    0 -0.24066245534E+02  0.15636207856E+02 -0.14396739945E+03  0.14687538008E+03  0.47000000000E+01 0.  1.
         -5    1    4    4    0  502  0.20926259476E+01  0.34480627913E+02  0.17816323289E+02  0.39151042900E+02  0.47000000000E+01 0.  1.
          5    1    5    5  503    0  0.39390768624E+02 -0.83874447959E+02 -0.15618568739E+03  0.18166621760E+03  0.47000000000E+01 0.  1.
         -5    1    5    5    0  503 -0.17417149038E+02  0.33757612190E+02 -0.33179702866E+02  0.50654872852E+02  0.47000000000E+01 0.  1.
<mgrwt>
<rscale>  0 0.27470712E+03</rscale>
<asrwt>0</asrwt>
<pdfrwt beam="1">  1        3 0.56451075E-01 0.27470712E+03</pdfrwt>
<pdfrwt beam="2">  1       -3 0.79100807E-02 0.27470712E+03</pdfrwt>
<totfact> 0.86278219E+02</totfact>
</mgrwt>
</event>
<event>
 9    1  0.7997082E-001  0.2760332E+03  0.7818608E-02  0.1097875E+00
         -2   -1    0    0    0  501 -0.00000000000E+00  0.00000000000E+00  0.27734278674E+02  0.27734278674E+02  0.00000000000E+00 0.  1.
          2   -1    0    0  501    0  0.00000000000E+00 -0.00000000000E+00 -0.68682468675E+03  0.68682468675E+03  0.00000000000E+00 0.  1.
         35    2    1    2    0    0 -0.14210854715E-13 -0.35527136788E-14 -0.65909040807E+03  0.71455896542E+03  0.27603323903E+03 0.  0.
         25    2    3    3    0    0  0.43644804670E+02  0.50142038932E+01 -0.42627828733E+03  0.44658489265E+03  0.12567767056E+03 0.  0.
         25    2    3    3    0    0 -0.43644804670E+02 -0.50142038932E+01 -0.23281212074E+03  0.26797407277E+03  0.12521425198E+03 0.  0.
          5    1    4    4  502    0  0.67714608813E+02 -0.29230433327E+02 -0.15113929673E+03  0.16824049303E+03  0.47000000000E+01 0.  1.
         -5    1    4    4    0  502 -0.24069804143E+02  0.34244637220E+02 -0.27513899060E+03  0.27834439961E+03  0.47000000000E+01 0.  1.
          5    1    5    5  503    0 -0.67641975279E+02 -0.37567162311E+02 -0.86721206251E+02  0.11631588936E+03  0.47000000000E+01 0. -1.
         -5    1    5    5    0  503  0.23997170609E+02  0.32552958418E+02 -0.14609091449E+03  0.15165818341E+03  0.47000000000E+01 0. -1.
<mgrwt>
<rscale>  0 0.27603324E+03</rscale>
<asrwt>0</asrwt>
<pdfrwt beam="1">  1        2 0.10566535E+00 0.27603324E+03</pdfrwt>
<pdfrwt beam="2">  1       -2 0.42668116E-02 0.27603324E+03</pdfrwt>
<totfact> 0.10657627E+04</totfact>
</mgrwt>
</event>
<event>
 9    1  0.7997082E-001  0.2739098E+03  0.7818608E-02  0.1099063E+00
         -1   -1    0    0    0  501 -0.00000000000E+00  0.00000000000E+00  0.18534066228E+02  0.18534066228E+02  0.00000000000E+00 0.  1.
          1   -1    0    0  501    0  0.00000000000E+00 -0.00000000000E+00 -0.10120088069E+04  0.10120088069E+04  0.00000000000E+00 0.  1.
         35    2    1    2    0    0 -0.71054273576E-14  0.35527136788E-14 -0.99347474071E+03  0.10305428732E+04  0.27390975340E+03 0.  0.
         25    2    3    3    0    0 -0.56596496861E+02  0.10107249591E+02 -0.46818648498E+03  0.48731998951E+03  0.12238001270E+03 0.  0.
         25    2    3    3    0    0  0.56596496861E+02 -0.10107249591E+02 -0.52528825573E+03  0.54322288366E+03  0.12592866937E+03 0.  0.
          5    1    4    4  502    0 -0.51981031866E+02 -0.33153350646E+01 -0.46941351836E+03  0.47231785943E+03  0.47000000000E+01 0. -1.
         -5    1    4    4    0  502 -0.46154649958E+01  0.13422584656E+02  0.12270333795E+01  0.15002130078E+02  0.47000000000E+01 0. -1.
          5    1    5    5  503    0  0.82623172396E+02 -0.41336104609E+02 -0.42412000779E+03  0.43409115767E+03  0.47000000000E+01 0. -1.
         -5    1    5    5    0  503 -0.26026675535E+02  0.31228855018E+02 -0.10116824795E+03  0.10913172599E+03  0.47000000000E+01 0. -1.
<mgrwt>
<rscale>  0 0.27390975E+03</rscale>
<asrwt>0</asrwt>
<pdfrwt beam="1">  1        1 0.15569365E+00 0.27390975E+03</pdfrwt>
<pdfrwt beam="2">  1       -1 0.28513950E-02 0.27390975E+03</pdfrwt>
<totfact> 0.63643792E+03</totfact>
</mgrwt>
</event>
<event>
 9    1  0.7997082E-001  0.2784954E+03  0.7818608E-02  0.1096514E+00
         -2   -1    0    0    0  501 -0.00000000000E+00  0.00000000000E+00  0.37689876528E+02  0.37689876528E+02  0.00000000000E+00 0.  1.
          2   -1    0    0  501    0  0.00000000000E+00 -0.00000000000E+00 -0.51445959485E+03  0.51445959485E+03  0.00000000000E+00 0.  1.
         35    2    1    2    0    0 -0.71054273576E-14  0.35527136788E-14 -0.47676971833E+03  0.55214947138E+03  0.27849537597E+03 0.  0.
         25    2    3    3    0    0  0.37742334242E+02 -0.19483806648E+02 -0.14459815984E+03  0.19493342300E+03  0.12363781403E+03 0.  0.
         25    2    3    3    0    0 -0.37742334242E+02  0.19483806648E+02 -0.33217155849E+03  0.35721604838E+03  0.12434330878E+03 0.  0.
          5    1    4    4  502    0  0.56950466064E+02 -0.41457563861E+02 -0.14915813388E+03  0.16502219271E+03  0.47000000000E+01 0. -1.
         -5    1    4    4    0  502 -0.19208131823E+02  0.21973757212E+02  0.45599740380E+01  0.29911230288E+02  0.47000000000E+01 0. -1.
          5    1    5    5  503    0 -0.19695287181E+02  0.69770164162E+02 -0.23801862918E+03  0.24885887161E+03  0.47000000000E+01 0.  1.
         -5    1    5    5    0  503 -0.18047047061E+02 -0.50286357514E+02 -0.94152929306E+02  0.10835717677E+03  0.47000000000E+01 0.  1.
<mgrwt>
<rscale>  0 0.27849538E+03</rscale>
<asrwt>0</asrwt>
<pdfrwt beam="1">  1        2 0.79147636E-01 0.27849538E+03</pdfrwt>
<pdfrwt beam="2">  1       -2 0.57984421E-02 0.27849538E+03</pdfrwt>
<totfact> 0.93562780E+03</totfact>
</mgrwt>
</event>
<event>
 9    1  0.7997082E-001  0.2736680E+03  0.7818608E-02  0.1099199E+00
          4   -1    0    0  501    0  0.00000000000E+00  0.00000000000E+00  0.18030228883E+03  0.18030228883E+03  0.00000000000E+00 0.  1.
         -4   -1    0    0    0  501 -0.00000000000E+00 -0.00000000000E+00 -0.10384525465E+03  0.10384525465E+03  0.00000000000E+00 0.  1.
         35    2    1    2    0    0  0.00000000000E+00 -0.14210854715E-13  0.76457034178E+02  0.28414754348E+03  0.27366795280E+03 0.  0.
         25    2    3    3    0    0 -0.26810355190E+02  0.42071371663E+02  0.58956922793E+02  0.14907067846E+03  0.12750432531E+03 0.  0.
         25    2    3    3    0    0  0.26810355190E+02 -0.42071371663E+02  0.17500111385E+02  0.13507686502E+03  0.12430088538E+03 0.  0.
          5    1    4    4  502    0  0.41554237595E+02  0.37256572791E+02  0.57630816540E+02  0.80362975887E+02  0.47000000000E+01 0. -1.
         -5    1    4    4    0  502 -0.68364592786E+02  0.48147988730E+01  0.13261062522E+01  0.68707702572E+02  0.47000000000E+01 0. -1.
          5    1    5    5  503    0  0.69355086711E+02 -0.67027358195E+00  0.27376047249E+02  0.74713554877E+02  0.47000000000E+01 0.  1.
         -5    1    5    5    0  503 -0.42544731520E+02 -0.41401098082E+02 -0.98759358640E+01  0.60363310145E+02  0.47000000000E+01 0.  1.
<mgrwt>
<rscale>  0 0.27366795E+03</rscale>
<asrwt>0</asrwt>
<pdfrwt beam="1">  1        4 0.27738814E-01 0.27366795E+03</pdfrwt>
<pdfrwt beam="2">  1       -4 0.15976193E-01 0.27366795E+03</pdfrwt>
<totfact> 0.77956997E+02</totfact>
</mgrwt>
</event>
<event>
 9    1  0.7997082E-001  0.2693411E+03  0.7818608E-02  0.1101657E+00
          2   -1    0    0  501    0  0.00000000000E+00  0.00000000000E+00  0.31672399175E+03  0.31672399175E+03  0.00000000000E+00 0.  1.
         -2   -1    0    0    0  501 -0.00000000000E+00 -0.00000000000E+00 -0.57261724291E+02  0.57261724291E+02  0.00000000000E+00 0.  1.
         35    2    1    2    0    0  0.00000000000E+00 -0.71054273576E-14  0.25946226746E+03  0.37398571604E+03  0.26934113605E+03 0.  0.
         25    2    3    3    0    0 -0.40193637369E+02 -0.14655218493E+02  0.99479560551E+02  0.16635016882E+03  0.12627704377E+03 0.  0.
         25    2    3    3    0    0  0.40193637369E+02  0.14655218493E+02  0.15998270691E+03  0.20763554722E+03  0.12525074869E+03 0.  0.
          5    1    4    4  502    0 -0.30667052878E+02  0.55687657789E+01  0.12684509602E+03  0.13070289847E+03  0.47000000000E+01 0. -1.
         -5    1    4    4    0  502 -0.95265844912E+01 -0.20223984272E+02 -0.27365535466E+02  0.35647270348E+02  0.47000000000E+01 0. -1.
          5    1    5    5  503    0  0.13635973334E+02 -0.55135741184E+02  0.59944502525E+02  0.82712291152E+02  0.47000000000E+01 0. -1.
         -5    1    5    5    0  503  0.26557664036E+02  0.69790959677E+02  0.10003820438E+03  0.12492325607E+03  0.47000000000E+01 0. -1.
<mgrwt>
<rscale>  0 0.26934114E+03</rscale>
<asrwt>0</asrwt>
<pdfrwt beam="1">  1        2 0.48726767E-01 0.26934114E+03</pdfrwt>
<pdfrwt beam="2">  1       -2 0.88094962E-02 0.26934114E+03</pdfrwt>
<totfact> 0.82968159E+03</totfact>
</mgrwt>
</event>
<event>
 9    1  0.7997082E-001  0.2643566E+03  0.7818608E-02  0.1104554E+00
          1   -1    0    0  501    0  0.00000000000E+00  0.00000000000E+00  0.10113527806E+03  0.10113527806E+03  0.00000000000E+00 0.  1.
         -1   -1    0    0    0  501 -0.00000000000E+00 -0.00000000000E+00 -0.17274982398E+03  0.17274982398E+03  0.00000000000E+00 0.  1.
         35    2    1    2    0    0  0.71054273576E-14  0.00000000000E+00 -0.71614545920E+02  0.27388510204E+03  0.26435658859E+03 0.  0.
         25    2    3    3    0    0 -0.11929432041E+02  0.36425391233E+02 -0.59030792577E+02  0.14344371745E+03  0.12498938006E+03 0.  0.
         25    2    3    3    0    0  0.11929432041E+02 -0.36425391233E+02 -0.12583753343E+02  0.13044138459E+03  0.12404629575E+03 0.  0.
          5    1    4    4  502    0  0.37166633215E+02  0.29380244455E+02  0.18672539182E+02  0.51140112518E+02  0.47000000000E+01 0. -1.
         -5    1    4    4    0  502 -0.49096065256E+02  0.70451467777E+01 -0.77703331760E+02  0.92303604931E+02  0.47000000000E+01 0. -1.
          5    1    5    5  503    0 -0.34070127545E+02 -0.60687985664E+02  0.15051747080E+02  0.71361406132E+02  0.47000000000E+01 0.  1.
         -5    1    5    5    0  503  0.45999559586E+02  0.24262594431E+02 -0.27635500423E+02  0.59079978455E+02  0.47000000000E+01 0.  1.
<mgrwt>
<rscale>  0 0.26435659E+03</rscale>
<asrwt>0</asrwt>
<pdfrwt beam="1">  1        1 0.15559274E-01 0.26435659E+03</pdfrwt>
<pdfrwt beam="2">  1       -1 0.26576896E-01 0.26435659E+03</pdfrwt>
<totfact> 0.44230633E+03</totfact>
</mgrwt>
</event>
<event>
 9    1  0.7997082E-001  0.2879184E+03  0.7818608E-02  0.1091441E+00
          1   -1    0    0  501    0  0.00000000000E+00  0.00000000000E+00  0.10584715274E+03  0.10584715274E+03  0.00000000000E+00 0. -1.
         -1   -1    0    0    0  501 -0.00000000000E+00 -0.00000000000E+00 -0.19579412853E+03  0.19579412853E+03  0.00000000000E+00 0. -1.
         35    2    1    2    0    0  0.00000000000E+00  0.00000000000E+00 -0.89946975783E+02  0.30164128127E+03  0.28791839836E+03 0.  0.
         25    2    3    3    0    0 -0.66549236604E+02 -0.19895515071E+02 -0.51422510087E+02  0.15324561075E+03  0.12655161104E+03 0.  0.
         25    2    3    3    0    0  0.66549236604E+02  0.19895515071E+02 -0.38524465697E+02  0.14839567052E+03  0.12534954391E+03 0.  0.
          5    1    4    4  502    0 -0.62940314826E+02  0.34609358961E+02 -0.64754214267E+02  0.96821945980E+02  0.47000000000E+01 0.  1.
         -5    1    4    4    0  502 -0.36089217776E+01 -0.54504874032E+02  0.13331704180E+02  0.56423664769E+02  0.47000000000E+01 0.  1.
          5    1    5    5  503    0  0.75732850739E+02  0.63208779813E+02 -0.27862190862E+02  0.10261192039E+03  0.47000000000E+01 0.  1.
         -5    1    5    5    0  503 -0.91836141353E+01 -0.43313264741E+02 -0.10662274835E+02  0.45783750128E+02  0.47000000000E+01 0.  1.
<mgrwt>
<rscale>  0 0.28791840E+03</rscale>
<asrwt>0</asrwt>
<pdfrwt beam="1">  1        1 0.16284177E-01 0.28791840E+03</pdfrwt>
<pdfrwt beam="2">  1       -1 0.30122173E-01 0.28791840E+03</pdfrwt>
<totfact> 0.33813533E+03</totfact>
</mgrwt>
</event>
<event>
 9    1  0.7997082E-001  0.2737207E+03  0.7818608E-02  0.1099169E+00
         -2   -1    0    0    0  501 -0.00000000000E+00  0.00000000000E+00  0.10766317367E+03  0.10766317367E+03  0.00000000000E+00 0.  1.
          2   -1    0    0  501    0  0.00000000000E+00 -0.00000000000E+00 -0.17397553720E+03  0.17397553720E+03  0.00000000000E+00 0.  1.
         35    2    1    2    0    0 -0.35527136788E-14  0.71054273576E-14 -0.66312363531E+02  0.28163871087E+03  0.27372072246E+03 0.  0.
         25    2    3    3    0    0 -0.22784254679E+02  0.66194297885E+01 -0.87751829850E+02  0.15477984628E+03  0.12527361278E+03 0.  0.
         25    2    3    3    0    0  0.22784254679E+02 -0.66194297885E+01  0.21439466319E+02  0.12685886459E+03  0.12276229754E+03 0.  0.
          5    1    4    4  502    0  0.15133856682E+02 -0.53758675832E+02 -0.39098433127E+02  0.68335981139E+02  0.47000000000E+01 0.  1.
         -5    1    4    4    0  502 -0.37918111361E+02  0.60378105620E+02 -0.48653396723E+02  0.86443865139E+02  0.47000000000E+01 0.  1.
          5    1    5    5  503    0  0.16895843253E+02  0.38258554488E+02  0.55760917831E+02  0.69860979581E+02  0.47000000000E+01 0. -1.
         -5    1    5    5    0  503  0.58884114260E+01 -0.44877984276E+02 -0.34321451512E+02  0.56997885011E+02  0.47000000000E+01 0. -1.
<mgrwt>
<rscale>  0 0.27372072E+03</rscale>
<asrwt>0</asrwt>
<pdfrwt beam="1">  1        2 0.26765467E-01 0.27372072E+03</pdfrwt>
<pdfrwt beam="2">  1       -2 0.16563565E-01 0.27372072E+03</pdfrwt>
<totfact> 0.57307434E+03</totfact>
</mgrwt>
</event>
<event>
 9    1  0.7997082E-001  0.2778333E+03  0.7818608E-02  0.1096878E+00
         -3   -1    0    0    0  501 -0.00000000000E+00  0.00000000000E+00  0.10952686419E+02  0.10952686419E+02  0.00000000000E+00 0. -1.
          3   -1    0    0  501    0  0.00000000000E+00 -0.00000000000E+00 -0.17619266549E+04  0.17619266549E+04  0.00000000000E+00 0. -1.
         35    2    1    2    0    0  0.00000000000E+00  0.00000000000E+00 -0.17509739685E+04  0.17728793413E+04  0.27783326039E+03 0.  0.
         25    2    3    3    0    0  0.46179451073E+02 -0.28265794363E+02 -0.10546487380E+04  0.10633198086E+04  0.12423187174E+03 0.  0.
         25    2    3    3    0    0 -0.46179451073E+02  0.28265794363E+02 -0.69632523054E+03  0.70955953278E+03  0.12519747219E+03 0.  0.
          5    1    4    4  502    0  0.28459520256E+02 -0.37308672006E+01 -0.47445158721E+02  0.55650667106E+02  0.47000000000E+01 0. -1.
         -5    1    4    4    0  502  0.17719930816E+02 -0.24534927162E+02 -0.10072035792E+04  0.10076691414E+04  0.47000000000E+01 0. -1.
          5    1    5    5  503    0 -0.52232771571E+02  0.60602501524E+02 -0.63291206639E+03  0.63796606446E+03  0.47000000000E+01 0. -1.
         -5    1    5    5    0  503  0.60533204984E+01 -0.32336707162E+02 -0.63413164145E+02  0.71593468319E+02  0.47000000000E+01 0. -1.
<mgrwt>
<rscale>  0 0.27783326E+03</rscale>
<asrwt>0</asrwt>
<pdfrwt beam="1">  1        3 0.27106551E+00 0.27783326E+03</pdfrwt>
<pdfrwt beam="2">  1       -3 0.16850295E-02 0.27783326E+03</pdfrwt>
<totfact> 0.19941224E+02</totfact>
</mgrwt>
</event>
<event>
 9    1  0.7997082E-001  0.2742254E+03  0.7818608E-02  0.1098885E+00
          1   -1    0    0  501    0  0.00000000000E+00  0.00000000000E+00  0.32049690523E+02  0.32049690523E+02  0.00000000000E+00 0. -1.
         -1   -1    0    0    0  501 -0.00000000000E+00 -0.00000000000E+00 -0.58658584338E+03  0.58658584338E+03  0.00000000000E+00 0. -1.
         35    2    1    2    0    0  0.00000000000E+00  0.35527136788E-14 -0.55453615285E+03  0.61863553390E+03  0.27422541637E+03 0.  0.
         25    2    3    3    0    0 -0.48557443132E+02 -0.11670338409E+02 -0.22075680185E+03  0.25839425181E+03  0.12465954324E+03 0.  0.
         25    2    3    3    0    0  0.48557443132E+02  0.11670338409E+02 -0.33377935100E+03  0.36024128209E+03  0.12598057028E+03 0.  0.
          5    1    4    4  502    0 -0.13616577666E+02  0.56051863797E+02 -0.99272902340E+02  0.11491049457E+03  0.47000000000E+01 0.  1.
         -5    1    4    4    0  502 -0.34940865465E+02 -0.67722202205E+02 -0.12148389951E+03  0.14348375724E+03  0.47000000000E+01 0.  1.
          5    1    5    5  503    0 -0.79181239699E+01  0.37452541674E+01  0.85809266762E+01  0.13131866532E+02  0.47000000000E+01 0.  1.
         -5    1    5    5    0  503  0.56475567102E+02  0.79250842412E+01 -0.34236027768E+03  0.34710941556E+03  0.47000000000E+01 0.  1.
<mgrwt>
<rscale>  0 0.27422542E+03</rscale>
<asrwt>0</asrwt>
<pdfrwt beam="1">  1        1 0.49307216E-02 0.27422542E+03</pdfrwt>
<pdfrwt beam="2">  1       -1 0.90243977E-01 0.27422542E+03</pdfrwt>
<totfact> 0.21406072E+03</totfact>
</mgrwt>
</event>
<event>
 9    1  0.7997082E-001  0.2697711E+03  0.7818608E-02  0.1101411E+00
         -3   -1    0    0    0  501 -0.00000000000E+00  0.00000000000E+00  0.34082430582E+03  0.34082430582E+03  0.00000000000E+00 0. -1.
          3   -1    0    0  501    0  0.00000000000E+00 -0.00000000000E+00 -0.53382678632E+02  0.53382678632E+02  0.00000000000E+00 0. -1.
         35    2    1    2    0    0  0.71054273576E-14  0.71054273576E-14  0.28744162719E+03  0.39420698445E+03  0.26977112068E+03 0.  0.
         25    2    3    3    0    0  0.98387321521E+01  0.31508077878E+02  0.19683449338E+03  0.23544040205E+03  0.12489517809E+03 0.  0.
         25    2    3    3    0    0 -0.98387321521E+01 -0.31508077878E+02  0.90607133812E+02  0.15876658241E+03  0.12612539542E+03 0.  0.
          5    1    4    4  502    0  0.46256758347E+02 -0.28460005884E+02  0.11685484199E+03  0.12894496394E+03  0.47000000000E+01 0. -1.
         -5    1    4    4    0  502 -0.36418026195E+02  0.59968083763E+02  0.79979651386E+02  0.10649543811E+03  0.47000000000E+01 0. -1.
          5    1    5    5  503    0  0.33472072175E+02 -0.10773632294E+02 -0.18105121539E+02  0.39828836218E+02  0.47000000000E+01 0. -1.
         -5    1    5    5    0  503 -0.43310804327E+02 -0.20734445584E+02  0.10871225535E+03  0.11893774619E+03  0.47000000000E+01 0. -1.
<mgrwt>
<rscale>  0 0.26977112E+03</rscale>
<asrwt>0</asrwt>
<pdfrwt beam="1">  1        3 0.82127200E-02 0.26977112E+03</pdfrwt>
<pdfrwt beam="2">  1       -3 0.52434507E-01 0.26977112E+03</pdfrwt>
<totfact> 0.94087134E+02</totfact>
</mgrwt>
</event>
<event>
 9    1  0.7997082E-001  0.2742954E+03  0.7818608E-02  0.1098846E+00
          1   -1    0    0  501    0  0.00000000000E+00  0.00000000000E+00  0.25949089021E+03  0.25949089021E+03  0.00000000000E+00 0. -1.
         -1   -1    0    0    0  501 -0.00000000000E+00 -0.00000000000E+00 -0.72486136957E+02  0.72486136957E+02  0.00000000000E+00 0. -1.
         35    2    1    2    0    0  0.00000000000E+00  0.00000000000E+00  0.18700475325E+03  0.33197702717E+03  0.27429540431E+03 0.  0.
         25    2    3    3    0    0  0.54557733415E+02 -0.13222068300E+02  0.87452786534E+02  0.16258685373E+03  0.12504049652E+03 0.  0.
         25    2    3    3    0    0 -0.54557733415E+02  0.13222068300E+02  0.99551966719E+02  0.16939017343E+03  0.12502426729E+03 0.  0.
          5    1    4    4  502    0  0.14952847775E+02  0.17340587238E+02 -0.28118472319E+02  0.36565312906E+02  0.47000000000E+01 0.  1.
         -5    1    4    4    0  502  0.39604885640E+02 -0.30562655538E+02  0.11557125885E+03  0.12602154083E+03  0.47000000000E+01 0.  1.
          5    1    5    5  503    0 -0.87861729374E+02 -0.69338781152E+01  0.95391194179E+02  0.12995896307E+03  0.47000000000E+01 0. -1.
         -5    1    5    5    0  503  0.33303995959E+02  0.20155946415E+02  0.41607725403E+01  0.39431210365E+02  0.47000000000E+01 0. -1.
<mgrwt>
<rscale>  0 0.27429540E+03</rscale>
<asrwt>0</asrwt>
<pdfrwt beam="1">  1        1 0.39921675E-01 0.27429540E+03</pdfrwt>
<pdfrwt beam="2">  1       -1 0.11151714E-01 0.27429540E+03</pdfrwt>
<totfact> 0.53771596E+03</totfact>
</mgrwt>
</event>
<event>
 9    1  0.7997082E-001  0.2755926E+03  0.7818608E-02  0.1098121E+00
          1   -1    0    0  501    0  0.00000000000E+00  0.00000000000E+00  0.77420720904E+02  0.77420720904E+02  0.00000000000E+00 0. -1.
         -1   -1    0    0    0  501 -0.00000000000E+00 -0.00000000000E+00 -0.24525499795E+03  0.24525499795E+03  0.00000000000E+00 0. -1.
         35    2    1    2    0    0  0.00000000000E+00  0.12212453271E-14 -0.16783427704E+03  0.32267571885E+03  0.27559258877E+03 0.  0.
         25    2    3    3    0    0 -0.30064891232E+02  0.60959849021E-01 -0.25561812912E+02  0.13110824937E+03  0.12502825830E+03 0.  0.
         25    2    3    3    0    0  0.30064891232E+02 -0.60959849021E-01 -0.14227246413E+03  0.19156746948E+03  0.12471062470E+03 0.  0.
          5    1    4    4  502    0  0.19057592248E+02 -0.40431090190E+02 -0.45775243362E+02  0.64150820580E+02  0.47000000000E+01 0.  1.
         -5    1    4    4    0  502 -0.49122483480E+02  0.40492050039E+02  0.20213430450E+02  0.66957428790E+02  0.47000000000E+01 0.  1.
          5    1    5    5  503    0  0.52690993208E+02 -0.99171288300E+00 -0.15596166233E+03  0.16469199852E+03  0.47000000000E+01 0. -1.
         -5    1    5    5    0  503 -0.22626101976E+02  0.93075303398E+00  0.13689198201E+02  0.26875470958E+02  0.47000000000E+01 0. -1.
<mgrwt>
<rscale>  0 0.27559259E+03</rscale>
<asrwt>0</asrwt>
<pdfrwt beam="1">  1        1 0.11910880E-01 0.27559259E+03</pdfrwt>
<pdfrwt beam="2">  1       -1 0.37731538E-01 0.27559259E+03</pdfrwt>
<totfact> 0.34557360E+03</totfact>
</mgrwt>
</event>
<event>
 9    1  0.7997082E-001  0.2749941E+03  0.7818608E-02  0.1098455E+00
          2   -1    0    0  501    0  0.00000000000E+00  0.00000000000E+00  0.57564248586E+02  0.57564248586E+02  0.00000000000E+00 0. -1.
         -2   -1    0    0    0  501 -0.00000000000E+00 -0.00000000000E+00 -0.32842318301E+03  0.32842318301E+03  0.00000000000E+00 0. -1.
         35    2    1    2    0    0  0.00000000000E+00  0.35527136788E-14 -0.27085893442E+03  0.38598743160E+03  0.27499406356E+03 0.  0.
         25    2    3    3    0    0 -0.32652393213E+00 -0.14789565537E+02 -0.56436919099E+02  0.13810198764E+03  0.12517266190E+03 0.  0.
         25    2    3    3    0    0  0.32652393213E+00  0.14789565537E+02 -0.21442201532E+03  0.24788544395E+03  0.12349718540E+03 0.  0.
          5    1    4    4  502    0  0.61331436998E+02 -0.17964815170E+02 -0.26867853902E+02  0.69485619531E+02  0.47000000000E+01 0. -1.
         -5    1    4    4    0  502 -0.61657960930E+02  0.31752496329E+01 -0.29569065197E+02  0.68616368112E+02  0.47000000000E+01 0. -1.
          5    1    5    5  503    0  0.52426719029E+02 -0.96308935784E+01 -0.48546626976E+02  0.72250812937E+02  0.47000000000E+01 0.  1.
         -5    1    5    5    0  503 -0.52100195097E+02  0.24420459115E+02 -0.16587538835E+03  0.17563463102E+03  0.47000000000E+01 0.  1.
<mgrwt>
<rscale>  0 0.27499406E+03</rscale>
<asrwt>0</asrwt>
<pdfrwt beam="1">  1        2 0.88560381E-02 0.27499406E+03</pdfrwt>
<pdfrwt beam="2">  1       -2 0.50526644E-01 0.27499406E+03</pdfrwt>
<totfact> 0.27992759E+03</totfact>
</mgrwt>
</event>
<event>
 9    1  0.7997082E-001  0.2748137E+03  0.7818608E-02  0.1098556E+00
          2   -1    0    0  501    0  0.00000000000E+00  0.00000000000E+00  0.37331619384E+03  0.37331619384E+03  0.00000000000E+00 0.  1.
         -2   -1    0    0    0  501 -0.00000000000E+00 -0.00000000000E+00 -0.50575460968E+02  0.50575460968E+02  0.00000000000E+00 0.  1.
         35    2    1    2    0    0 -0.71054273576E-14 -0.71054273576E-14  0.32274073288E+03  0.42389165481E+03  0.27481367208E+03 0.  0.
         25    2    3    3    0    0 -0.13120969927E+02 -0.32236305871E+02  0.22495105509E+03  0.26123376567E+03  0.12817473960E+03 0.  0.
         25    2    3    3    0    0  0.13120969927E+02  0.32236305871E+02  0.97789677783E+02  0.16265788914E+03  0.12523349612E+03 0.  0.
          5    1    4    4  502    0  0.86696307455E+01  0.44958487478E+02  0.46005699474E+02  0.65077203979E+02  0.47000000000E+01 0. -1.
         -5    1    4    4    0  502 -0.21790600673E+02 -0.77194793349E+02  0.17894535562E+03  0.19615656169E+03  0.47000000000E+01 0. -1.
          5    1    5    5  503    0  0.66419963889E+02 -0.17103561027E+01  0.49341277973E+02  0.82892633165E+02  0.47000000000E+01 0.  1.
         -5    1    5    5    0  503 -0.53298993962E+02  0.33946661974E+02  0.48448399810E+02  0.79765255975E+02  0.47000000000E+01 0.  1.
<mgrwt>
<rscale>  0 0.27481367E+03</rscale>
<asrwt>0</asrwt>
<pdfrwt beam="1">  1        2 0.57433259E-01 0.27481367E+03</pdfrwt>
<pdfrwt beam="2">  1       -2 0.77808404E-02 0.27481367E+03</pdfrwt>
<totfact> 0.84466414E+03</totfact>
</mgrwt>
</event>
<event>
 9    1  0.7997082E-001  0.2647714E+03  0.7818608E-02  0.1104310E+00
         -2   -1    0    0    0  501 -0.00000000000E+00  0.00000000000E+00  0.24783280719E+03  0.24783280719E+03  0.00000000000E+00 0. -1.
          2   -1    0    0  501    0  0.00000000000E+00 -0.00000000000E+00 -0.70716919497E+02  0.70716919497E+02  0.00000000000E+00 0. -1.
         35    2    1    2    0    0  0.00000000000E+00 -0.17763568394E-14  0.17711588769E+03  0.31854972669E+03  0.26477139328E+03 0.  0.
         25    2    3    3    0    0 -0.35579807917E+02 -0.79512769275E+01  0.65578913376E+02  0.14601676079E+03  0.12526434056E+03 0.  0.
         25    2    3    3    0    0  0.35579807917E+02  0.79512769275E+01  0.11153697432E+03  0.17253296589E+03  0.12648312988E+03 0.  0.
          5    1    4    4  502    0  0.16173329845E+02 -0.14952373033E+02  0.86632643165E+02  0.89512317137E+02  0.47000000000E+01 0. -1.
         -5    1    4    4    0  502 -0.51753137762E+02  0.70010961050E+01 -0.21053729789E+02  0.56504443656E+02  0.47000000000E+01 0. -1.
          5    1    5    5  503    0  0.73021301436E+02 -0.29100599609E+02  0.66382726533E+02  0.10299374614E+03  0.47000000000E+01 0.  1.
         -5    1    5    5    0  503 -0.37441493518E+02  0.37051876537E+02  0.45154247784E+02  0.69539219759E+02  0.47000000000E+01 0.  1.
<mgrwt>
<rscale>  0 0.26477139E+03</rscale>
<asrwt>0</asrwt>
<pdfrwt beam="1">  1        2 0.10879526E-01 0.26477139E+03</pdfrwt>
<pdfrwt beam="2">  1       -2 0.38128124E-01 0.26477139E+03</pdfrwt>
<totfact> 0.37415734E+03</totfact>
</mgrwt>
</event>
<event>
 9    1  0.7997082E-001  0.2763251E+03  0.7818608E-02  0.1097713E+00
         -3   -1    0    0    0  501 -0.00000000000E+00  0.00000000000E+00  0.13227307902E+02  0.13227307902E+02  0.00000000000E+00 0. -1.
          3   -1    0    0  501    0  0.00000000000E+00 -0.00000000000E+00 -0.14431421691E+04  0.14431421691E+04  0.00000000000E+00 0. -1.
         35    2    1    2    0    0  0.71054273576E-14  0.71054273576E-14 -0.14299148612E+04  0.14563694770E+04  0.27632506811E+03 0.  0.
         25    2    3    3    0    0  0.28064304257E+02 -0.24516278329E+02 -0.48567452821E+03  0.50301999579E+03  0.12554168926E+03 0.  0.
         25    2    3    3    0    0 -0.28064304257E+02  0.24516278329E+02 -0.94424033302E+03  0.95334948123E+03  0.12608240875E+03 0.  0.
          5    1    4    4  502    0  0.37163017597E+02 -0.24661663736E+02 -0.48989424015E+03  0.49194282602E+03  0.47000000000E+01 0. -1.
         -5    1    4    4    0  502 -0.90987133394E+01  0.14538540720E+00  0.42197119456E+01  0.11077169776E+02  0.47000000000E+01 0. -1.
          5    1    5    5  503    0  0.43598322014E+02 -0.10020865313E+02 -0.20795357005E+03  0.21276279919E+03  0.47000000000E+01 0. -1.
         -5    1    5    5    0  503 -0.71662626271E+02  0.34537143642E+02 -0.73628676297E+03  0.74058668204E+03  0.47000000000E+01 0. -1.
<mgrwt>
<rscale>  0 0.27632507E+03</rscale>
<asrwt>0</asrwt>
<pdfrwt beam="1">  1        3 0.22202185E+00 0.27632507E+03</pdfrwt>
<pdfrwt beam="2">  1       -3 0.20349707E-02 0.27632507E+03</pdfrwt>
<totfact> 0.27946636E+02</totfact>
</mgrwt>
</event>
<event>
 9    1  0.7997082E-001  0.2765790E+03  0.7818608E-02  0.1097572E+00
         -1   -1    0    0    0  501 -0.00000000000E+00  0.00000000000E+00  0.38752733281E+02  0.38752733281E+02  0.00000000000E+00 0. -1.
          1   -1    0    0  501    0  0.00000000000E+00 -0.00000000000E+00 -0.49348735314E+03  0.49348735314E+03  0.00000000000E+00 0. -1.
         35    2    1    2    0    0 -0.35527136788E-14  0.00000000000E+00 -0.45473461986E+03  0.53224008642E+03  0.27657898528E+03 0.  0.
         25    2    3    3    0    0  0.29375038258E+02  0.21587040105E+01 -0.12779122254E+03  0.18110536091E+03  0.12490397237E+03 0.  0.
         25    2    3    3    0    0 -0.29375038258E+02 -0.21587040105E+01 -0.32694339732E+03  0.35113472552E+03  0.12464372242E+03 0.  0.
          5    1    4    4  502    0  0.17212750476E+02 -0.24358035941E+02  0.16095242219E+02  0.34216071018E+02  0.47000000000E+01 0. -1.
         -5    1    4    4    0  502  0.12162287783E+02  0.26516739951E+02 -0.14388646476E+03  0.14688928989E+03  0.47000000000E+01 0. -1.
          5    1    5    5  503    0  0.31442602808E+02  0.29945610080E+02 -0.21713254580E+03  0.22148139714E+03  0.47000000000E+01 0. -1.
         -5    1    5    5    0  503 -0.60817641066E+02 -0.32104314091E+02 -0.10981085152E+03  0.12965332838E+03  0.47000000000E+01 0. -1.
<mgrwt>
<rscale>  0 0.27657899E+03</rscale>
<asrwt>0</asrwt>
<pdfrwt beam="1">  1        1 0.75921134E-01 0.27657899E+03</pdfrwt>
<pdfrwt beam="2">  1       -1 0.59619587E-02 0.27657899E+03</pdfrwt>
<totfact> 0.61717541E+03</totfact>
</mgrwt>
</event>
<event>
 9    1  0.7997082E-001  0.2703409E+03  0.7818608E-02  0.1101085E+00
          2   -1    0    0  501    0  0.00000000000E+00  0.00000000000E+00  0.38098690014E+03  0.38098690014E+03  0.00000000000E+00 0. -1.
         -2   -1    0    0    0  501 -0.00000000000E+00 -0.00000000000E+00 -0.47957151364E+02  0.47957151364E+02  0.00000000000E+00 0. -1.
         35    2    1    2    0    0  0.35527136788E-14 -0.71054273576E-14  0.33302974878E+03  0.42894405150E+03  0.27034086955E+03 0.  0.
         25    2    3    3    0    0  0.12374713910E+02  0.14358593850E+02  0.91392793717E+02  0.15614824490E+03  0.12518118421E+03 0.  0.
         25    2    3    3    0    0 -0.12374713910E+02 -0.14358593850E+02  0.24163695506E+03  0.27279580660E+03  0.12517919671E+03 0.  0.
          5    1    4    4  502    0  0.15500787850E+02  0.68089511229E+02  0.35748291846E+02  0.78590624970E+02  0.47000000000E+01 0. -1.
         -5    1    4    4    0  502 -0.31260739401E+01 -0.53730917378E+02  0.55644501871E+02  0.77557619929E+02  0.47000000000E+01 0. -1.
          5    1    5    5  503    0  0.39552981596E+02 -0.26672287011E+02  0.35073016029E+02  0.59397438505E+02  0.47000000000E+01 0. -1.
         -5    1    5    5    0  503 -0.51927695506E+02  0.12313693160E+02  0.20656393903E+03  0.21339836810E+03  0.47000000000E+01 0. -1.
<mgrwt>
<rscale>  0 0.27034087E+03</rscale>
<asrwt>0</asrwt>
<pdfrwt beam="1">  1        2 0.58613367E-01 0.27034087E+03</pdfrwt>
<pdfrwt beam="2">  1       -2 0.73780235E-02 0.27034087E+03</pdfrwt>
<totfact> 0.89696728E+03</totfact>
</mgrwt>
</event>
<event>
 9    1  0.7997082E-001  0.2739699E+03  0.7818608E-02  0.1099029E+00
          1   -1    0    0  501    0  0.00000000000E+00  0.00000000000E+00  0.44683400672E+03  0.44683400672E+03  0.00000000000E+00 0. -1.
         -1   -1    0    0    0  501 -0.00000000000E+00 -0.00000000000E+00 -0.41995196319E+02  0.41995196319E+02  0.00000000000E+00 0. -1.
         35    2    1    2    0    0 -0.35527136788E-14 -0.71054273576E-14  0.40483881040E+03  0.48882920303E+03  0.27396993875E+03 0.  0.
         25    2    3    3    0    0 -0.26574743195E+02  0.47609602129E+02  0.21839163140E+03  0.25761593669E+03  0.12529235805E+03 0.  0.
         25    2    3    3    0    0  0.26574743195E+02 -0.47609602129E+02  0.18644717900E+03  0.23121326634E+03  0.12539590417E+03 0.  0.
          5    1    4    4  502    0  0.13960805353E+02 -0.33232178800E+02  0.11279179757E+03  0.11850468933E+03  0.47000000000E+01 0. -1.
         -5    1    4    4    0  502 -0.40535548548E+02  0.80841780929E+02  0.10559983383E+03  0.13911124737E+03  0.47000000000E+01 0. -1.
          5    1    5    5  503    0  0.58067228366E+02 -0.18769240423E+02  0.17692088169E+03  0.18720890944E+03  0.47000000000E+01 0. -1.
         -5    1    5    5    0  503 -0.31492485171E+02 -0.28840361705E+02  0.95262973094E+01  0.44004356898E+02  0.47000000000E+01 0. -1.
<mgrwt>
<rscale>  0 0.27396994E+03</rscale>
<asrwt>0</asrwt>
<pdfrwt beam="1">  1        1 0.68743690E-01 0.27396994E+03</pdfrwt>
<pdfrwt beam="2">  1       -1 0.64607997E-02 0.27396994E+03</pdfrwt>
<totfact> 0.62260138E+03</totfact>
</mgrwt>
</event>
<event>
 9    1  0.7997082E-001  0.2765190E+03  0.7818608E-02  0.1097606E+00
          2   -1    0    0  501    0  0.00000000000E+00  0.00000000000E+00  0.11705696833E+04  0.11705696833E+04  0.00000000000E+00 0. -1.
         -2   -1    0    0    0  501 -0.00000000000E+00 -0.00000000000E+00 -0.16330246053E+02  0.16330246053E+02  0.00000000000E+00 0. -1.
         35    2    1    2    0    0  0.00000000000E+00 -0.14210854715E-13  0.11542394372E+04  0.11868999293E+04  0.27651901164E+03 0.  0.
         25    2    3    3    0    0  0.66004232223E+01 -0.49983241813E+02  0.43479837657E+03  0.45502843742E+03  0.12433567691E+03 0.  0.
         25    2    3    3    0    0 -0.66004232223E+01  0.49983241813E+02  0.71944106063E+03  0.73187149188E+03  0.12449317593E+03 0.  0.
          5    1    4    4  502    0 -0.35788951911E+02 -0.46040816483E+02  0.88486929832E+02  0.10607842671E+03  0.47000000000E+01 0.  1.
         -5    1    4    4    0  502  0.42389375133E+02 -0.39424253307E+01  0.34631144673E+03  0.34895001072E+03  0.47000000000E+01 0.  1.
          5    1    5    5  503    0  0.39515510256E+02 -0.41465934595E+01  0.91057589074E+02  0.99459762296E+02  0.47000000000E+01 0.  1.
         -5    1    5    5    0  503 -0.46115933478E+02  0.54129835273E+02  0.62838347156E+03  0.63241172959E+03  0.47000000000E+01 0.  1.
<mgrwt>
<rscale>  0 0.27651901E+03</rscale>
<asrwt>0</asrwt>
<pdfrwt beam="1">  1        2 0.18008758E+00 0.27651901E+03</pdfrwt>
<pdfrwt beam="2">  1       -2 0.25123465E-02 0.27651901E+03</pdfrwt>
<totfact> 0.11446536E+04</totfact>
</mgrwt>
</event>
<event>
 9    1  0.7997082E-001  0.2744841E+03  0.7818608E-02  0.1098740E+00
          2   -1    0    0  501    0  0.00000000000E+00  0.00000000000E+00  0.51137265272E+03  0.51137265272E+03  0.00000000000E+00 0.  1.
         -2   -1    0    0    0  501 -0.00000000000E+00 -0.00000000000E+00 -0.36832996214E+02  0.36832996214E+02  0.00000000000E+00 0.  1.
         35    2    1    2    0    0  0.71054273576E-14  0.00000000000E+00  0.47453965651E+03  0.54820564893E+03  0.27448414877E+03 0.  0.
         25    2    3    3    0    0 -0.49511609434E+02 -0.36100209100E+02  0.23541742082E+03  0.27343110247E+03  0.12485423984E+03 0.  0.
         25    2    3    3    0    0  0.49511609434E+02  0.36100209100E+02  0.23912223568E+03  0.27477454646E+03  0.12069375800E+03 0.  0.
          5    1    4    4  502    0  0.30040851092E+02 -0.39369607881E+02  0.14273670298E+03  0.15115645913E+03  0.47000000000E+01 0. -1.
         -5    1    4    4    0  502 -0.79552460526E+02  0.32693987809E+01  0.92680717842E+02  0.12227464334E+03  0.47000000000E+01 0. -1.
          5    1    5    5  503    0  0.37609790989E+02  0.79345008024E+02  0.18080374804E+03  0.20105275920E+03  0.47000000000E+01 0. -1.
         -5    1    5    5    0  503  0.11901818446E+02 -0.43244798924E+02  0.58318487644E+02  0.73721787264E+02  0.47000000000E+01 0. -1.
<mgrwt>
<rscale>  0 0.27448415E+03</rscale>
<asrwt>0</asrwt>
<pdfrwt beam="1">  1        2 0.78672711E-01 0.27448415E+03</pdfrwt>
<pdfrwt beam="2">  1       -2 0.56666152E-02 0.27448415E+03</pdfrwt>
<totfact> 0.97518475E+03</totfact>
</mgrwt>
</event>
<event>
 9    1  0.7997082E-001  0.2773076E+03  0.7818608E-02  0.1097169E+00
          1   -1    0    0  501    0  0.00000000000E+00  0.00000000000E+00  0.31866239796E+03  0.31866239796E+03  0.00000000000E+00 0. -1.
         -1   -1    0    0    0  501 -0.00000000000E+00 -0.00000000000E+00 -0.60329899947E+02  0.60329899947E+02  0.00000000000E+00 0. -1.
         35    2    1    2    0    0  0.71054273576E-14  0.00000000000E+00  0.25833249802E+03  0.37899229791E+03  0.27730755912E+03 0.  0.
         25    2    3    3    0    0 -0.43877768640E+02  0.37659765796E+02  0.16048997973E+03  0.21011745001E+03  0.12267352063E+03 0.  0.
         25    2    3    3    0    0  0.43877768640E+02 -0.37659765796E+02  0.97842518286E+02  0.16887484790E+03  0.12490812355E+03 0.  0.
          5    1    4    4  502    0  0.39076012998E+02  0.17242047132E+02  0.24532317182E+02  0.49478758750E+02  0.47000000000E+01 0. -1.
         -5    1    4    4    0  502 -0.82953781638E+02  0.20417718664E+02  0.13595766255E+03  0.16063869126E+03  0.47000000000E+01 0. -1.
          5    1    5    5  503    0 -0.22368649824E+02  0.33027451164E+02  0.22338917033E+02  0.45959615312E+02  0.47000000000E+01 0.  1.
         -5    1    5    5    0  503  0.66246418464E+02 -0.70687216960E+02  0.75503601253E+02  0.12291523259E+03  0.47000000000E+01 0.  1.
<mgrwt>
<rscale>  0 0.27730756E+03</rscale>
<asrwt>0</asrwt>
<pdfrwt beam="1">  1        1 0.49024983E-01 0.27730756E+03</pdfrwt>
<pdfrwt beam="2">  1       -1 0.92815233E-02 0.27730756E+03</pdfrwt>
<totfact> 0.55200245E+03</totfact>
</mgrwt>
</event>
<event>
 9    1  0.7997082E-001  0.2833174E+03  0.7818608E-02  0.1093891E+00
          1   -1    0    0  501    0  0.00000000000E+00  0.00000000000E+00  0.47615929366E+02  0.47615929366E+02  0.00000000000E+00 0. -1.
         -1   -1    0    0    0  501 -0.00000000000E+00 -0.00000000000E+00 -0.42143850769E+03  0.42143850769E+03  0.00000000000E+00 0. -1.
         35    2    1    2    0    0 -0.14210854715E-13  0.00000000000E+00 -0.37382257833E+03  0.46905443706E+03  0.28331739244E+03 0.  0.
         25    2    3    3    0    0 -0.60714902766E+02 -0.29055891406E+02 -0.19068789790E+03  0.23790591884E+03  0.12532680309E+03 0.  0.
         25    2    3    3    0    0  0.60714902766E+02  0.29055891406E+02 -0.18313468043E+03  0.23114851822E+03  0.12393862213E+03 0.  0.
          5    1    4    4  502    0 -0.59348613316E+02 -0.64078059803E+02 -0.18133502641E+03  0.20132743840E+03  0.47000000000E+01 0. -1.
         -5    1    4    4    0  502 -0.13662894501E+01  0.35022168397E+02 -0.93528714878E+01  0.36578480438E+02  0.47000000000E+01 0. -1.
          5    1    5    5  503    0  0.75795934731E+02 -0.28525319551E+02 -0.11161834981E+03  0.13798356276E+03  0.47000000000E+01 0. -1.
         -5    1    5    5    0  503 -0.15081031965E+02  0.57581210957E+02 -0.71516330618E+02  0.93164955458E+02  0.47000000000E+01 0. -1.
<mgrwt>
<rscale>  0 0.28331739E+03</rscale>
<asrwt>0</asrwt>
<pdfrwt beam="1">  1        1 0.73255273E-02 0.28331739E+03</pdfrwt>
<pdfrwt beam="2">  1       -1 0.64836696E-01 0.28331739E+03</pdfrwt>
<totfact> 0.24466323E+03</totfact>
</mgrwt>
</event>
<event>
 9    1  0.7997082E-001  0.2759005E+03  0.7818608E-02  0.1097949E+00
          1   -1    0    0  501    0  0.00000000000E+00  0.00000000000E+00  0.10369838031E+03  0.10369838031E+03  0.00000000000E+00 0.  1.
         -1   -1    0    0    0  501 -0.00000000000E+00 -0.00000000000E+00 -0.18351562035E+03  0.18351562035E+03  0.00000000000E+00 0.  1.
         35    2    1    2    0    0  0.00000000000E+00  0.17763568394E-14 -0.79817240036E+02  0.28721400066E+03  0.27590050809E+03 0.  0.
         25    2    3    3    0    0  0.57456425837E+02  0.11778954269E+02 -0.43043227439E+02  0.14476998316E+03  0.12516247026E+03 0.  0.
         25    2    3    3    0    0 -0.57456425837E+02 -0.11778954269E+02 -0.36774012597E+02  0.14244401750E+03  0.12449090523E+03 0.  0.
          5    1    4    4  502    0 -0.36904793492E+02  0.19511262659E+01  0.62161301625E+01  0.37769047521E+02  0.47000000000E+01 0. -1.
         -5    1    4    4    0  502  0.94361219330E+02  0.98278280026E+01 -0.49259357601E+02  0.10700093564E+03  0.47000000000E+01 0. -1.
          5    1    5    5  503    0 -0.29571031069E+02  0.47498540330E+02  0.15785274978E+02  0.58325141389E+02  0.47000000000E+01 0. -1.
         -5    1    5    5    0  503 -0.27885394768E+02 -0.59277494598E+02 -0.52559287575E+02  0.84118876108E+02  0.47000000000E+01 0. -1.
<mgrwt>
<rscale>  0 0.27590051E+03</rscale>
<asrwt>0</asrwt>
<pdfrwt beam="1">  1        1 0.15953597E-01 0.27590051E+03</pdfrwt>
<pdfrwt beam="2">  1       -1 0.28233172E-01 0.27590051E+03</pdfrwt>
<totfact> 0.38721462E+03</totfact>
</mgrwt>
</event>
<event>
 9    1  0.7997082E-001  0.2753223E+03  0.7818608E-02  0.1098272E+00
          1   -1    0    0  501    0  0.00000000000E+00  0.00000000000E+00  0.16335062816E+02  0.16335062816E+02  0.00000000000E+00 0.  1.
         -1   -1    0    0    0  501 -0.00000000000E+00 -0.00000000000E+00 -0.11601176533E+04  0.11601176533E+04  0.00000000000E+00 0.  1.
         35    2    1    2    0    0  0.17763568394E-14  0.14210854715E-13 -0.11437825905E+04  0.11764527161E+04  0.27532231831E+03 0.  0.
         25    2    3    3    0    0 -0.68859142757E+01  0.52788507771E+02 -0.65603724839E+03  0.67009734872E+03  0.12574395857E+03 0.  0.
         25    2    3    3    0    0  0.68859142757E+01 -0.52788507771E+02 -0.48774534209E+03  0.50635536739E+03  0.12516467948E+03 0.  0.
          5    1    4    4  502    0  0.37778337711E+01 -0.18586097246E+02 -0.47135859931E+03  0.47176343031E+03  0.47000000000E+01 0. -1.
         -5    1    4    4    0  502 -0.10663748047E+02  0.71374605017E+02 -0.18467864908E+03  0.19833391841E+03  0.47000000000E+01 0. -1.
          5    1    5    5  503    0  0.26099967860E+01  0.36080429070E+02 -0.67068224339E+02  0.76346880494E+02  0.47000000000E+01 0.  1.
         -5    1    5    5    0  503  0.42759174898E+01 -0.88868936841E+02 -0.42067711775E+03  0.43000848690E+03  0.47000000000E+01 0.  1.
<mgrwt>
<rscale>  0 0.27532232E+03</rscale>
<asrwt>0</asrwt>
<pdfrwt beam="1">  1        1 0.25130867E-02 0.27532232E+03</pdfrwt>
<pdfrwt beam="2">  1       -1 0.17847963E+00 0.27532232E+03</pdfrwt>
<totfact> 0.10258124E+03</totfact>
</mgrwt>
</event>
<event>
 9    1  0.7997082E-001  0.2751506E+03  0.7818608E-02  0.1098367E+00
          2   -1    0    0  501    0  0.00000000000E+00  0.00000000000E+00  0.27447278910E+02  0.27447278910E+02  0.00000000000E+00 0. -1.
         -2   -1    0    0    0  501 -0.00000000000E+00 -0.00000000000E+00 -0.68957503185E+03  0.68957503185E+03  0.00000000000E+00 0. -1.
         35    2    1    2    0    0  0.71054273576E-14  0.17763568394E-14 -0.66212775294E+03  0.71702231076E+03  0.27515056408E+03 0.  0.
         25    2    3    3    0    0  0.30929075721E+02 -0.10972503336E+02 -0.45179608093E+03  0.47054555972E+03  0.12734371393E+03 0.  0.
         25    2    3    3    0    0 -0.30929075721E+02  0.10972503336E+02 -0.21033167201E+03  0.24647675104E+03  0.12423515202E+03 0.  0.
          5    1    4    4  502    0  0.71763760921E+02  0.25731876797E+02 -0.25890640668E+03  0.26993848241E+03  0.47000000000E+01 0.  1.
         -5    1    4    4    0  502 -0.40834685199E+02 -0.36704380134E+02 -0.19288967425E+03  0.20060707732E+03  0.47000000000E+01 0.  1.
          5    1    5    5  503    0  0.36229430895E+02  0.22710235822E+02 -0.26915206473E+02  0.50742928705E+02  0.47000000000E+01 0.  1.
         -5    1    5    5    0  503 -0.67158506616E+02 -0.11737732485E+02 -0.18341646554E+03  0.19573382233E+03  0.47000000000E+01 0.  1.
<mgrwt>
<rscale>  0 0.27515056E+03</rscale>
<asrwt>0</asrwt>
<pdfrwt beam="1">  1        2 0.42226587E-02 0.27515056E+03</pdfrwt>
<pdfrwt beam="2">  1       -2 0.10608846E+00 0.27515056E+03</pdfrwt>
<totfact> 0.14696019E+03</totfact>
</mgrwt>
</event>
<event>
 9    1  0.7997082E-001  0.2789391E+03  0.7818608E-02  0.1096270E+00
         -2   -1    0    0    0  501 -0.00000000000E+00  0.00000000000E+00  0.12815578415E+02  0.12815578415E+02  0.00000000000E+00 0. -1.
          2   -1    0    0  501    0  0.00000000000E+00 -0.00000000000E+00 -0.15178205726E+04  0.15178205726E+04  0.00000000000E+00 0. -1.
         35    2    1    2    0    0  0.00000000000E+00  0.00000000000E+00 -0.15050049942E+04  0.15306361510E+04  0.27893905117E+03 0.  0.
         25    2    3    3    0    0 -0.39182991644E+02 -0.49980717328E+02 -0.72118349441E+03  0.73461064150E+03  0.12455433777E+03 0.  0.
         25    2    3    3    0    0  0.39182991644E+02  0.49980717328E+02 -0.78382149977E+03  0.79602550951E+03  0.12347910491E+03 0.  0.
          5    1    4    4  502    0 -0.37974268414E+02  0.33188582589E+02 -0.17766779034E+03  0.18474701838E+03  0.47000000000E+01 0.  1.
         -5    1    4    4    0  502 -0.12087232295E+01 -0.83169299917E+02 -0.54351570408E+03  0.54986362313E+03  0.47000000000E+01 0.  1.
          5    1    5    5  503    0  0.15767299868E+02 -0.19318998082E+02 -0.55860422055E+03  0.55918028993E+03  0.47000000000E+01 0.  1.
         -5    1    5    5    0  503  0.23415691775E+02  0.69299715410E+02 -0.22521727922E+03  0.23684521957E+03  0.47000000000E+01 0.  1.
<mgrwt>
<rscale>  0 0.27893905E+03</rscale>
<asrwt>0</asrwt>
<pdfrwt beam="1">  1        2 0.23351092E+00 0.27893905E+03</pdfrwt>
<pdfrwt beam="2">  1       -2 0.19716269E-02 0.27893905E+03</pdfrwt>
<totfact> 0.10541529E+04</totfact>
</mgrwt>
</event>
<event>
 9    1  0.7997082E-001  0.2768244E+03  0.7818608E-02  0.1097436E+00
          3   -1    0    0  501    0  0.00000000000E+00  0.00000000000E+00  0.19794911922E+03  0.19794911922E+03  0.00000000000E+00 0.  1.
         -3   -1    0    0    0  501 -0.00000000000E+00 -0.00000000000E+00 -0.96782153850E+02  0.96782153850E+02  0.00000000000E+00 0.  1.
         35    2    1    2    0    0  0.35527136788E-14 -0.71054273576E-14  0.10116696537E+03  0.29473127307E+03  0.27682443614E+03 0.  0.
         25    2    3    3    0    0 -0.30323936377E+02 -0.30507002560E+02  0.12256894205E+02  0.13463329734E+03  0.12698690867E+03 0.  0.
         25    2    3    3    0    0  0.30323936377E+02  0.30507002560E+02  0.88910071163E+02  0.16009797573E+03  0.12600056649E+03 0.  0.
          5    1    4    4  502    0  0.22099486448E+02 -0.64654861558E+02 -0.73950235123E+01  0.68886971171E+02  0.47000000000E+01 0. -1.
         -5    1    4    4    0  502 -0.52423422824E+02  0.34147858998E+02  0.19651917718E+02  0.65746326169E+02  0.47000000000E+01 0. -1.
          5    1    5    5  503    0  0.39049350768E+02  0.56993108468E+02  0.10632490587E+03  0.12688633424E+03  0.47000000000E+01 0.  1.
         -5    1    5    5    0  503 -0.87254143919E+01 -0.26486105908E+02 -0.17414834708E+02  0.33211641489E+02  0.47000000000E+01 0.  1.
<mgrwt>
<rscale>  0 0.27682444E+03</rscale>
<asrwt>0</asrwt>
<pdfrwt beam="1">  1        3 0.30453711E-01 0.27682444E+03</pdfrwt>
<pdfrwt beam="2">  1       -3 0.14889562E-01 0.27682444E+03</pdfrwt>
<totfact> 0.99890847E+02</totfact>
</mgrwt>
</event>
<event>
 9    1  0.7997082E-001  0.2679724E+03  0.7818608E-02  0.1102446E+00
         -2   -1    0    0    0  501 -0.00000000000E+00  0.00000000000E+00  0.61373319645E+01  0.61373319645E+01  0.00000000000E+00 0. -1.
          2   -1    0    0  501    0  0.00000000000E+00 -0.00000000000E+00 -0.29250987206E+04  0.29250987206E+04  0.00000000000E+00 0. -1.
         35    2    1    2    0    0  0.71054273576E-14  0.00000000000E+00 -0.29189613887E+04  0.29312360526E+04  0.26797240065E+03 0.  0.
         25    2    3    3    0    0  0.45137405570E+02  0.11093151721E+01 -0.15813409474E+04  0.15869843871E+04  0.12586356536E+03 0.  0.
         25    2    3    3    0    0 -0.45137405570E+02 -0.11093151721E+01 -0.13376204412E+04  0.13442516655E+04  0.12548099167E+03 0.  0.
          5    1    4    4  502    0 -0.16069686459E+01 -0.30357566111E+02 -0.12808662295E+04  0.12812355568E+04  0.47000000000E+01 0. -1.
         -5    1    4    4    0  502  0.46744374216E+02  0.31466881283E+02 -0.30047471788E+03  0.30574883029E+03  0.47000000000E+01 0. -1.
          5    1    5    5  503    0  0.42319034878E+02  0.68619134496E+01 -0.33124595489E+03  0.33404185246E+03  0.47000000000E+01 0. -1.
         -5    1    5    5    0  503 -0.87456440448E+02 -0.79712286217E+01 -0.10063744864E+04  0.10102098130E+04  0.47000000000E+01 0. -1.
<mgrwt>
<rscale>  0 0.26797240E+03</rscale>
<asrwt>0</asrwt>
<pdfrwt beam="1">  1        2 0.45001571E+00 0.26797240E+03</pdfrwt>
<pdfrwt beam="2">  1       -2 0.94420383E-03 0.26797240E+03</pdfrwt>
<totfact> 0.53471273E+03</totfact>
</mgrwt>
</event>
<event>
 9    1  0.7997082E-001  0.2733460E+03  0.7818608E-02  0.1099380E+00
         -2   -1    0    0    0  501 -0.00000000000E+00  0.00000000000E+00  0.26681719551E+02  0.26681719551E+02  0.00000000000E+00 0. -1.
          2   -1    0    0  501    0  0.00000000000E+00 -0.00000000000E+00 -0.70008650934E+03  0.70008650934E+03  0.00000000000E+00 0. -1.
         35    2    1    2    0    0  0.35527136788E-14  0.35527136788E-14 -0.67340478979E+03  0.72676822889E+03  0.27334602177E+03 0.  0.
         25    2    3    3    0    0  0.15683869543E+02  0.11481541269E+02 -0.20111229452E+03  0.23785851210E+03  0.12550978934E+03 0.  0.
         25    2    3    3    0    0 -0.15683869543E+02 -0.11481541269E+02 -0.47229249527E+03  0.48890971678E+03  0.12487874330E+03 0.  0.
          5    1    4    4  502    0 -0.83558414032E+01  0.20684839677E+02  0.10168598184E+02  0.24963434601E+02  0.47000000000E+01 0.  1.
         -5    1    4    4    0  502  0.24039710946E+02 -0.92032984080E+01 -0.21128089270E+03  0.21289507750E+03  0.47000000000E+01 0.  1.
          5    1    5    5  503    0 -0.61022949081E+02 -0.27372202760E+02 -0.36706893640E+03  0.37314170481E+03  0.47000000000E+01 0. -1.
         -5    1    5    5    0  503  0.45339079539E+02  0.15890661490E+02 -0.10522355887E+03  0.11576801198E+03  0.47000000000E+01 0. -1.
<mgrwt>
<rscale>  0 0.27334602E+03</rscale>
<asrwt>0</asrwt>
<pdfrwt beam="1">  1        2 0.10770559E+00 0.27334602E+03</pdfrwt>
<pdfrwt beam="2">  1       -2 0.41048809E-02 0.27334602E+03</pdfrwt>
<totfact> 0.11035165E+04</totfact>
</mgrwt>
</event>
<event>
 9    1  0.7997082E-001  0.2755519E+03  0.7818608E-02  0.1098143E+00
          2   -1    0    0  501    0  0.00000000000E+00  0.00000000000E+00  0.18132245067E+04  0.18132245067E+04  0.00000000000E+00 0.  1.
         -2   -1    0    0    0  501 -0.00000000000E+00 -0.00000000000E+00 -0.10468763802E+02  0.10468763802E+02  0.00000000000E+00 0.  1.
         35    2    1    2    0    0 -0.71054273576E-14  0.35527136788E-14  0.18027557429E+04  0.18236932705E+04  0.27555194850E+03 0.  0.
         25    2    3    3    0    0  0.45790212079E+02 -0.95440550965E+01  0.11479236787E+04  0.11554817069E+04  0.12337491832E+03 0.  0.
         25    2    3    3    0    0 -0.45790212079E+02  0.95440550965E+01  0.65483206423E+03  0.66821156358E+03  0.12455452160E+03 0.  0.
          5    1    4    4  502    0 -0.79002591630E+00  0.32790827886E+02  0.93992732411E+02  0.99662361404E+02  0.47000000000E+01 0.  1.
         -5    1    4    4    0  502  0.46580237996E+02 -0.42334882982E+02  0.10539309463E+04  0.10558193455E+04  0.47000000000E+01 0.  1.
          5    1    5    5  503    0  0.16388304245E+02 -0.72683519477E+01  0.11858573904E+02  0.22002755079E+02  0.47000000000E+01 0.  1.
         -5    1    5    5    0  503 -0.62178516324E+02  0.16812407044E+02  0.64297349032E+03  0.64620880850E+03  0.47000000000E+01 0.  1.
<mgrwt>
<rscale>  0 0.27555195E+03</rscale>
<asrwt>0</asrwt>
<pdfrwt beam="1">  1        2 0.27895737E+00 0.27555195E+03</pdfrwt>
<pdfrwt beam="2">  1       -2 0.16105805E-02 0.27555195E+03</pdfrwt>
<totfact> 0.99007848E+03</totfact>
</mgrwt>
</event>
<event>
 9    1  0.7997082E-001  0.2755109E+03  0.7818608E-02  0.1098166E+00
          4   -1    0    0  501    0  0.00000000000E+00  0.00000000000E+00  0.53719569009E+02  0.53719569009E+02  0.00000000000E+00 0. -1.
         -4   -1    0    0    0  501 -0.00000000000E+00 -0.00000000000E+00 -0.35325223058E+03  0.35325223058E+03  0.00000000000E+00 0. -1.
         35    2    1    2    0    0  0.00000000000E+00  0.00000000000E+00 -0.29953266157E+03  0.40697179959E+03  0.27551085335E+03 0.  0.
         25    2    3    3    0    0 -0.17527074449E+02 -0.52416997363E+02 -0.13466541035E+03  0.19305253807E+03  0.12680603203E+03 0.  0.
         25    2    3    3    0    0  0.17527074449E+02  0.52416997363E+02 -0.16486725122E+03  0.21391926152E+03  0.12460136425E+03 0.  0.
          5    1    4    4  502    0 -0.29211241578E+02  0.37072226756E+02 -0.38523212687E+02  0.61104619686E+02  0.47000000000E+01 0. -1.
         -5    1    4    4    0  502  0.11684167129E+02 -0.89489224119E+02 -0.96142197661E+02  0.13194791838E+03  0.47000000000E+01 0. -1.
          5    1    5    5  503    0  0.63188569175E+02  0.58932354645E+02 -0.12884962480E+03  0.15520996588E+03  0.47000000000E+01 0. -1.
         -5    1    5    5    0  503 -0.45661494726E+02 -0.65153572825E+01 -0.36017626429E+02  0.58709295641E+02  0.47000000000E+01 0. -1.
<mgrwt>
<rscale>  0 0.27551085E+03</rscale>
<asrwt>0</asrwt>
<pdfrwt beam="1">  1        4 0.82645490E-02 0.27551085E+03</pdfrwt>
<pdfrwt beam="2">  1       -4 0.54346497E-01 0.27551085E+03</pdfrwt>
<totfact> 0.64018060E+02</totfact>
</mgrwt>
</event>
<event>
 9    1  0.7997082E-001  0.2776591E+03  0.7818608E-02  0.1096974E+00
          1   -1    0    0  501    0  0.00000000000E+00  0.00000000000E+00  0.72194447166E+02  0.72194447166E+02  0.00000000000E+00 0.  1.
         -1   -1    0    0    0  501 -0.00000000000E+00 -0.00000000000E+00 -0.26696859303E+03  0.26696859303E+03  0.00000000000E+00 0.  1.
         35    2    1    2    0    0  0.00000000000E+00  0.71054273576E-14 -0.19477414586E+03  0.33916304020E+03  0.27765914344E+03 0.  0.
         25    2    3    3    0    0 -0.55124763547E+01  0.57478299252E+02 -0.11722019601E+03  0.18122919876E+03  0.12557589677E+03 0.  0.
         25    2    3    3    0    0  0.55124763547E+01 -0.57478299252E+02 -0.77553949857E+02  0.15793384144E+03  0.12487730319E+03 0.  0.
          5    1    4    4  502    0  0.53887250318E+02  0.81376091878E+01 -0.23055503642E+02  0.59360784010E+02  0.47000000000E+01 0.  1.
         -5    1    4    4    0  502 -0.59399726673E+02  0.49340690064E+02 -0.94164692365E+02  0.12186841475E+03  0.47000000000E+01 0.  1.
          5    1    5    5  503    0 -0.18489762870E+02 -0.37325029357E+02 -0.10684853631E+03  0.11477686552E+03  0.47000000000E+01 0. -1.
         -5    1    5    5    0  503  0.24002239225E+02 -0.20153269895E+02  0.29294586449E+02  0.43156975920E+02  0.47000000000E+01 0. -1.
<mgrwt>
<rscale>  0 0.27765914E+03</rscale>
<asrwt>0</asrwt>
<pdfrwt beam="1">  1        1 0.11106838E-01 0.27765914E+03</pdfrwt>
<pdfrwt beam="2">  1       -1 0.41072091E-01 0.27765914E+03</pdfrwt>
<totfact> 0.32649408E+03</totfact>
</mgrwt>
</event>
<event>
 9    1  0.7997082E-001  0.2765957E+03  0.7818608E-02  0.1097563E+00
         -1   -1    0    0    0  501 -0.00000000000E+00  0.00000000000E+00  0.96016284502E+01  0.96016284502E+01  0.00000000000E+00 0. -1.
          1   -1    0    0  501    0  0.00000000000E+00 -0.00000000000E+00 -0.19919838424E+04  0.19919838424E+04  0.00000000000E+00 0. -1.
         35    2    1    2    0    0  0.00000000000E+00 -0.71054273576E-14 -0.19823822140E+04  0.20015854709E+04  0.27659565242E+03 0.  0.
         25    2    3    3    0    0 -0.10664837877E+02  0.37748580079E+02 -0.12737146218E+04  0.12804312155E+04  0.12496585883E+03 0.  0.
         25    2    3    3    0    0  0.10664837877E+02 -0.37748580079E+02 -0.70866759221E+03  0.72115425538E+03  0.12773022245E+03 0.  0.
          5    1    4    4  502    0  0.11874007037E+02 -0.38508110444E+02 -0.70484869363E+03  0.70601532386E+03  0.47000000000E+01 0. -1.
         -5    1    4    4    0  502 -0.22538844914E+02  0.76256690523E+02 -0.56886592815E+03  0.57441589166E+03  0.47000000000E+01 0. -1.
          5    1    5    5  503    0  0.15671917325E+02 -0.24359629743E+02 -0.28786304261E+02  0.41106469891E+02  0.47000000000E+01 0.  1.
         -5    1    5    5    0  503 -0.50070794476E+01 -0.13388950336E+02 -0.67988128795E+03  0.68004778549E+03  0.47000000000E+01 0.  1.
<mgrwt>
<rscale>  0 0.27659565E+03</rscale>
<asrwt>0</asrwt>
<pdfrwt beam="1">  1        1 0.30645913E+00 0.27659565E+03</pdfrwt>
<pdfrwt beam="2">  1       -1 0.14771733E-02 0.27659565E+03</pdfrwt>
<totfact> 0.36442234E+03</totfact>
</mgrwt>
</event>
<event>
 9    1  0.7997082E-001  0.2797087E+03  0.7818608E-02  0.1095848E+00
          2   -1    0    0  501    0  0.00000000000E+00  0.00000000000E+00  0.28123952536E+03  0.28123952536E+03  0.00000000000E+00 0. -1.
         -2   -1    0    0    0  501 -0.00000000000E+00 -0.00000000000E+00 -0.69546575076E+02  0.69546575076E+02  0.00000000000E+00 0. -1.
         35    2    1    2    0    0  0.00000000000E+00  0.35527136788E-14  0.21169295029E+03  0.35078610044E+03  0.27970874684E+03 0.  0.
         25    2    3    3    0    0  0.21922122034E+02  0.92691482821E+01  0.18012608424E+03  0.21929119707E+03  0.12278732160E+03 0.  0.
         25    2    3    3    0    0 -0.21922122034E+02 -0.92691482821E+01  0.31566866048E+02  0.13149490337E+03  0.12541110810E+03 0.  0.
          5    1    4    4  502    0 -0.41805565167E+02 -0.24980557402E+02  0.47774314645E+02  0.68382809732E+02  0.47000000000E+01 0.  1.
         -5    1    4    4    0  502  0.63727687200E+02  0.34249705684E+02  0.13235176959E+03  0.15090838734E+03  0.47000000000E+01 0.  1.
          5    1    5    5  503    0 -0.33747789150E+02  0.50854619993E+02 -0.24298919831E+01  0.61262549917E+02  0.47000000000E+01 0. -1.
         -5    1    5    5    0  503  0.11825667117E+02 -0.60123768276E+02  0.33996758031E+02  0.70232353449E+02  0.47000000000E+01 0. -1.
<mgrwt>
<rscale>  0 0.27970875E+03</rscale>
<asrwt>0</asrwt>
<pdfrwt beam="1">  1        2 0.43267619E-01 0.27970875E+03</pdfrwt>
<pdfrwt beam="2">  1       -2 0.10699473E-01 0.27970875E+03</pdfrwt>
<totfact> 0.69373276E+03</totfact>
</mgrwt>
</event>
<event>
 9    1  0.7997082E-001  0.2575295E+03  0.7818608E-02  0.1108637E+00
         -2   -1    0    0    0  501 -0.00000000000E+00  0.00000000000E+00  0.45657008676E+01  0.45657008676E+01  0.00000000000E+00 0. -1.
          2   -1    0    0  501    0  0.00000000000E+00 -0.00000000000E+00 -0.36315049448E+04  0.36315049448E+04  0.00000000000E+00 0. -1.
         35    2    1    2    0    0  0.00000000000E+00  0.00000000000E+00 -0.36269392439E+04  0.36360706456E+04  0.25752953444E+03 0.  0.
         25    2    3    3    0    0  0.24538024335E+02 -0.66611717361E+01 -0.15462207417E+04  0.15514806991E+04  0.12508913548E+03 0.  0.
         25    2    3    3    0    0 -0.24538024335E+02  0.66611717361E+01 -0.20807185022E+04  0.20845899466E+04  0.12441573007E+03 0.  0.
          5    1    4    4  502    0  0.57365412899E+02 -0.45253632944E+02 -0.72583272851E+03  0.72951622440E+03  0.47000000000E+01 0. -1.
         -5    1    4    4    0  502 -0.32827388563E+02  0.38592461208E+02 -0.82038801316E+03  0.82196447468E+03  0.47000000000E+01 0. -1.
          5    1    5    5  503    0 -0.92183429976E+01 -0.19648429172E+02 -0.19559049861E+04  0.19560310435E+04  0.47000000000E+01 0.  1.
         -5    1    5    5    0  503 -0.15319681338E+02  0.26309600908E+02 -0.12481351616E+03  0.12855890304E+03  0.47000000000E+01 0.  1.
<mgrwt>
<rscale>  0 0.25752953E+03</rscale>
<asrwt>0</asrwt>
<pdfrwt beam="1">  1        2 0.55869015E+00 0.25752953E+03</pdfrwt>
<pdfrwt beam="2">  1       -2 0.70241918E-03 0.25752953E+03</pdfrwt>
<totfact> 0.29493884E+03</totfact>
</mgrwt>
</event>
<event>
 9    1  0.7997082E-001  0.2759266E+03  0.7818608E-02  0.1097935E+00
         -1   -1    0    0    0  501 -0.00000000000E+00  0.00000000000E+00  0.11787742961E+02  0.11787742961E+02  0.00000000000E+00 0. -1.
          1   -1    0    0  501    0  0.00000000000E+00 -0.00000000000E+00 -0.16147174857E+04  0.16147174857E+04  0.00000000000E+00 0. -1.
         35    2    1    2    0    0  0.35527136788E-14  0.71054273576E-14 -0.16029297427E+04  0.16265052286E+04  0.27592661832E+03 0.  0.
         25    2    3    3    0    0 -0.23467892432E+02 -0.33716260511E+02 -0.55868378444E+03  0.57398367533E+03  0.12506862257E+03 0.  0.
         25    2    3    3    0    0  0.23467892432E+02  0.33716260511E+02 -0.10442459582E+04  0.10525215533E+04  0.12515778282E+03 0.  0.
          5    1    4    4  502    0 -0.20388564921E+02  0.46493280755E+02 -0.19973685943E+03  0.20614126649E+03  0.47000000000E+01 0.  1.
         -5    1    4    4    0  502 -0.30793275110E+01 -0.80209541265E+02 -0.35894692501E+03  0.36784240884E+03  0.47000000000E+01 0.  1.
          5    1    5    5  503    0  0.36078331742E+02 -0.41191840322E+02 -0.38676767589E+03  0.39065296472E+03  0.47000000000E+01 0.  1.
         -5    1    5    5    0  503 -0.12610439310E+02  0.74908100833E+02 -0.65747828236E+03  0.66186858856E+03  0.47000000000E+01 0.  1.
<mgrwt>
<rscale>  0 0.27592662E+03</rscale>
<asrwt>0</asrwt>
<pdfrwt beam="1">  1        1 0.24841804E+00 0.27592662E+03</pdfrwt>
<pdfrwt beam="2">  1       -1 0.18134992E-02 0.27592662E+03</pdfrwt>
<totfact> 0.47571358E+03</totfact>
</mgrwt>
</event>
<event>
 9    1  0.7997082E-001  0.2730502E+03  0.7818608E-02  0.1099546E+00
         -2   -1    0    0    0  501 -0.00000000000E+00  0.00000000000E+00  0.67315759568E+01  0.67315759568E+01  0.00000000000E+00 0.  1.
          2   -1    0    0  501    0  0.00000000000E+00 -0.00000000000E+00 -0.27689064643E+04  0.27689064643E+04  0.00000000000E+00 0.  1.
         35    2    1    2    0    0  0.00000000000E+00 -0.71054273576E-14 -0.27621748884E+04  0.27756380403E+04  0.27305020917E+03 0.  0.
         25    2    3    3    0    0 -0.22808340876E+02  0.18125425781E+02 -0.18186879488E+04  0.18235061887E+04  0.12922930665E+03 0.  0.
         25    2    3    3    0    0  0.22808340876E+02 -0.18125425781E+02 -0.94348693958E+03  0.95213185158E+03  0.12465434674E+03 0.  0.
          5    1    4    4  502    0 -0.63105322898E+02  0.49696000061E+02 -0.11927520780E+04  0.11954629161E+04  0.47000000000E+01 0. -1.
         -5    1    4    4    0  502  0.40296982022E+02 -0.31570574281E+02 -0.62593587079E+03  0.62804327261E+03  0.47000000000E+01 0. -1.
          5    1    5    5  503    0  0.45097460568E+02 -0.47587338100E+02 -0.28044317009E+03  0.28804304773E+03  0.47000000000E+01 0. -1.
         -5    1    5    5    0  503 -0.22289119692E+02  0.29461912320E+02 -0.66304376950E+03  0.66408880385E+03  0.47000000000E+01 0. -1.
<mgrwt>
<rscale>  0 0.27305021E+03</rscale>
<asrwt>0</asrwt>
<pdfrwt beam="1">  1        2 0.42598575E+00 0.27305021E+03</pdfrwt>
<pdfrwt beam="2">  1       -2 0.10356267E-02 0.27305021E+03</pdfrwt>
<totfact> 0.57513966E+03</totfact>
</mgrwt>
</event>
<event>
 9    1  0.7997082E-001  0.2738001E+03  0.7818608E-02  0.1099124E+00
         -1   -1    0    0    0  501 -0.00000000000E+00  0.00000000000E+00  0.36567012853E+02  0.36567012853E+02  0.00000000000E+00 0.  1.
          1   -1    0    0  501    0  0.00000000000E+00 -0.00000000000E+00 -0.51252807682E+03  0.51252807682E+03  0.00000000000E+00 0.  1.
         35    2    1    2    0    0 -0.35527136788E-14  0.00000000000E+00 -0.47596106397E+03  0.54909508968E+03  0.27380007869E+03 0.  0.
         25    2    3    3    0    0 -0.18608836198E+02 -0.15519649161E+02 -0.13726045487E+03  0.18726241289E+03  0.12505850837E+03 0.  0.
         25    2    3    3    0    0  0.18608836198E+02  0.15519649161E+02 -0.33870060910E+03  0.36183267679E+03  0.12497053689E+03 0.  0.
          5    1    4    4  502    0 -0.12708789789E+02 -0.68504390841E+02 -0.10032394323E+03  0.12223480882E+03  0.47000000000E+01 0. -1.
         -5    1    4    4    0  502 -0.59000464086E+01  0.52984741680E+02 -0.36936511640E+02  0.65027604066E+02  0.47000000000E+01 0. -1.
          5    1    5    5  503    0 -0.37741586284E+02 -0.12569676771E+02 -0.40282662150E+02  0.56808511503E+02  0.47000000000E+01 0. -1.
         -5    1    5    5    0  503  0.56350422482E+02  0.28089325932E+02 -0.29841794695E+03  0.30502416529E+03  0.47000000000E+01 0. -1.
<mgrwt>
<rscale>  0 0.27380008E+03</rscale>
<asrwt>0</asrwt>
<pdfrwt beam="1">  1        1 0.78850469E-01 0.27380008E+03</pdfrwt>
<pdfrwt beam="2">  1       -1 0.56256946E-02 0.27380008E+03</pdfrwt>
<totfact> 0.64029280E+03</totfact>
</mgrwt>
</event>
<event>
 9    1  0.7997082E-001  0.2747316E+03  0.7818608E-02  0.1098602E+00
          1   -1    0    0  501    0  0.00000000000E+00  0.00000000000E+00  0.35583140969E+03  0.35583140969E+03  0.00000000000E+00 0.  1.
         -1   -1    0    0    0  501 -0.00000000000E+00 -0.00000000000E+00 -0.53028954348E+02  0.53028954348E+02  0.00000000000E+00 0.  1.
         35    2    1    2    0    0  0.00000000000E+00  0.00000000000E+00  0.30280245534E+03  0.40886036404E+03  0.27473163327E+03 0.  0.
         25    2    3    3    0    0 -0.12044111324E+02 -0.38925289153E+02  0.21106406691E+03  0.24868699397E+03  0.12504775838E+03 0.  0.
         25    2    3    3    0    0  0.12044111324E+02  0.38925289153E+02  0.91738388428E+02  0.16017337007E+03  0.12481721762E+03 0.  0.
          5    1    4    4  502    0  0.11434857097E+02  0.11739958170E+02 -0.10582265277E+02  0.20066312891E+02  0.47000000000E+01 0. -1.
         -5    1    4    4    0  502 -0.23478968421E+02 -0.50665247323E+02  0.22164633219E+03  0.22862068108E+03  0.47000000000E+01 0. -1.
          5    1    5    5  503    0 -0.31349534255E+02 -0.22255914819E+02  0.73122630625E+02  0.82747375499E+02  0.47000000000E+01 0. -1.
         -5    1    5    5    0  503  0.43393645579E+02  0.61181203972E+02  0.18615757804E+02  0.77425994567E+02  0.47000000000E+01 0. -1.
<mgrwt>
<rscale>  0 0.27473163E+03</rscale>
<asrwt>0</asrwt>
<pdfrwt beam="1">  1        1 0.54743292E-01 0.27473163E+03</pdfrwt>
<pdfrwt beam="2">  1       -1 0.81583009E-02 0.27473163E+03</pdfrwt>
<totfact> 0.58496573E+03</totfact>
</mgrwt>
</event>
<event>
 9    1  0.7997082E-001  0.2736394E+03  0.7818608E-02  0.1099215E+00
         -1   -1    0    0    0  501 -0.00000000000E+00  0.00000000000E+00  0.18451539192E+02  0.18451539192E+02  0.00000000000E+00 0. -1.
          1   -1    0    0  501    0  0.00000000000E+00 -0.00000000000E+00 -0.10145296011E+04  0.10145296011E+04  0.00000000000E+00 0. -1.
         35    2    1    2    0    0  0.00000000000E+00  0.00000000000E+00 -0.99607806192E+03  0.10329811403E+04  0.27363941745E+03 0.  0.
         25    2    3    3    0    0  0.55364299038E+01  0.12726108499E+02 -0.71629779473E+03  0.72712213627E+03  0.12422344556E+03 0.  0.
         25    2    3    3    0    0 -0.55364299038E+01 -0.12726108499E+02 -0.27978026719E+03  0.30585900403E+03  0.12280116671E+03 0.  0.
          5    1    4    4  502    0 -0.42606841492E+02  0.32202089594E+02 -0.16793320442E+03  0.17628377311E+03  0.47000000000E+01 0. -1.
         -5    1    4    4    0  502  0.48143271396E+02 -0.19475981095E+02 -0.54836459031E+03  0.55083836316E+03  0.47000000000E+01 0. -1.
          5    1    5    5  503    0 -0.31539702471E+02  0.45208484339E+02 -0.89617112218E+02  0.10531797895E+03  0.47000000000E+01 0.  1.
         -5    1    5    5    0  503  0.26003272568E+02 -0.57934592839E+02 -0.19016315497E+03  0.20054102508E+03  0.47000000000E+01 0.  1.
<mgrwt>
<rscale>  0 0.27363942E+03</rscale>
<asrwt>0</asrwt>
<pdfrwt beam="1">  1        1 0.15608148E+00 0.27363942E+03</pdfrwt>
<pdfrwt beam="2">  1       -1 0.28386983E-02 0.27363942E+03</pdfrwt>
<totfact> 0.63786082E+03</totfact>
</mgrwt>
</event>
<event>
 9    1  0.7997082E-001  0.2769671E+03  0.7818608E-02  0.1097357E+00
         -2   -1    0    0    0  501 -0.00000000000E+00  0.00000000000E+00  0.86173243143E+01  0.86173243143E+01  0.00000000000E+00 0.  1.
          2   -1    0    0  501    0  0.00000000000E+00 -0.00000000000E+00 -0.22254811188E+04  0.22254811188E+04  0.00000000000E+00 0.  1.
         35    2    1    2    0    0  0.71054273576E-14 -0.14210854715E-13 -0.22168637945E+04  0.22340984431E+04  0.27696709231E+03 0.  0.
         25    2    3    3    0    0  0.41368220398E+02 -0.41471176235E+02 -0.11118379615E+04  0.11204148477E+04  0.12535784853E+03 0.  0.
         25    2    3    3    0    0 -0.41368220398E+02  0.41471176235E+02 -0.11050258330E+04  0.11136835954E+04  0.12560999571E+03 0.  0.
          5    1    4    4  502    0  0.72389253401E+02  0.14369512685E+02 -0.63618789657E+03  0.64047155803E+03  0.47000000000E+01 0. -1.
         -5    1    4    4    0  502 -0.31021033003E+02 -0.55840688920E+02 -0.47565006494E+03  0.47994328967E+03  0.47000000000E+01 0. -1.
          5    1    5    5  503    0 -0.45146685368E+01  0.53296552855E+02 -0.18002975989E+03  0.18786620032E+03  0.47000000000E+01 0.  1.
         -5    1    5    5    0  503 -0.36853551861E+02 -0.11825376620E+02 -0.92499607306E+03  0.92581739506E+03  0.47000000000E+01 0.  1.
<mgrwt>
<rscale>  0 0.27696709E+03</rscale>
<asrwt>0</asrwt>
<pdfrwt beam="1">  1        2 0.34238181E+00 0.27696709E+03</pdfrwt>
<pdfrwt beam="2">  1       -2 0.13257418E-02 0.27696709E+03</pdfrwt>
<totfact> 0.79772564E+03</totfact>
</mgrwt>
</event>
<event>
 9    1  0.7997082E-001  0.2708259E+03  0.7818608E-02  0.1100808E+00
          2   -1    0    0  501    0  0.00000000000E+00  0.00000000000E+00  0.65873052947E+03  0.65873052947E+03  0.00000000000E+00 0. -1.
         -2   -1    0    0    0  501 -0.00000000000E+00 -0.00000000000E+00 -0.27836371660E+02  0.27836371660E+02  0.00000000000E+00 0. -1.
         35    2    1    2    0    0  0.00000000000E+00  0.71054273576E-14  0.63089415781E+03  0.68656690113E+03  0.27082590601E+03 0.  0.
         25    2    3    3    0    0  0.10835105850E+02  0.39082157166E+02  0.23697532843E+03  0.27093003913E+03  0.12490382418E+03 0.  0.
         25    2    3    3    0    0 -0.10835105850E+02 -0.39082157166E+02  0.39391882938E+03  0.41563686200E+03  0.12624239533E+03 0.  0.
          5    1    4    4  502    0 -0.32133701883E+02 -0.71028546957E+01  0.91409144162E+01  0.34477117888E+02  0.47000000000E+01 0. -1.
         -5    1    4    4    0  502  0.42968807733E+02  0.46185011862E+02  0.22783441401E+03  0.23645292125E+03  0.47000000000E+01 0. -1.
          5    1    5    5  503    0 -0.52701132007E+01 -0.76613407472E+02  0.14839525313E+03  0.16715450771E+03  0.47000000000E+01 0.  1.
         -5    1    5    5    0  503 -0.55649926494E+01  0.37531250305E+02  0.24552357626E+03  0.24848235428E+03  0.47000000000E+01 0.  1.
<mgrwt>
<rscale>  0 0.27082591E+03</rscale>
<asrwt>0</asrwt>
<pdfrwt beam="1">  1        2 0.10134315E+00 0.27082591E+03</pdfrwt>
<pdfrwt beam="2">  1       -2 0.42825192E-02 0.27082591E+03</pdfrwt>
<totfact> 0.11134771E+04</totfact>
</mgrwt>
</event>
<event>
 9    1  0.7997082E-001  0.2875872E+03  0.7818608E-02  0.1091616E+00
          1   -1    0    0  501    0  0.00000000000E+00  0.00000000000E+00  0.76201204195E+03  0.76201204195E+03  0.00000000000E+00 0. -1.
         -1   -1    0    0    0  501 -0.00000000000E+00 -0.00000000000E+00 -0.27134213766E+02  0.27134213766E+02  0.00000000000E+00 0. -1.
         35    2    1    2    0    0  0.71054273576E-14  0.00000000000E+00  0.73487782818E+03  0.78914625571E+03  0.28758718774E+03 0.  0.
         25    2    3    3    0    0 -0.61335184749E+02  0.81821937466E+01  0.26897336027E+03  0.30293129563E+03  0.12486692176E+03 0.  0.
         25    2    3    3    0    0  0.61335184749E+02 -0.81821937466E+01  0.46590446791E+03  0.48621496009E+03  0.12453538056E+03 0.  0.
          5    1    4    4  502    0 -0.54346248966E+02 -0.18878858561E+02  0.26844910910E+03  0.27458503283E+03  0.47000000000E+01 0. -1.
         -5    1    4    4    0  502 -0.69889357830E+01  0.27061052307E+02  0.52425117407E+00  0.28346262799E+02  0.47000000000E+01 0. -1.
          5    1    5    5  503    0  0.35437711808E+02  0.50269278037E+02  0.12564914726E+03  0.13997367588E+03  0.47000000000E+01 0.  1.
         -5    1    5    5    0  503  0.25897472941E+02 -0.58451471784E+02  0.34025532065E+03  0.34624128421E+03  0.47000000000E+01 0.  1.
<mgrwt>
<rscale>  0 0.28758719E+03</rscale>
<asrwt>0</asrwt>
<pdfrwt beam="1">  1        1 0.11723261E+00 0.28758719E+03</pdfrwt>
<pdfrwt beam="2">  1       -1 0.41744950E-02 0.28758719E+03</pdfrwt>
<totfact> 0.57248782E+03</totfact>
</mgrwt>
</event>
<event>
 9    1  0.7997082E-001  0.2742959E+03  0.7818608E-02  0.1098846E+00
         -2   -1    0    0    0  501 -0.00000000000E+00  0.00000000000E+00  0.53992299879E+02  0.53992299879E+02  0.00000000000E+00 0. -1.
          2   -1    0    0  501    0  0.00000000000E+00 -0.00000000000E+00 -0.34837497419E+03  0.34837497419E+03  0.00000000000E+00 0. -1.
         35    2    1    2    0    0  0.00000000000E+00 -0.14210854715E-13 -0.29438267431E+03  0.40236727407E+03  0.27429594293E+03 0.  0.
         25    2    3    3    0    0  0.51972725998E+01 -0.46365756206E+02 -0.99828943059E+02  0.16682593945E+03  0.12525286908E+03 0.  0.
         25    2    3    3    0    0 -0.51972725998E+01  0.46365756206E+02 -0.19455373125E+03  0.23554133461E+03  0.12430515266E+03 0.  0.
          5    1    4    4  502    0  0.32773075595E+01  0.42580502386E+02 -0.20799718683E+02  0.47734245837E+02  0.47000000000E+01 0. -1.
         -5    1    4    4    0  502  0.19199650403E+01 -0.88946258592E+02 -0.79029224376E+02  0.11909169362E+03  0.47000000000E+01 0. -1.
          5    1    5    5  503    0  0.62998808687E+01  0.82309579767E+01  0.16868412570E+02  0.20348722585E+02  0.47000000000E+01 0.  1.
         -5    1    5    5    0  503 -0.11497153468E+02  0.38134798229E+02 -0.21142214382E+03  0.21519261203E+03  0.47000000000E+01 0.  1.
<mgrwt>
<rscale>  0 0.27429594E+03</rscale>
<asrwt>0</asrwt>
<pdfrwt beam="1">  1        2 0.53596149E-01 0.27429594E+03</pdfrwt>
<pdfrwt beam="2">  1       -2 0.83065078E-02 0.27429594E+03</pdfrwt>
<totfact> 0.82175428E+03</totfact>
</mgrwt>
</event>
<event>
 9    1  0.7997082E-001  0.2719416E+03  0.7818608E-02  0.1100173E+00
          1   -1    0    0  501    0  0.00000000000E+00  0.00000000000E+00  0.27727001352E+03  0.27727001352E+03  0.00000000000E+00 0.  1.
         -1   -1    0    0    0  501 -0.00000000000E+00 -0.00000000000E+00 -0.66678901601E+02  0.66678901601E+02  0.00000000000E+00 0.  1.
         35    2    1    2    0    0  0.35527136788E-14  0.00000000000E+00  0.21059111192E+03  0.34394891512E+03  0.27194161100E+03 0.  0.
         25    2    3    3    0    0 -0.31888146467E+02 -0.31262626017E+02  0.82137903736E+02  0.15900518101E+03  0.12861495514E+03 0.  0.
         25    2    3    3    0    0  0.31888146467E+02  0.31262626017E+02  0.12845320818E+03  0.18494373411E+03  0.12533855123E+03 0.  0.
          5    1    4    4  502    0  0.39646478773E+02  0.23037574212E+02  0.24687661323E+02  0.52289040211E+02  0.47000000000E+01 0.  1.
         -5    1    4    4    0  502 -0.71534625240E+02 -0.54300200229E+02  0.57450242413E+02  0.10671614080E+03  0.47000000000E+01 0.  1.
          5    1    5    5  503    0 -0.99438681570E+01 -0.44537360896E+02  0.52030834184E+02  0.69366812925E+02  0.47000000000E+01 0.  1.
         -5    1    5    5    0  503  0.41832014624E+02  0.75799986914E+02  0.76422374000E+02  0.11557692119E+03  0.47000000000E+01 0.  1.
<mgrwt>
<rscale>  0 0.27194161E+03</rscale>
<asrwt>0</asrwt>
<pdfrwt beam="1">  1        1 0.42656924E-01 0.27194161E+03</pdfrwt>
<pdfrwt beam="2">  1       -1 0.10258293E-01 0.27194161E+03</pdfrwt>
<totfact> 0.56309506E+03</totfact>
</mgrwt>
</event>
<event>
 9    1  0.7997082E-001  0.3007320E+03  0.7818608E-02  0.1084875E+00
          1   -1    0    0  501    0  0.00000000000E+00  0.00000000000E+00  0.33686559107E+02  0.33686559107E+02  0.00000000000E+00 0. -1.
         -1   -1    0    0    0  501 -0.00000000000E+00 -0.00000000000E+00 -0.67118556102E+03  0.67118556102E+03  0.00000000000E+00 0. -1.
         35    2    1    2    0    0  0.00000000000E+00 -0.71054273576E-14 -0.63749900192E+03  0.70487212013E+03  0.30073198748E+03 0.  0.
         25    2    3    3    0    0  0.68178428173E+02 -0.10756010837E+02 -0.42965629862E+03  0.45283102100E+03  0.12524938643E+03 0.  0.
         25    2    3    3    0    0 -0.68178428173E+02  0.10756010837E+02 -0.20784270330E+03  0.25204109913E+03  0.12474829257E+03 0.  0.
          5    1    4    4  502    0  0.19519648809E+02  0.45250570177E+02 -0.29401657996E+03  0.29815511078E+03  0.47000000000E+01 0. -1.
         -5    1    4    4    0  502  0.48658779364E+02 -0.56006581014E+02 -0.13563971866E+03  0.15467591022E+03  0.47000000000E+01 0. -1.
          5    1    5    5  503    0 -0.46004887176E+02  0.28850757020E+02 -0.14318082396E+02  0.56355242065E+02  0.47000000000E+01 0.  1.
         -5    1    5    5    0  503 -0.22173540998E+02 -0.18094746184E+02 -0.19352462090E+03  0.19568585706E+03  0.47000000000E+01 0.  1.
<mgrwt>
<rscale>  0 0.30073199E+03</rscale>
<asrwt>0</asrwt>
<pdfrwt beam="1">  1        1 0.51825473E-02 0.30073199E+03</pdfrwt>
<pdfrwt beam="2">  1       -1 0.10325932E+00 0.30073199E+03</pdfrwt>
<totfact> 0.14867976E+03</totfact>
</mgrwt>
</event>
<event>
 9    1  0.7997082E-001  0.2741588E+03  0.7818608E-02  0.1098923E+00
          2   -1    0    0  501    0  0.00000000000E+00  0.00000000000E+00  0.38541623278E+03  0.38541623278E+03  0.00000000000E+00 0.  1.
         -2   -1    0    0    0  501 -0.00000000000E+00 -0.00000000000E+00 -0.48754474305E+02  0.48754474305E+02  0.00000000000E+00 0.  1.
         35    2    1    2    0    0 -0.71054273576E-14  0.71054273576E-14  0.33666175848E+03  0.43417070709E+03  0.27415882855E+03 0.  0.
         25    2    3    3    0    0 -0.33851270304E+02  0.37421430649E+02  0.12226324799E+03  0.18089994215E+03  0.12341075839E+03 0.  0.
         25    2    3    3    0    0  0.33851270304E+02 -0.37421430649E+02  0.21439851049E+03  0.25327076494E+03  0.12503234422E+03 0.  0.
          5    1    4    4  502    0 -0.81458910015E+01  0.52598514125E+02 -0.15470881581E+01  0.53455053177E+02  0.47000000000E+01 0. -1.
         -5    1    4    4    0  502 -0.25705379303E+02 -0.15177083476E+02  0.12381033615E+03  0.12744488897E+03  0.47000000000E+01 0. -1.
          5    1    5    5  503    0  0.29622299825E+02  0.10256994465E+01 -0.50132710210E+01  0.30426231981E+02  0.47000000000E+01 0. -1.
         -5    1    5    5    0  503  0.42289704798E+01 -0.38447130095E+02  0.21941178151E+03  0.22284453296E+03  0.47000000000E+01 0. -1.
<mgrwt>
<rscale>  0 0.27415883E+03</rscale>
<asrwt>0</asrwt>
<pdfrwt beam="1">  1        2 0.59294803E-01 0.27415883E+03</pdfrwt>
<pdfrwt beam="2">  1       -2 0.75006886E-02 0.27415883E+03</pdfrwt>
<totfact> 0.86387333E+03</totfact>
</mgrwt>
</event>
<event>
 9    1  0.7997082E-001  0.2783351E+03  0.7818608E-02  0.1096602E+00
          1   -1    0    0  501    0  0.00000000000E+00  0.00000000000E+00  0.10820592307E+04  0.10820592307E+04  0.00000000000E+00 0.  1.
         -1   -1    0    0    0  501 -0.00000000000E+00 -0.00000000000E+00 -0.17898846025E+02  0.17898846025E+02  0.00000000000E+00 0.  1.
         35    2    1    2    0    0  0.00000000000E+00  0.71054273576E-14  0.10641603847E+04  0.10999580767E+04  0.27833513296E+03 0.  0.
         25    2    3    3    0    0 -0.23664120538E+02  0.52697652167E+02  0.59892897265E+03  0.61472331948E+03  0.12582452893E+03 0.  0.
         25    2    3    3    0    0  0.23664120538E+02 -0.52697652167E+02  0.46523141200E+03  0.48523475723E+03  0.12520171630E+03 0.  0.
          5    1    4    4  502    0  0.29138167040E+02  0.75125281311E+02  0.33419460275E+03  0.34380366952E+03  0.47000000000E+01 0.  1.
         -5    1    4    4    0  502 -0.52802287578E+02 -0.22427629145E+02  0.26473436990E+03  0.27091964995E+03  0.47000000000E+01 0.  1.
          5    1    5    5  503    0 -0.35935416062E+02 -0.32306124447E+02  0.35404331027E+03  0.35735667806E+03  0.47000000000E+01 0. -1.
         -5    1    5    5    0  503  0.59599536601E+02 -0.20391527720E+02  0.11118810173E+03  0.12787807917E+03  0.47000000000E+01 0. -1.
<mgrwt>
<rscale>  0 0.27833513E+03</rscale>
<asrwt>0</asrwt>
<pdfrwt beam="1">  1        1 0.16647060E+00 0.27833513E+03</pdfrwt>
<pdfrwt beam="2">  1       -1 0.27536695E-02 0.27833513E+03</pdfrwt>
<totfact> 0.59528529E+03</totfact>
</mgrwt>
</event>
<event>
 9    1  0.7997082E-001  0.2741728E+03  0.7818608E-02  0.1098915E+00
         -2   -1    0    0    0  501 -0.00000000000E+00  0.00000000000E+00  0.67468102111E+02  0.67468102111E+02  0.00000000000E+00 0. -1.
          2   -1    0    0  501    0  0.00000000000E+00 -0.00000000000E+00 -0.27854168491E+03  0.27854168491E+03  0.00000000000E+00 0. -1.
         35    2    1    2    0    0  0.00000000000E+00  0.00000000000E+00 -0.21107358280E+03  0.34600978702E+03  0.27417278377E+03 0.  0.
         25    2    3    3    0    0 -0.51849328547E+02  0.19824882809E+02 -0.10436386205E+03  0.17256111491E+03  0.12571453308E+03 0.  0.
         25    2    3    3    0    0  0.51849328547E+02 -0.19824882809E+02 -0.10670972075E+03  0.17344867212E+03  0.12496438896E+03 0.  0.
          5    1    4    4  502    0 -0.25281143077E+02  0.27055163312E+02 -0.12962990179E+03  0.13489669935E+03  0.47000000000E+01 0.  1.
         -5    1    4    4    0  502 -0.26568185469E+02 -0.72302805022E+01  0.25266039739E+02  0.37664415559E+02  0.47000000000E+01 0.  1.
          5    1    5    5  503    0  0.59359920142E+02  0.38303953205E+02 -0.30248471307E+02  0.76992551372E+02  0.47000000000E+01 0.  1.
         -5    1    5    5    0  503 -0.75105915953E+01 -0.58128836014E+02 -0.76461249443E+02  0.96456120743E+02  0.47000000000E+01 0.  1.
<mgrwt>
<rscale>  0 0.27417278E+03</rscale>
<asrwt>0</asrwt>
<pdfrwt beam="1">  1        2 0.42852568E-01 0.27417278E+03</pdfrwt>
<pdfrwt beam="2">  1       -2 0.10379708E-01 0.27417278E+03</pdfrwt>
<totfact> 0.73520539E+03</totfact>
</mgrwt>
</event>
<event>
 9    1  0.7997082E-001  0.2649897E+03  0.7818608E-02  0.1104182E+00
         -2   -1    0    0    0  501 -0.00000000000E+00  0.00000000000E+00  0.31052551064E+02  0.31052551064E+02  0.00000000000E+00 0.  1.
          2   -1    0    0  501    0  0.00000000000E+00 -0.00000000000E+00 -0.56532843636E+03  0.56532843636E+03  0.00000000000E+00 0.  1.
         35    2    1    2    0    0  0.00000000000E+00 -0.71054273576E-14 -0.53427588529E+03  0.59638098742E+03  0.26498973669E+03 0.  0.
         25    2    3    3    0    0 -0.22429070612E+02 -0.36783053996E+02 -0.27164130372E+03  0.30215117452E+03  0.12510107158E+03 0.  0.
         25    2    3    3    0    0  0.22429070612E+02  0.36783053996E+02 -0.26263458158E+03  0.29422981290E+03  0.12545199516E+03 0.  0.
          5    1    4    4  502    0 -0.22664477390E+02  0.44250773725E+02 -0.12379735007E+03  0.13349038690E+03  0.47000000000E+01 0.  1.
         -5    1    4    4    0  502  0.23540677792E+00 -0.81033827721E+02 -0.14784395365E+03  0.16866078762E+03  0.47000000000E+01 0.  1.
          5    1    5    5  503    0  0.41870340768E+02 -0.27306974916E+02 -0.18451300039E+03  0.19122221008E+03  0.47000000000E+01 0. -1.
         -5    1    5    5    0  503 -0.19441270155E+02  0.64090028912E+02 -0.78121581185E+02  0.10300760282E+03  0.47000000000E+01 0. -1.
<mgrwt>
<rscale>  0 0.26498974E+03</rscale>
<asrwt>0</asrwt>
<pdfrwt beam="1">  1        2 0.86973596E-01 0.26498974E+03</pdfrwt>
<pdfrwt beam="2">  1       -2 0.47773161E-02 0.26498974E+03</pdfrwt>
<totfact> 0.11270927E+04</totfact>
</mgrwt>
</event>
<event>
 9    1  0.7997082E-001  0.2782101E+03  0.7818608E-02  0.1096671E+00
         -1   -1    0    0    0  501 -0.00000000000E+00  0.00000000000E+00  0.26502455752E+03  0.26502455752E+03  0.00000000000E+00 0.  1.
          1   -1    0    0  501    0  0.00000000000E+00 -0.00000000000E+00 -0.73012919778E+02  0.73012919778E+02  0.00000000000E+00 0.  1.
         35    2    1    2    0    0  0.71054273576E-14 -0.17763568394E-14  0.19201163774E+03  0.33803747730E+03  0.27821011310E+03 0.  0.
         25    2    3    3    0    0  0.47735007494E+02  0.53464847999E+01  0.13572052855E+03  0.19067180681E+03  0.12501384005E+03 0.  0.
         25    2    3    3    0    0 -0.47735007494E+02 -0.53464847999E+01  0.56291109192E+02  0.14736567049E+03  0.12743914635E+03 0.  0.
          5    1    4    4  502    0  0.80154349621E+02  0.27018928611E+02  0.12306490584E+03  0.14940483029E+03  0.47000000000E+01 0. -1.
         -5    1    4    4    0  502 -0.32419342127E+02 -0.21672443811E+02  0.12655622713E+02  0.41266976518E+02  0.47000000000E+01 0. -1.
          5    1    5    5  503    0 -0.90000121826E+02  0.10632672840E+02  0.36500300300E+02  0.97813279172E+02  0.47000000000E+01 0.  1.
         -5    1    5    5    0  503  0.42265114332E+02 -0.15979157640E+02  0.19790808892E+02  0.49552391314E+02  0.47000000000E+01 0.  1.
<mgrwt>
<rscale>  0 0.27821011E+03</rscale>
<asrwt>0</asrwt>
<pdfrwt beam="1">  1        1 0.11232757E-01 0.27821011E+03</pdfrwt>
<pdfrwt beam="2">  1       -1 0.40773008E-01 0.27821011E+03</pdfrwt>
<totfact> 0.32584859E+03</totfact>
</mgrwt>
</event>
<event>
 9    1  0.7997082E-001  0.2698071E+03  0.7818608E-02  0.1101390E+00
         -2   -1    0    0    0  501 -0.00000000000E+00  0.00000000000E+00  0.14063039158E+02  0.14063039158E+02  0.00000000000E+00 0. -1.
          2   -1    0    0  501    0  0.00000000000E+00 -0.00000000000E+00 -0.12940991050E+04  0.12940991050E+04  0.00000000000E+00 0. -1.
         35    2    1    2    0    0  0.14210854715E-13  0.71054273576E-14 -0.12800360659E+04  0.13081621442E+04  0.26980708952E+03 0.  0.
         25    2    3    3    0    0  0.34214286404E+02 -0.25122775117E+02 -0.71784052883E+03  0.72982653145E+03  0.12469951863E+03 0.  0.
         25    2    3    3    0    0 -0.34214286404E+02  0.25122775117E+02 -0.56219553706E+03  0.57833561276E+03  0.12886616263E+03 0.  0.
          5    1    4    4  502    0  0.50533199583E+02 -0.39248159052E+02 -0.69534753817E+03  0.69830101753E+03  0.47000000000E+01 0. -1.
         -5    1    4    4    0  502 -0.16318913179E+02  0.14125383935E+02 -0.22492990663E+02  0.31525513915E+02  0.47000000000E+01 0. -1.
          5    1    5    5  503    0  0.61211631324E+01 -0.49126774944E+02 -0.17062580133E+03  0.17772496374E+03  0.47000000000E+01 0.  1.
         -5    1    5    5    0  503 -0.40335449537E+02  0.74249550061E+02 -0.39156973573E+03  0.40061064902E+03  0.47000000000E+01 0.  1.
<mgrwt>
<rscale>  0 0.26980709E+03</rscale>
<asrwt>0</asrwt>
<pdfrwt beam="1">  1        2 0.19909227E+00 0.26980709E+03</pdfrwt>
<pdfrwt beam="2">  1       -2 0.21635434E-02 0.26980709E+03</pdfrwt>
<totfact> 0.12152618E+04</totfact>
</mgrwt>
</event>
<event>
 9    1  0.7997082E-001  0.2752265E+03  0.7818608E-02  0.1098325E+00
          2   -1    0    0  501    0  0.00000000000E+00  0.00000000000E+00  0.62700089128E+03  0.62700089128E+03  0.00000000000E+00 0.  1.
         -2   -1    0    0    0  501 -0.00000000000E+00 -0.00000000000E+00 -0.30203159256E+02  0.30203159256E+02  0.00000000000E+00 0.  1.
         35    2    1    2    0    0  0.00000000000E+00  0.00000000000E+00  0.59679773203E+03  0.65720405054E+03  0.27522650870E+03 0.  0.
         25    2    3    3    0    0 -0.40664301586E+02  0.39612344441E+02  0.27870992824E+03  0.31074825136E+03  0.12515002345E+03 0.  0.
         25    2    3    3    0    0  0.40664301586E+02 -0.39612344441E+02  0.31808780379E+03  0.34645579918E+03  0.12501618539E+03 0.  0.
          5    1    4    4  502    0  0.25866105414E+02 -0.18087174302E+02  0.20586674927E+02  0.37975024267E+02  0.47000000000E+01 0.  1.
         -5    1    4    4    0  502 -0.66530407000E+02  0.57699518743E+02  0.25812325331E+03  0.27277322709E+03  0.47000000000E+01 0.  1.
          5    1    5    5  503    0  0.16501027029E+02  0.27189416690E+02  0.23434848588E+03  0.23654355012E+03  0.47000000000E+01 0. -1.
         -5    1    5    5    0  503  0.24163274557E+02 -0.66801761132E+02  0.83739317910E+02  0.10991224905E+03  0.47000000000E+01 0. -1.
<mgrwt>
<rscale>  0 0.27522651E+03</rscale>
<asrwt>0</asrwt>
<pdfrwt beam="1">  1        2 0.96461666E-01 0.27522651E+03</pdfrwt>
<pdfrwt beam="2">  1       -2 0.46466403E-02 0.27522651E+03</pdfrwt>
<totfact> 0.10440938E+04</totfact>
</mgrwt>
</event>
<event>
 9    1  0.7997082E-001  0.2747489E+03  0.7818608E-02  0.1098592E+00
          2   -1    0    0  501    0  0.00000000000E+00  0.00000000000E+00  0.19435763980E+03  0.19435763980E+03  0.00000000000E+00 0. -1.
         -2   -1    0    0    0  501 -0.00000000000E+00 -0.00000000000E+00 -0.97097998426E+02  0.97097998426E+02  0.00000000000E+00 0. -1.
         35    2    1    2    0    0  0.35527136788E-14 -0.71054273576E-14  0.97259641370E+02  0.29145563822E+03  0.27474888755E+03 0.  0.
         25    2    3    3    0    0  0.94573528624E+01 -0.52214707229E+02  0.22339102245E+02  0.13615090660E+03  0.12337834779E+03 0.  0.
         25    2    3    3    0    0 -0.94573528624E+01  0.52214707229E+02  0.74920539124E+02  0.15530473162E+03  0.12526234593E+03 0.  0.
          5    1    4    4  502    0 -0.48744501821E+02 -0.52766343614E+02 -0.39820243662E+01  0.72098959731E+02  0.47000000000E+01 0.  1.
         -5    1    4    4    0  502  0.58201854683E+02  0.55163638513E+00  0.26321126612E+02  0.64051946866E+02  0.47000000000E+01 0.  1.
          5    1    5    5  503    0 -0.38109488519E+02  0.18806931273E+02 -0.22489303682E+02  0.48310377345E+02  0.47000000000E+01 0.  1.
         -5    1    5    5    0  503  0.28652135657E+02  0.33407775956E+02  0.97409842807E+02  0.10699435428E+03  0.47000000000E+01 0.  1.
<mgrwt>
<rscale>  0 0.27474889E+03</rscale>
<asrwt>0</asrwt>
<pdfrwt beam="1">  1        2 0.29901175E-01 0.27474889E+03</pdfrwt>
<pdfrwt beam="2">  1       -2 0.14938154E-01 0.27474889E+03</pdfrwt>
<totfact> 0.60212343E+03</totfact>
</mgrwt>
</event>
<event>
 9    1  0.7997082E-001  0.2748116E+03  0.7818608E-02  0.1098557E+00
          2   -1    0    0  501    0  0.00000000000E+00  0.00000000000E+00  0.15550392436E+03  0.15550392436E+03  0.00000000000E+00 0. -1.
         -2   -1    0    0    0  501 -0.00000000000E+00 -0.00000000000E+00 -0.12141403367E+03  0.12141403367E+03  0.00000000000E+00 0. -1.
         35    2    1    2    0    0  0.00000000000E+00  0.00000000000E+00  0.34089890696E+02  0.27691795803E+03  0.27481163519E+03 0.  0.
         25    2    3    3    0    0 -0.24807077047E+02 -0.38322813844E+02 -0.18349989830E+02  0.13337917556E+03  0.12397279223E+03 0.  0.
         25    2    3    3    0    0  0.24807077047E+02  0.38322813844E+02  0.52439880526E+02  0.14353878247E+03  0.12557631891E+03 0.  0.
          5    1    4    4  502    0  0.25794571528E+01  0.35586975386E+02 -0.37660982439E+02  0.52091515764E+02  0.47000000000E+01 0. -1.
         -5    1    4    4    0  502 -0.27386534200E+02 -0.73909789230E+02  0.19310992609E+02  0.81287659796E+02  0.47000000000E+01 0. -1.
          5    1    5    5  503    0  0.71663002120E+02  0.29453652076E+02  0.77387191760E+01  0.78006930897E+02  0.47000000000E+01 0.  1.
         -5    1    5    5    0  503 -0.46855925073E+02  0.88691617679E+01  0.44701161350E+02  0.65531851576E+02  0.47000000000E+01 0.  1.
<mgrwt>
<rscale>  0 0.27481164E+03</rscale>
<asrwt>0</asrwt>
<pdfrwt beam="1">  1        2 0.23923681E-01 0.27481164E+03</pdfrwt>
<pdfrwt beam="2">  1       -2 0.18679082E-01 0.27481164E+03</pdfrwt>
<totfact> 0.53070976E+03</totfact>
</mgrwt>
</event>
<event>
 9    1  0.7997082E-001  0.2723820E+03  0.7818608E-02  0.1099924E+00
         -2   -1    0    0    0  501 -0.00000000000E+00  0.00000000000E+00  0.60130647897E+02  0.60130647897E+02  0.00000000000E+00 0. -1.
          2   -1    0    0  501    0  0.00000000000E+00 -0.00000000000E+00 -0.30846137090E+03  0.30846137090E+03  0.00000000000E+00 0. -1.
         35    2    1    2    0    0 -0.71054273576E-14  0.17763568394E-14 -0.24833072300E+03  0.36859201880E+03  0.27238195302E+03 0.  0.
         25    2    3    3    0    0  0.51784414765E+02  0.32385768218E+01 -0.95823028094E+02  0.16593122055E+03  0.12513593907E+03 0.  0.
         25    2    3    3    0    0 -0.51784414765E+02 -0.32385768218E+01 -0.15250769491E+03  0.20266079825E+03  0.12296620734E+03 0.  0.
          5    1    4    4  502    0 -0.35680572126E+02  0.25807268613E+02 -0.39751152635E+02  0.59509347806E+02  0.47000000000E+01 0. -1.
         -5    1    4    4    0  502  0.87464986891E+02 -0.22568691791E+02 -0.56071875459E+02  0.10642187274E+03  0.47000000000E+01 0. -1.
          5    1    5    5  503    0 -0.82708278323E+02 -0.13181670416E+02 -0.14718517739E+03  0.16941069087E+03  0.47000000000E+01 0. -1.
         -5    1    5    5    0  503  0.30923863558E+02  0.99430935943E+01 -0.53225175161E+01  0.33250107373E+02  0.47000000000E+01 0. -1.
<mgrwt>
<rscale>  0 0.27238195E+03</rscale>
<asrwt>0</asrwt>
<pdfrwt beam="1">  1        2 0.47455594E-01 0.27238195E+03</pdfrwt>
<pdfrwt beam="2">  1       -2 0.92508692E-02 0.27238195E+03</pdfrwt>
<totfact> 0.79065698E+03</totfact>
</mgrwt>
</event>
<event>
 9    1  0.7997082E-001  0.2796111E+03  0.7818608E-02  0.1095902E+00
         -3   -1    0    0    0  501 -0.00000000000E+00  0.00000000000E+00  0.11461716302E+03  0.11461716302E+03  0.00000000000E+00 0. -1.
          3   -1    0    0  501    0  0.00000000000E+00 -0.00000000000E+00 -0.17052933491E+03  0.17052933491E+03  0.00000000000E+00 0. -1.
         35    2    1    2    0    0  0.00000000000E+00  0.00000000000E+00 -0.55912171886E+02  0.28514649793E+03  0.27961107688E+03 0.  0.
         25    2    3    3    0    0 -0.16903400581E+02 -0.42504756371E+02  0.10312060027E+02  0.13609416797E+03  0.12776112362E+03 0.  0.
         25    2    3    3    0    0  0.16903400581E+02  0.42504756371E+02 -0.66224231913E+02  0.14905232995E+03  0.12545345315E+03 0.  0.
          5    1    4    4  502    0  0.53307127344E+02 -0.33391223277E+02  0.15486640239E+02  0.64950362921E+02  0.47000000000E+01 0. -1.
         -5    1    4    4    0  502 -0.70210527925E+02 -0.91135330934E+01 -0.51745802118E+01  0.71143805052E+02  0.47000000000E+01 0. -1.
          5    1    5    5  503    0 -0.27431209306E+02 -0.31558088668E+02 -0.41594955107E+02  0.59165991031E+02  0.47000000000E+01 0. -1.
         -5    1    5    5    0  503  0.44334609886E+02  0.74062845039E+02 -0.24629276807E+02  0.89886338923E+02  0.47000000000E+01 0. -1.
<mgrwt>
<rscale>  0 0.27961108E+03</rscale>
<asrwt>0</asrwt>
<pdfrwt beam="1">  1        3 0.26235282E-01 0.27961108E+03</pdfrwt>
<pdfrwt beam="2">  1       -3 0.17633410E-01 0.27961108E+03</pdfrwt>
<totfact> 0.98213830E+02</totfact>
</mgrwt>
</event>
<event>
 9    1  0.7997082E-001  0.2751583E+03  0.7818608E-02  0.1098363E+00
          2   -1    0    0  501    0  0.00000000000E+00  0.00000000000E+00  0.57709361342E+03  0.57709361342E+03  0.00000000000E+00 0.  1.
         -2   -1    0    0    0  501 -0.00000000000E+00 -0.00000000000E+00 -0.32798883474E+02  0.32798883474E+02  0.00000000000E+00 0.  1.
         35    2    1    2    0    0  0.00000000000E+00  0.00000000000E+00  0.54429472995E+03  0.60989249690E+03  0.27515832664E+03 0.  0.
         25    2    3    3    0    0  0.96743143481E+01  0.55083299388E+02  0.23585788487E+03  0.27248617894E+03  0.12446691781E+03 0.  0.
         25    2    3    3    0    0 -0.96743143481E+01 -0.55083299388E+02  0.30843684508E+03  0.33740631795E+03  0.12482777641E+03 0.  0.
          5    1    4    4  502    0 -0.56885440252E+02  0.34128102929E+02  0.11317269172E+03  0.13126625185E+03  0.47000000000E+01 0.  1.
         -5    1    4    4    0  502  0.66559754600E+02  0.20955196458E+02  0.12268519315E+03  0.14121992710E+03  0.47000000000E+01 0.  1.
          5    1    5    5  503    0  0.57157212163E+01  0.35896534840E+02  0.14601878003E+03  0.15054834706E+03  0.47000000000E+01 0. -1.
         -5    1    5    5    0  503 -0.15390035564E+02 -0.90979834228E+02  0.16241806505E+03  0.18685797089E+03  0.47000000000E+01 0. -1.
<mgrwt>
<rscale>  0 0.27515833E+03</rscale>
<asrwt>0</asrwt>
<pdfrwt beam="1">  1        2 0.88783626E-01 0.27515833E+03</pdfrwt>
<pdfrwt beam="2">  1       -2 0.50459825E-02 0.27515833E+03</pdfrwt>
<totfact> 0.10145627E+04</totfact>
</mgrwt>
</event>
<event>
 9    1  0.7997082E-001  0.2770748E+03  0.7818608E-02  0.1097297E+00
         -2   -1    0    0    0  501 -0.00000000000E+00  0.00000000000E+00  0.29334813774E+02  0.29334813774E+02  0.00000000000E+00 0.  1.
          2   -1    0    0  501    0  0.00000000000E+00 -0.00000000000E+00 -0.65426038687E+03  0.65426038687E+03  0.00000000000E+00 0.  1.
         35    2    1    2    0    0 -0.26645352591E-14  0.71054273576E-14 -0.62492557310E+03  0.68359520065E+03  0.27707476687E+03 0.  0.
         25    2    3    3    0    0  0.42150324488E+01 -0.49954391963E+02 -0.38605574016E+03  0.40911203152E+03  0.12577921945E+03 0.  0.
         25    2    3    3    0    0 -0.42150324488E+01  0.49954391963E+02 -0.23886983294E+03  0.27448316913E+03  0.12557469997E+03 0.  0.
          5    1    4    4  502    0 -0.50507567214E+02 -0.18830410473E+01 -0.24595270536E+03  0.25113618510E+03  0.47000000000E+01 0. -1.
         -5    1    4    4    0  502  0.54722599663E+02 -0.48071350916E+02 -0.14010303480E+03  0.15797584642E+03  0.47000000000E+01 0. -1.
          5    1    5    5  503    0 -0.72121261243E+00  0.25910180276E+02  0.70909507155E+01  0.27280563990E+02  0.47000000000E+01 0. -1.
         -5    1    5    5    0  503 -0.34938198364E+01  0.24044211687E+02 -0.24596078365E+03  0.24720260514E+03  0.47000000000E+01 0. -1.
<mgrwt>
<rscale>  0 0.27707477E+03</rscale>
<asrwt>0</asrwt>
<pdfrwt beam="1">  1        2 0.10065545E+00 0.27707477E+03</pdfrwt>
<pdfrwt beam="2">  1       -2 0.45130482E-02 0.27707477E+03</pdfrwt>
<totfact> 0.10379503E+04</totfact>
</mgrwt>
</event>
<event>
 9    1  0.7997082E-001  0.2754740E+03  0.7818608E-02  0.1098187E+00
         -1   -1    0    0    0  501 -0.00000000000E+00  0.00000000000E+00  0.80445445006E+03  0.80445445006E+03  0.00000000000E+00 0. -1.
          1   -1    0    0  501    0  0.00000000000E+00 -0.00000000000E+00 -0.23583044810E+02  0.23583044810E+02  0.00000000000E+00 0. -1.
         35    2    1    2    0    0  0.00000000000E+00  0.00000000000E+00  0.78087140525E+03  0.82803749487E+03  0.27547403030E+03 0.  0.
         25    2    3    3    0    0  0.42560704350E+02 -0.34576971624E+02  0.27641687989E+03  0.30797136834E+03  0.12422999522E+03 0.  0.
         25    2    3    3    0    0 -0.42560704350E+02  0.34576971624E+02  0.50445452536E+03  0.52006612652E+03  0.11396239414E+03 0.  0.
          5    1    4    4  502    0  0.60079300348E+02 -0.68751464030E+02  0.23024773711E+03  0.24773452844E+03  0.47000000000E+01 0. -1.
         -5    1    4    4    0  502 -0.17518595998E+02  0.34174492406E+02  0.46169142775E+02  0.60236839903E+02  0.47000000000E+01 0. -1.
          5    1    5    5  503    0 -0.35765186971E+02  0.11223826777E+02  0.40253778443E+02  0.55204887153E+02  0.47000000000E+01 0.  1.
         -5    1    5    5    0  503 -0.67955173797E+01  0.23353144847E+02  0.46420074692E+03  0.46486123937E+03  0.47000000000E+01 0.  1.
<mgrwt>
<rscale>  0 0.27547403E+03</rscale>
<asrwt>0</asrwt>
<pdfrwt beam="1">  1        1 0.36281613E-02 0.27547403E+03</pdfrwt>
<pdfrwt beam="2">  1       -1 0.12376220E+00 0.27547403E+03</pdfrwt>
<totfact> 0.16001768E+03</totfact>
</mgrwt>
</event>
<event>
 9    1  0.7997082E-001  0.2749993E+03  0.7818608E-02  0.1098452E+00
         -2   -1    0    0    0  501 -0.00000000000E+00  0.00000000000E+00  0.23291338659E+02  0.23291338659E+02  0.00000000000E+00 0.  1.
          2   -1    0    0  501    0  0.00000000000E+00 -0.00000000000E+00 -0.81172459181E+03  0.81172459181E+03  0.00000000000E+00 0.  1.
         35    2    1    2    0    0  0.00000000000E+00  0.00000000000E+00 -0.78843325315E+03  0.83501593047E+03  0.27499928993E+03 0.  0.
         25    2    3    3    0    0  0.14385729674E+02 -0.49937461955E+02 -0.33128126176E+03  0.35824710969E+03  0.12606751321E+03 0.  0.
         25    2    3    3    0    0 -0.14385729674E+02  0.49937461955E+02 -0.45715199139E+03  0.47676882077E+03  0.12497946193E+03 0.  0.
          5    1    4    4  502    0 -0.38179955645E+01 -0.87193638742E+02 -0.27238749219E+03  0.28606702646E+03  0.47000000000E+01 0. -1.
         -5    1    4    4    0  502  0.18203725238E+02  0.37256176787E+02 -0.58893769567E+02  0.72180083230E+02  0.47000000000E+01 0. -1.
          5    1    5    5  503    0  0.46129517868E+02  0.55310316795E+02 -0.20416968678E+03  0.21655141321E+03  0.47000000000E+01 0.  1.
         -5    1    5    5    0  503 -0.60515247541E+02 -0.53728548398E+01 -0.25298230461E+03  0.26021740756E+03  0.47000000000E+01 0.  1.
<mgrwt>
<rscale>  0 0.27499929E+03</rscale>
<asrwt>0</asrwt>
<pdfrwt beam="1">  1        2 0.12488068E+00 0.27499929E+03</pdfrwt>
<pdfrwt beam="2">  1       -2 0.35832837E-02 0.27499929E+03</pdfrwt>
<totfact> 0.11258482E+04</totfact>
</mgrwt>
</event>
<event>
 9    1  0.7997082E-001  0.3088235E+03  0.7818608E-02  0.1080911E+00
          1   -1    0    0  501    0  0.00000000000E+00  0.00000000000E+00  0.10474459049E+04  0.10474459049E+04  0.00000000000E+00 0. -1.
         -1   -1    0    0    0  501 -0.00000000000E+00 -0.00000000000E+00 -0.22762984537E+02  0.22762984537E+02  0.00000000000E+00 0. -1.
         35    2    1    2    0    0  0.00000000000E+00 -0.71054273576E-14  0.10246829204E+04  0.10702088895E+04  0.30882354144E+03 0.  0.
         25    2    3    3    0    0  0.63359003051E+02  0.62548583933E+02  0.41544560563E+03  0.44195071775E+03  0.12164989542E+03 0.  0.
         25    2    3    3    0    0 -0.63359003051E+02 -0.62548583933E+02  0.60923731476E+03  0.62825817172E+03  0.12494613248E+03 0.  0.
          5    1    4    4  502    0  0.23731446784E+02 -0.17442657361E+02  0.26704911397E+03  0.26870941021E+03  0.47000000000E+01 0. -1.
         -5    1    4    4    0  502  0.39627556266E+02  0.79991241293E+02  0.14839649167E+03  0.17324130754E+03  0.47000000000E+01 0. -1.
          5    1    5    5  503    0  0.34220860084E+01 -0.37472817871E+02  0.47196925803E+03  0.47349022511E+03  0.47000000000E+01 0. -1.
         -5    1    5    5    0  503 -0.66781089059E+02 -0.25075766062E+02  0.13726805673E+03  0.15476794661E+03  0.47000000000E+01 0. -1.
<mgrwt>
<rscale>  0 0.30882354E+03</rscale>
<asrwt>0</asrwt>
<pdfrwt beam="1">  1        1 0.16114549E+00 0.30882354E+03</pdfrwt>
<pdfrwt beam="2">  1       -1 0.35019984E-02 0.30882354E+03</pdfrwt>
<totfact> 0.44280975E+03</totfact>
</mgrwt>
</event>
<event>
 9    1  0.7997082E-001  0.2704654E+03  0.7818608E-02  0.1101014E+00
          1   -1    0    0  501    0  0.00000000000E+00  0.00000000000E+00  0.48076913197E+03  0.48076913197E+03  0.00000000000E+00 0. -1.
         -1   -1    0    0    0  501 -0.00000000000E+00 -0.00000000000E+00 -0.38038794525E+02  0.38038794525E+02  0.00000000000E+00 0. -1.
         35    2    1    2    0    0  0.71054273576E-14 -0.35527136788E-14  0.44273033744E+03  0.51880792649E+03  0.27046536359E+03 0.  0.
         25    2    3    3    0    0 -0.41233187681E+02 -0.15558118451E+02  0.27958811279E+03  0.30933907998E+03  0.12481555502E+03 0.  0.
         25    2    3    3    0    0  0.41233187681E+02  0.15558118451E+02  0.16314222465E+03  0.20946884651E+03  0.12377229649E+03 0.  0.
          5    1    4    4  502    0  0.10842035104E+02 -0.54391986890E+02  0.67573786292E+02  0.87546242391E+02  0.47000000000E+01 0.  1.
         -5    1    4    4    0  502 -0.52075222785E+02  0.38833868439E+02  0.21201432650E+03  0.22179283759E+03  0.47000000000E+01 0.  1.
          5    1    5    5  503    0  0.56380607483E+02 -0.28158540790E+01  0.17391924278E+03  0.18291171352E+03  0.47000000000E+01 0.  1.
         -5    1    5    5    0  503 -0.15147419802E+02  0.18373972530E+02 -0.10777018123E+02  0.26557132993E+02  0.47000000000E+01 0.  1.
<mgrwt>
<rscale>  0 0.27046536E+03</rscale>
<asrwt>0</asrwt>
<pdfrwt beam="1">  1        1 0.73964478E-01 0.27046536E+03</pdfrwt>
<pdfrwt beam="2">  1       -1 0.58521226E-02 0.27046536E+03</pdfrwt>
<totfact> 0.65654283E+03</totfact>
</mgrwt>
</event>
<event>
 9    1  0.7997082E-001  0.2749025E+03  0.7818608E-02  0.1098506E+00
         -1   -1    0    0    0  501 -0.00000000000E+00  0.00000000000E+00  0.11662807468E+02  0.11662807468E+02  0.00000000000E+00 0. -1.
          1   -1    0    0  501    0  0.00000000000E+00 -0.00000000000E+00 -0.16199224342E+04  0.16199224342E+04  0.00000000000E+00 0. -1.
         35    2    1    2    0    0  0.00000000000E+00 -0.71054273576E-14 -0.16082596268E+04  0.16315852417E+04  0.27490248063E+03 0.  0.
         25    2    3    3    0    0  0.13885953128E+02  0.10447220217E+02 -0.11316042255E+04  0.11385295867E+04  0.12417541034E+03 0.  0.
         25    2    3    3    0    0 -0.13885953128E+02 -0.10447220217E+02 -0.47665540128E+03  0.49305565501E+03  0.12490613781E+03 0.  0.
          5    1    4    4  502    0  0.74443802965E+01  0.64103992526E+02 -0.43119977240E+03  0.43602760736E+03  0.47000000000E+01 0. -1.
         -5    1    4    4    0  502  0.64415728315E+01 -0.53656772310E+02 -0.70040445308E+03  0.70250197934E+03  0.47000000000E+01 0. -1.
          5    1    5    5  503    0 -0.25746134773E+02  0.48494193231E+02 -0.32861300174E+03  0.33320135826E+03  0.47000000000E+01 0. -1.
         -5    1    5    5    0  503  0.11860181645E+02 -0.58941413448E+02 -0.14804239954E+03  0.15985429675E+03  0.47000000000E+01 0. -1.
<mgrwt>
<rscale>  0 0.27490248E+03</rscale>
<asrwt>0</asrwt>
<pdfrwt beam="1">  1        1 0.24921892E+00 0.27490248E+03</pdfrwt>
<pdfrwt beam="2">  1       -1 0.17942775E-02 0.27490248E+03</pdfrwt>
<totfact> 0.47937759E+03</totfact>
</mgrwt>
</event>
<event>
 9    1  0.7997082E-001  0.2779182E+03  0.7818608E-02  0.1096831E+00
         -1   -1    0    0    0  501 -0.00000000000E+00  0.00000000000E+00  0.21127164500E+02  0.21127164500E+02  0.00000000000E+00 0. -1.
          1   -1    0    0  501    0  0.00000000000E+00 -0.00000000000E+00 -0.91397150361E+03  0.91397150361E+03  0.00000000000E+00 0. -1.
         35    2    1    2    0    0  0.00000000000E+00  0.14210854715E-13 -0.89284433911E+03  0.93509866811E+03  0.27791816281E+03 0.  0.
         25    2    3    3    0    0  0.23940471560E+02  0.35829373947E+02 -0.58906359817E+03  0.60353166862E+03  0.12408731652E+03 0.  0.
         25    2    3    3    0    0 -0.23940471560E+02 -0.35829373947E+02 -0.30378074093E+03  0.33156699949E+03  0.12568630144E+03 0.  0.
          5    1    4    4  502    0 -0.94461202438E+01 -0.31366527154E+02 -0.37859781691E+03  0.38004142561E+03  0.47000000000E+01 0.  1.
         -5    1    4    4    0  502  0.33386591803E+02  0.67195901101E+02 -0.21046578126E+03  0.22349024301E+03  0.47000000000E+01 0.  1.
          5    1    5    5  503    0  0.15447721076E+02 -0.50874982995E+02 -0.27539891329E+03  0.28052370207E+03  0.47000000000E+01 0.  1.
         -5    1    5    5    0  503 -0.39388192636E+02  0.15045609048E+02 -0.28381827642E+02  0.51043297415E+02  0.47000000000E+01 0.  1.
<mgrwt>
<rscale>  0 0.27791816E+03</rscale>
<asrwt>0</asrwt>
<pdfrwt beam="1">  1        1 0.14061103E+00 0.27791816E+03</pdfrwt>
<pdfrwt beam="2">  1       -1 0.32503324E-02 0.27791816E+03</pdfrwt>
<totfact> 0.62316094E+03</totfact>
</mgrwt>
</event>
<event>
 9    1  0.7997082E-001  0.2786917E+03  0.7818608E-02  0.1096406E+00
          2   -1    0    0  501    0  0.00000000000E+00  0.00000000000E+00  0.79901942088E+03  0.79901942088E+03  0.00000000000E+00 0.  1.
         -2   -1    0    0    0  501 -0.00000000000E+00 -0.00000000000E+00 -0.24301366833E+02  0.24301366833E+02  0.00000000000E+00 0.  1.
         35    2    1    2    0    0 -0.71054273576E-14  0.71054273576E-14  0.77471805405E+03  0.82332078772E+03  0.27869168666E+03 0.  0.
         25    2    3    3    0    0 -0.21335969610E+02  0.52485218722E+02  0.45998057559E+03  0.47975958646E+03  0.12400487531E+03 0.  0.
         25    2    3    3    0    0  0.21335969610E+02 -0.52485218722E+02  0.31473747846E+03  0.34356120125E+03  0.12555754408E+03 0.  0.
          5    1    4    4  502    0  0.14165438770E+02 -0.35474381205E+02  0.92090792780E+02  0.99809295620E+02  0.47000000000E+01 0.  1.
         -5    1    4    4    0  502 -0.35501408379E+02  0.87959599927E+02  0.36788978281E+03  0.37995029084E+03  0.47000000000E+01 0.  1.
          5    1    5    5  503    0  0.37897913288E+02 -0.78019479705E+02  0.29367329947E+03  0.30625053121E+03  0.47000000000E+01 0. -1.
         -5    1    5    5    0  503 -0.16561943679E+02  0.25534260983E+02  0.21064178987E+02  0.37310670039E+02  0.47000000000E+01 0. -1.
<mgrwt>
<rscale>  0 0.27869169E+03</rscale>
<asrwt>0</asrwt>
<pdfrwt beam="1">  1        2 0.12292604E+00 0.27869169E+03</pdfrwt>
<pdfrwt beam="2">  1       -2 0.37386724E-02 0.27869169E+03</pdfrwt>
<totfact> 0.10784199E+04</totfact>
</mgrwt>
</event>
<event>
 9    1  0.7997082E-001  0.2804707E+03  0.7818608E-02  0.1095432E+00
         -2   -1    0    0    0  501 -0.00000000000E+00  0.00000000000E+00  0.33329561742E+02  0.33329561742E+02  0.00000000000E+00 0. -1.
          2   -1    0    0  501    0  0.00000000000E+00 -0.00000000000E+00 -0.59004528227E+03  0.59004528227E+03  0.00000000000E+00 0. -1.
         35    2    1    2    0    0  0.71054273576E-14  0.71054273576E-14 -0.55671572053E+03  0.62337484401E+03  0.28047068058E+03 0.  0.
         25    2    3    3    0    0 -0.60522142693E+02 -0.58519892626E+01 -0.31632034602E+03  0.34548505849E+03  0.12491672747E+03 0.  0.
         25    2    3    3    0    0  0.60522142693E+02  0.58519892626E+01 -0.24039537451E+03  0.27788978552E+03  0.12544170469E+03 0.  0.
          5    1    4    4  502    0 -0.44358655550E+02 -0.61595825729E+02 -0.13382758583E+03  0.15392741405E+03  0.47000000000E+01 0.  1.
         -5    1    4    4    0  502 -0.16163487143E+02  0.55743836466E+02 -0.18249276019E+03  0.19155764444E+03  0.47000000000E+01 0.  1.
          5    1    5    5  503    0 -0.69447252289E+01 -0.45668189159E+02 -0.13327113603E+03  0.14112795048E+03  0.47000000000E+01 0. -1.
         -5    1    5    5    0  503  0.67466867922E+02  0.51520178422E+02 -0.10712423848E+03  0.13676183504E+03  0.47000000000E+01 0. -1.
<mgrwt>
<rscale>  0 0.28047068E+03</rscale>
<asrwt>0</asrwt>
<pdfrwt beam="1">  1        2 0.90776199E-01 0.28047068E+03</pdfrwt>
<pdfrwt beam="2">  1       -2 0.51276248E-02 0.28047068E+03</pdfrwt>
<totfact> 0.96573698E+03</totfact>
</mgrwt>
</event>
<event>
 9    1  0.7997082E-001  0.2685556E+03  0.7818608E-02  0.1102109E+00
          1   -1    0    0  501    0  0.00000000000E+00  0.00000000000E+00  0.20512160699E+04  0.20512160699E+04  0.00000000000E+00 0.  1.
         -1   -1    0    0    0  501 -0.00000000000E+00 -0.00000000000E+00 -0.87901637141E+01  0.87901637141E+01  0.00000000000E+00 0.  1.
         35    2    1    2    0    0  0.00000000000E+00  0.00000000000E+00  0.20424259062E+04  0.20600062337E+04  0.26855558134E+03 0.  0.
         25    2    3    3    0    0  0.16476312734E+02  0.50198856814E+02  0.10649521422E+04  0.10733581285E+04  0.12322018020E+03 0.  0.
         25    2    3    3    0    0 -0.16476312734E+02 -0.50198856814E+02  0.97747376403E+03  0.98664810513E+03  0.12340230901E+03 0.  0.
          5    1    4    4  502    0  0.59363810415E+02  0.13035063013E+02  0.29113169319E+03  0.29744533554E+03  0.47000000000E+01 0.  1.
         -5    1    4    4    0  502 -0.42887497680E+02  0.37163793802E+02  0.77382044900E+03  0.77591279298E+03  0.47000000000E+01 0.  1.
          5    1    5    5  503    0  0.49437108898E+02 -0.46532634075E+02  0.49550087697E+03  0.50015249959E+03  0.47000000000E+01 0. -1.
         -5    1    5    5    0  503 -0.65913421633E+02 -0.36662227392E+01  0.48197288706E+03  0.48649560553E+03  0.47000000000E+01 0. -1.
<mgrwt>
<rscale>  0 0.26855558E+03</rscale>
<asrwt>0</asrwt>
<pdfrwt beam="1">  1        1 0.31557132E+00 0.26855558E+03</pdfrwt>
<pdfrwt beam="2">  1       -1 0.13523345E-02 0.26855558E+03</pdfrwt>
<totfact> 0.37926537E+03</totfact>
</mgrwt>
</event>
<event>
 9    1  0.7997082E-001  0.2783897E+03  0.7818608E-02  0.1096572E+00
          3   -1    0    0  501    0  0.00000000000E+00  0.00000000000E+00  0.17709647383E+03  0.17709647383E+03  0.00000000000E+00 0.  1.
         -3   -1    0    0    0  501 -0.00000000000E+00 -0.00000000000E+00 -0.10940481244E+03  0.10940481244E+03  0.00000000000E+00 0.  1.
         35    2    1    2    0    0  0.00000000000E+00  0.00000000000E+00  0.67691661389E+02  0.28650128627E+03  0.27838970170E+03 0.  0.
         25    2    3    3    0    0  0.22911979456E+02  0.57926834778E+02  0.40133730987E+02  0.14577092387E+03  0.12553074880E+03 0.  0.
         25    2    3    3    0    0 -0.22911979456E+02 -0.57926834778E+02  0.27557930402E+02  0.14073036240E+03  0.12314673517E+03 0.  0.
          5    1    4    4  502    0 -0.28776022535E+02  0.76862098724E+02  0.99242982466E+01  0.82803522805E+02  0.47000000000E+01 0.  1.
         -5    1    4    4    0  502  0.51688001992E+02 -0.18935263946E+02  0.30209432740E+02  0.62967401067E+02  0.47000000000E+01 0.  1.
          5    1    5    5  503    0 -0.73703324182E+02 -0.29270670425E+02  0.13868264130E+02  0.80643480162E+02  0.47000000000E+01 0.  1.
         -5    1    5    5    0  503  0.50791344726E+02 -0.28656164353E+02  0.13689666272E+02  0.60086882238E+02  0.47000000000E+01 0.  1.
<mgrwt>
<rscale>  0 0.27838970E+03</rscale>
<asrwt>0</asrwt>
<pdfrwt beam="1">  1        3 0.27245611E-01 0.27838970E+03</pdfrwt>
<pdfrwt beam="2">  1       -3 0.16831510E-01 0.27838970E+03</pdfrwt>
<totfact> 0.99349814E+02</totfact>
</mgrwt>
</event>
<event>
 9    1  0.7997082E-001  0.2724032E+03  0.7818608E-02  0.1099912E+00
         -2   -1    0    0    0  501 -0.00000000000E+00  0.00000000000E+00  0.34661241896E+02  0.34661241896E+02  0.00000000000E+00 0. -1.
          2   -1    0    0  501    0  0.00000000000E+00 -0.00000000000E+00 -0.53520503539E+03  0.53520503539E+03  0.00000000000E+00 0. -1.
         35    2    1    2    0    0  0.00000000000E+00  0.35527136788E-14 -0.50054379349E+03  0.56986627728E+03  0.27240316588E+03 0.  0.
         25    2    3    3    0    0  0.17752340953E+02 -0.14157587678E+02 -0.34903676830E+03  0.37245082444E+03  0.12797409153E+03 0.  0.
         25    2    3    3    0    0 -0.17752340953E+02  0.14157587678E+02 -0.15150702519E+03  0.19741545285E+03  0.12451063987E+03 0.  0.
          5    1    4    4  502    0  0.51319118632E+02  0.28258456707E+02 -0.27153463968E+03  0.27782250243E+03  0.47000000000E+01 0.  1.
         -5    1    4    4    0  502 -0.33566777679E+02 -0.42416044385E+02 -0.77502128620E+02  0.94628322006E+02  0.47000000000E+01 0.  1.
          5    1    5    5  503    0  0.43095188659E+02 -0.85999412878E+01 -0.15884902943E+02  0.46963543491E+02  0.47000000000E+01 0.  1.
         -5    1    5    5    0  503 -0.60847529612E+02  0.22757528966E+02 -0.13562212225E+03  0.15045190935E+03  0.47000000000E+01 0.  1.
<mgrwt>
<rscale>  0 0.27240317E+03</rscale>
<asrwt>0</asrwt>
<pdfrwt beam="1">  1        2 0.82339239E-01 0.27240317E+03</pdfrwt>
<pdfrwt beam="2">  1       -2 0.53324986E-02 0.27240317E+03</pdfrwt>
<totfact> 0.10161151E+04</totfact>
</mgrwt>
</event>
<event>
 9    1  0.7997082E-001  0.2895564E+03  0.7818608E-02  0.1090581E+00
          2   -1    0    0  501    0  0.00000000000E+00  0.00000000000E+00  0.68158862641E+03  0.68158862641E+03  0.00000000000E+00 0. -1.
         -2   -1    0    0    0  501 -0.00000000000E+00 -0.00000000000E+00 -0.30752753694E+02  0.30752753694E+02  0.00000000000E+00 0. -1.
         35    2    1    2    0    0  0.14210854715E-13  0.71054273576E-14  0.65083587272E+03  0.71234138011E+03  0.28955639968E+03 0.  0.
         25    2    3    3    0    0  0.50019885315E+02  0.52133039015E+02  0.29794496531E+03  0.33102785216E+03  0.12485348962E+03 0.  0.
         25    2    3    3    0    0 -0.50019885315E+02 -0.52133039015E+02  0.35289090741E+03  0.38131352795E+03  0.12509265117E+03 0.  0.
          5    1    4    4  502    0  0.67640517173E+02  0.47578545521E+02  0.30081718756E+03  0.31201286495E+03  0.47000000000E+01 0.  1.
         -5    1    4    4    0  502 -0.17620631858E+02  0.45544934941E+01 -0.28722222584E+01  0.19014987214E+02  0.47000000000E+01 0.  1.
          5    1    5    5  503    0 -0.39429956809E+02  0.32093687089E+02  0.19957013701E+03  0.20599770831E+03  0.47000000000E+01 0. -1.
         -5    1    5    5    0  503 -0.10589928507E+02 -0.84226726104E+02  0.15332077040E+03  0.17531581963E+03  0.47000000000E+01 0. -1.
<mgrwt>
<rscale>  0 0.28955640E+03</rscale>
<asrwt>0</asrwt>
<pdfrwt beam="1">  1        2 0.10485978E+00 0.28955640E+03</pdfrwt>
<pdfrwt beam="2">  1       -2 0.47311934E-02 0.28955640E+03</pdfrwt>
<totfact> 0.92145820E+03</totfact>
</mgrwt>
</event>
<event>
 9    1  0.7997082E-001  0.2718758E+03  0.7818608E-02  0.1100211E+00
         -2   -1    0    0    0  501 -0.00000000000E+00  0.00000000000E+00  0.50693220574E+02  0.50693220574E+02  0.00000000000E+00 0. -1.
          2   -1    0    0  501    0  0.00000000000E+00 -0.00000000000E+00 -0.36452827944E+03  0.36452827944E+03  0.00000000000E+00 0. -1.
         35    2    1    2    0    0  0.00000000000E+00  0.00000000000E+00 -0.31383505886E+03  0.41522150001E+03  0.27187579867E+03 0.  0.
         25    2    3    3    0    0 -0.24688814571E+02  0.35781705357E+02 -0.11898823802E+03  0.17997938870E+03  0.12784565524E+03 0.  0.
         25    2    3    3    0    0  0.24688814571E+02 -0.35781705357E+02 -0.19484682084E+03  0.23524211131E+03  0.12443351374E+03 0.  0.
          5    1    4    4  502    0 -0.67853790561E+02  0.50207744575E+02 -0.53343557148E+02  0.99962891104E+02  0.47000000000E+01 0.  1.
         -5    1    4    4    0  502  0.43164975990E+02 -0.14426039218E+02 -0.65644680877E+02  0.80016497594E+02  0.47000000000E+01 0.  1.
          5    1    5    5  503    0 -0.30987726530E+02 -0.12517157872E+02 -0.27786504081E+01  0.33863392252E+02  0.47000000000E+01 0.  1.
         -5    1    5    5    0  503  0.55676541101E+02 -0.23264547484E+02 -0.19206817043E+03  0.20137871906E+03  0.47000000000E+01 0.  1.
<mgrwt>
<rscale>  0 0.27187580E+03</rscale>
<asrwt>0</asrwt>
<pdfrwt beam="1">  1        2 0.56081275E-01 0.27187580E+03</pdfrwt>
<pdfrwt beam="2">  1       -2 0.77989568E-02 0.27187580E+03</pdfrwt>
<totfact> 0.86321673E+03</totfact>
</mgrwt>
</event>
<event>
 9    1  0.7997082E-001  0.2755266E+03  0.7818608E-02  0.1098158E+00
         -1   -1    0    0    0  501 -0.00000000000E+00  0.00000000000E+00  0.47008452915E+02  0.47008452915E+02  0.00000000000E+00 0. -1.
          1   -1    0    0  501    0  0.00000000000E+00 -0.00000000000E+00 -0.40372995488E+03  0.40372995488E+03  0.00000000000E+00 0. -1.
         35    2    1    2    0    0  0.17763568394E-14 -0.71054273576E-14 -0.35672150197E+03  0.45073840780E+03  0.27552655462E+03 0.  0.
         25    2    3    3    0    0  0.15107210769E+02 -0.53252568307E+02 -0.14890076831E+03  0.20191020405E+03  0.12462835892E+03 0.  0.
         25    2    3    3    0    0 -0.15107210769E+02  0.53252568307E+02 -0.20782073365E+03  0.24882820375E+03  0.12514772789E+03 0.  0.
          5    1    4    4  502    0  0.21083824191E+02 -0.92198670609E+02 -0.11977621042E+03  0.15268776339E+03  0.47000000000E+01 0.  1.
         -5    1    4    4    0  502 -0.59766134220E+01  0.38946102302E+02 -0.29124557891E+02  0.49222440663E+02  0.47000000000E+01 0.  1.
          5    1    5    5  503    0 -0.40513205517E+02 -0.24153454915E+02 -0.11961123443E+03  0.12866097547E+03  0.47000000000E+01 0.  1.
         -5    1    5    5    0  503  0.25405994748E+02  0.77406023222E+02 -0.88209499221E+02  0.12016722828E+03  0.47000000000E+01 0.  1.
<mgrwt>
<rscale>  0 0.27552655E+03</rscale>
<asrwt>0</asrwt>
<pdfrwt beam="1">  1        1 0.62112298E-01 0.27552655E+03</pdfrwt>
<pdfrwt beam="2">  1       -1 0.72320700E-02 0.27552655E+03</pdfrwt>
<totfact> 0.59836010E+03</totfact>
</mgrwt>
</event>
<event>
 9    1  0.7997082E-001  0.2771821E+03  0.7818608E-02  0.1097238E+00
         -2   -1    0    0    0  501 -0.00000000000E+00  0.00000000000E+00  0.86361063932E+02  0.86361063932E+02  0.00000000000E+00 0. -1.
          2   -1    0    0  501    0  0.00000000000E+00 -0.00000000000E+00 -0.22240905894E+03  0.22240905894E+03  0.00000000000E+00 0. -1.
         35    2    1    2    0    0 -0.35527136788E-14 -0.71054273576E-14 -0.13604799501E+03  0.30877012287E+03  0.27718212755E+03 0.  0.
         25    2    3    3    0    0  0.23568136160E+02  0.43331174224E+02 -0.85236889211E+02  0.15907024172E+03  0.12491984156E+03 0.  0.
         25    2    3    3    0    0 -0.23568136160E+02 -0.43331174224E+02 -0.50811105798E+02  0.14969988116E+03  0.13189100896E+03 0.  0.
          5    1    4    4  502    0 -0.24045925814E+02  0.73015523478E+02 -0.58633548361E+02  0.96795951415E+02  0.47000000000E+01 0. -1.
         -5    1    4    4    0  502  0.47614061974E+02 -0.29684349254E+02 -0.26603340849E+02  0.62274290302E+02  0.47000000000E+01 0. -1.
          5    1    5    5  503    0 -0.43360111665E+02 -0.48899251972E+02 -0.86336839776E+02  0.10838531279E+03  0.47000000000E+01 0.  1.
         -5    1    5    5    0  503  0.19791975505E+02  0.55680777485E+01  0.35525733978E+02  0.41314568361E+02  0.47000000000E+01 0.  1.
<mgrwt>
<rscale>  0 0.27718213E+03</rscale>
<asrwt>0</asrwt>
<pdfrwt beam="1">  1        2 0.34216778E-01 0.27718213E+03</pdfrwt>
<pdfrwt beam="2">  1       -2 0.13286318E-01 0.27718213E+03</pdfrwt>
<totfact> 0.63008139E+03</totfact>
</mgrwt>
</event>
<event>
 9    1  0.7997082E-001  0.2746874E+03  0.7818608E-02  0.1098626E+00
          2   -1    0    0  501    0  0.00000000000E+00  0.00000000000E+00  0.93689647781E+02  0.93689647781E+02  0.00000000000E+00 0. -1.
         -2   -1    0    0    0  501 -0.00000000000E+00 -0.00000000000E+00 -0.20133807113E+03  0.20133807113E+03  0.00000000000E+00 0. -1.
         35    2    1    2    0    0  0.35527136788E-14  0.00000000000E+00 -0.10764842334E+03  0.29502771891E+03  0.27468740757E+03 0.  0.
         25    2    3    3    0    0  0.30389202343E+02  0.13118485353E+02 -0.10714575886E+02  0.12969005616E+03  0.12493642485E+03 0.  0.
         25    2    3    3    0    0 -0.30389202343E+02 -0.13118485353E+02 -0.96933847458E+02  0.16533766275E+03  0.12978741720E+03 0.  0.
          5    1    4    4  502    0 -0.41098562432E+01 -0.78562010514E+01  0.53094330345E+02  0.54034329163E+02  0.47000000000E+01 0.  1.
         -5    1    4    4    0  502  0.34499058586E+02  0.20974686405E+02 -0.63808906231E+02  0.75655726997E+02  0.47000000000E+01 0.  1.
          5    1    5    5  503    0  0.41677649761E+02 -0.36478545521E+02 -0.56812036235E+02  0.79482125249E+02  0.47000000000E+01 0.  1.
         -5    1    5    5    0  503 -0.72066852104E+02  0.23360060168E+02 -0.40121811224E+02  0.85855537498E+02  0.47000000000E+01 0.  1.
<mgrwt>
<rscale>  0 0.27468741E+03</rscale>
<asrwt>0</asrwt>
<pdfrwt beam="1">  1        2 0.14413792E-01 0.27468741E+03</pdfrwt>
<pdfrwt beam="2">  1       -2 0.30975088E-01 0.27468741E+03</pdfrwt>
<totfact> 0.39204488E+03</totfact>
</mgrwt>
</event>
<event>
 9    1  0.7997082E-001  0.2695034E+03  0.7818608E-02  0.1101564E+00
         -1   -1    0    0    0  501 -0.00000000000E+00  0.00000000000E+00  0.96601862972E+03  0.96601862972E+03  0.00000000000E+00 0. -1.
          1   -1    0    0  501    0  0.00000000000E+00 -0.00000000000E+00 -0.18796761480E+02  0.18796761480E+02  0.00000000000E+00 0. -1.
         35    2    1    2    0    0 -0.35527136788E-14 -0.71054273576E-14  0.94722186824E+03  0.98481539120E+03  0.26950340828E+03 0.  0.
         25    2    3    3    0    0 -0.76169192148E+01  0.42485231123E+01  0.29467763349E+03  0.32032502894E+03  0.12528826392E+03 0.  0.
         25    2    3    3    0    0  0.76169192148E+01 -0.42485231123E+01  0.65254423475E+03  0.66449036227E+03  0.12512951622E+03 0.  0.
          5    1    4    4  502    0 -0.34266167338E+02  0.45975244738E+02  0.23829884495E+03  0.24514551364E+03  0.47000000000E+01 0. -1.
         -5    1    4    4    0  502  0.26649248124E+02 -0.41726721626E+02  0.56378788540E+02  0.75179515298E+02  0.47000000000E+01 0. -1.
          5    1    5    5  503    0 -0.34115169500E+02  0.30977797768E+02  0.11237467685E+03  0.12154680885E+03  0.47000000000E+01 0. -1.
         -5    1    5    5    0  503  0.41732088715E+02 -0.35226320880E+02  0.54016955790E+03  0.54294355341E+03  0.47000000000E+01 0. -1.
<mgrwt>
<rscale>  0 0.26950341E+03</rscale>
<asrwt>0</asrwt>
<pdfrwt beam="1">  1        1 0.28918102E-02 0.26950341E+03</pdfrwt>
<pdfrwt beam="2">  1       -1 0.14861821E+00 0.26950341E+03</pdfrwt>
<totfact> 0.13893592E+03</totfact>
</mgrwt>
</event>
<event>
 9    1  0.7997082E-001  0.2759226E+03  0.7818608E-02  0.1097937E+00
          2   -1    0    0  501    0  0.00000000000E+00  0.00000000000E+00  0.27913090190E+04  0.27913090190E+04  0.00000000000E+00 0.  1.
         -2   -1    0    0    0  501 -0.00000000000E+00 -0.00000000000E+00 -0.68187774901E+01  0.68187774901E+01  0.00000000000E+00 0.  1.
         35    2    1    2    0    0  0.53290705182E-14 -0.71054273576E-14  0.27844902416E+04  0.27981277965E+04  0.27592256238E+03 0.  0.
         25    2    3    3    0    0  0.13134610676E+02 -0.54998511883E+02  0.12469375114E+04  0.12545282538E+04  0.12566076472E+03 0.  0.
         25    2    3    3    0    0 -0.13134610676E+02  0.54998511883E+02  0.15375527301E+04  0.15435995428E+04  0.12423283061E+03 0.  0.
          5    1    4    4  502    0 -0.23006888868E+01  0.12559413074E+01  0.10247077572E+04  0.10247218882E+04  0.47000000000E+01 0. -1.
         -5    1    4    4    0  502  0.15435299563E+02 -0.56254453191E+02  0.22222975423E+03  0.22980636554E+03  0.47000000000E+01 0. -1.
          5    1    5    5  503    0 -0.58356165334E+02  0.43091933037E+02  0.53132686369E+03  0.53627668493E+03  0.47000000000E+01 0.  1.
         -5    1    5    5    0  503  0.45221554657E+02  0.11906578846E+02  0.10062258664E+04  0.10073228578E+04  0.47000000000E+01 0.  1.
<mgrwt>
<rscale>  0 0.27592256E+03</rscale>
<asrwt>0</asrwt>
<pdfrwt beam="1">  1        2 0.42943124E+00 0.27592256E+03</pdfrwt>
<pdfrwt beam="2">  1       -2 0.10490449E-02 0.27592256E+03</pdfrwt>
<totfact> 0.54803633E+03</totfact>
</mgrwt>
</event>
<event>
 9    1  0.7997082E-001  0.2589605E+03  0.7818608E-02  0.1107769E+00
          1   -1    0    0  501    0  0.00000000000E+00  0.00000000000E+00  0.22796580875E+02  0.22796580875E+02  0.00000000000E+00 0. -1.
         -1   -1    0    0    0  501 -0.00000000000E+00 -0.00000000000E+00 -0.73542337089E+03  0.73542337089E+03  0.00000000000E+00 0. -1.
         35    2    1    2    0    0  0.17763568394E-14  0.00000000000E+00 -0.71262679002E+03  0.75821995177E+03  0.25896052480E+03 0.  0.
         25    2    3    3    0    0 -0.14944023194E+02 -0.96215448600E+01 -0.44002791534E+03  0.45776919437E+03  0.12494867379E+03 0.  0.
         25    2    3    3    0    0  0.14944023194E+02  0.96215448600E+01 -0.27259887468E+03  0.30045075739E+03  0.12507842815E+03 0.  0.
          5    1    4    4  502    0  0.48328869251E+02 -0.24731250348E+02 -0.13006678310E+03  0.14102046806E+03  0.47000000000E+01 0. -1.
         -5    1    4    4    0  502 -0.63272892445E+02  0.15109705488E+02 -0.30996113224E+03  0.31674872631E+03  0.47000000000E+01 0. -1.
          5    1    5    5  503    0 -0.98349553700E+01 -0.49613418835E+02 -0.18430733673E+03  0.19117924063E+03  0.47000000000E+01 0.  1.
         -5    1    5    5    0  503  0.24778978564E+02  0.59234963696E+02 -0.88291537944E+02  0.10927151676E+03  0.47000000000E+01 0.  1.
<mgrwt>
<rscale>  0 0.25896052E+03</rscale>
<asrwt>0</asrwt>
<pdfrwt beam="1">  1        1 0.35071661E-02 0.25896052E+03</pdfrwt>
<pdfrwt beam="2">  1       -1 0.11314206E+00 0.25896052E+03</pdfrwt>
<totfact> 0.20723433E+03</totfact>
</mgrwt>
</event>
<event>
 9    1  0.7997082E-001  0.2820403E+03  0.7818608E-02  0.1094580E+00
         -1   -1    0    0    0  501 -0.00000000000E+00  0.00000000000E+00  0.39065541315E+02  0.39065541315E+02  0.00000000000E+00 0.  1.
          1   -1    0    0  501    0  0.00000000000E+00 -0.00000000000E+00 -0.50905940833E+03  0.50905940833E+03  0.00000000000E+00 0.  1.
         35    2    1    2    0    0  0.00000000000E+00  0.00000000000E+00 -0.46999386701E+03  0.54812494964E+03  0.28204029037E+03 0.  0.
         25    2    3    3    0    0  0.35411978174E+02 -0.54530879348E+02 -0.21156303548E+03  0.25407139652E+03  0.12476270094E+03 0.  0.
         25    2    3    3    0    0 -0.35411978174E+02  0.54530879348E+02 -0.25843083153E+03  0.29405355312E+03  0.12431159406E+03 0.  0.
          5    1    4    4  502    0  0.59661296762E+02 -0.50348345750E+02 -0.55229947200E+02  0.95743737752E+02  0.47000000000E+01 0.  1.
         -5    1    4    4    0  502 -0.24249318587E+02 -0.41825335981E+01 -0.15633308828E+03  0.15832765877E+03  0.47000000000E+01 0.  1.
          5    1    5    5  503    0 -0.63854087923E+01 -0.33971198374E+02 -0.13451816820E+03  0.13896777807E+03  0.47000000000E+01 0.  1.
         -5    1    5    5    0  503 -0.29026569382E+02  0.88502077721E+02 -0.12391266333E+03  0.15508577505E+03  0.47000000000E+01 0.  1.
<mgrwt>
<rscale>  0 0.28204029E+03</rscale>
<asrwt>0</asrwt>
<pdfrwt beam="1">  1        1 0.78316828E-01 0.28204029E+03</pdfrwt>
<pdfrwt beam="2">  1       -1 0.60100836E-02 0.28204029E+03</pdfrwt>
<totfact> 0.58538797E+03</totfact>
</mgrwt>
</event>
<event>
 9    1  0.7997082E-001  0.2778259E+03  0.7818608E-02  0.1096882E+00
          1   -1    0    0  501    0  0.00000000000E+00  0.00000000000E+00  0.18939308948E+04  0.18939308948E+04  0.00000000000E+00 0. -1.
         -1   -1    0    0    0  501 -0.00000000000E+00 -0.00000000000E+00 -0.10188762856E+02  0.10188762856E+02  0.00000000000E+00 0. -1.
         35    2    1    2    0    0 -0.35527136788E-14 -0.71054273576E-14  0.18837421319E+04  0.19041196576E+04  0.27782593653E+03 0.  0.
         25    2    3    3    0    0 -0.21720529611E+02  0.39131253051E+02  0.65065721511E+03  0.66389983438E+03  0.12411745305E+03 0.  0.
         25    2    3    3    0    0  0.21720529611E+02 -0.39131253051E+02  0.12330849168E+04  0.12402198232E+04  0.12507502362E+03 0.  0.
          5    1    4    4  502    0  0.17703453456E+02  0.75416589138E+02  0.41346368321E+03  0.42068442034E+03  0.47000000000E+01 0. -1.
         -5    1    4    4    0  502 -0.39423983067E+02 -0.36285336088E+02  0.23719353190E+03  0.24321541405E+03  0.47000000000E+01 0. -1.
          5    1    5    5  503    0  0.41101422646E+02 -0.13832281243E+02  0.11540204017E+04  0.11548445075E+04  0.47000000000E+01 0. -1.
         -5    1    5    5    0  503 -0.19380893035E+02 -0.25298971808E+02  0.79064515054E+02  0.85375315696E+02  0.47000000000E+01 0. -1.
<mgrwt>
<rscale>  0 0.27782594E+03</rscale>
<asrwt>0</asrwt>
<pdfrwt beam="1">  1        1 0.29137371E+00 0.27782594E+03</pdfrwt>
<pdfrwt beam="2">  1       -1 0.15675035E-02 0.27782594E+03</pdfrwt>
<totfact> 0.38701408E+03</totfact>
</mgrwt>
</event>
<event>
 9    1  0.7997082E-001  0.2759483E+03  0.7818608E-02  0.1097923E+00
          2   -1    0    0  501    0  0.00000000000E+00  0.00000000000E+00  0.71958771531E+03  0.71958771531E+03  0.00000000000E+00 0.  1.
         -2   -1    0    0    0  501 -0.00000000000E+00 -0.00000000000E+00 -0.26455239435E+02  0.26455239435E+02  0.00000000000E+00 0.  1.
         35    2    1    2    0    0 -0.71054273576E-14  0.00000000000E+00  0.69313247587E+03  0.74604295474E+03  0.27594829445E+03 0.  0.
         25    2    3    3    0    0  0.43561578886E+02 -0.10200485845E+02  0.24996649715E+03  0.28274709969E+03  0.12434231629E+03 0.  0.
         25    2    3    3    0    0 -0.43561578886E+02  0.10200485845E+02  0.44316597872E+03  0.46329585505E+03  0.12745706549E+03 0.  0.
          5    1    4    4  502    0  0.66820697942E+02 -0.23240850056E+02  0.24521131386E+03  0.25525638333E+03  0.47000000000E+01 0. -1.
         -5    1    4    4    0  502 -0.23259119056E+02  0.13040364211E+02  0.47551832909E+01  0.27490716363E+02  0.47000000000E+01 0. -1.
          5    1    5    5  503    0 -0.71386539700E+02  0.84816008300E+01  0.12813444399E+03  0.14699830387E+03  0.47000000000E+01 0.  1.
         -5    1    5    5    0  503  0.27824960814E+02  0.17188850152E+01  0.31503153472E+03  0.31629755118E+03  0.47000000000E+01 0.  1.
<mgrwt>
<rscale>  0 0.27594829E+03</rscale>
<asrwt>0</asrwt>
<pdfrwt beam="1">  1        2 0.11070579E+00 0.27594829E+03</pdfrwt>
<pdfrwt beam="2">  1       -2 0.40700374E-02 0.27594829E+03</pdfrwt>
<totfact> 0.10813293E+04</totfact>
</mgrwt>
</event>
<event>
 9    1  0.7997082E-001  0.2726586E+03  0.7818608E-02  0.1099768E+00
          2   -1    0    0  501    0  0.00000000000E+00  0.00000000000E+00  0.13429957511E+03  0.13429957511E+03  0.00000000000E+00 0.  1.
         -2   -1    0    0    0  501 -0.00000000000E+00 -0.00000000000E+00 -0.13838973411E+03  0.13838973411E+03  0.00000000000E+00 0.  1.
         35    2    1    2    0    0  0.14210854715E-13 -0.35527136788E-14 -0.40901590021E+01  0.27268930922E+03  0.27265863266E+03 0.  0.
         25    2    3    3    0    0 -0.53908689046E+02  0.20416533050E+02  0.11818542766E+01  0.13594553032E+03  0.12311299224E+03 0.  0.
         25    2    3    3    0    0  0.53908689046E+02 -0.20416533050E+02 -0.52720132787E+01  0.13674377890E+03  0.12388738987E+03 0.  0.
          5    1    4    4  502    0  0.25963061958E+02 -0.15360140485E+02 -0.30112108930E+02  0.42881739775E+02  0.47000000000E+01 0.  1.
         -5    1    4    4    0  502 -0.79871751003E+02  0.35776673535E+02  0.31293963206E+02  0.93063790546E+02  0.47000000000E+01 0.  1.
          5    1    5    5  503    0  0.66386950803E+02 -0.11548526940E+02 -0.53346176930E+02  0.86072645506E+02  0.47000000000E+01 0. -1.
         -5    1    5    5    0  503 -0.12478261757E+02 -0.88680061103E+01  0.48074163651E+02  0.50671133395E+02  0.47000000000E+01 0. -1.
<mgrwt>
<rscale>  0 0.27265863E+03</rscale>
<asrwt>0</asrwt>
<pdfrwt beam="1">  1        2 0.20661473E-01 0.27265863E+03</pdfrwt>
<pdfrwt beam="2">  1       -2 0.21290728E-01 0.27265863E+03</pdfrwt>
<totfact> 0.50071173E+03</totfact>
</mgrwt>
</event>
<event>
 9    1  0.7997082E-001  0.2763569E+03  0.7818608E-02  0.1097695E+00
          2   -1    0    0  501    0  0.00000000000E+00  0.00000000000E+00  0.13885606178E+03  0.13885606178E+03  0.00000000000E+00 0. -1.
         -2   -1    0    0    0  501 -0.00000000000E+00 -0.00000000000E+00 -0.13750419036E+03  0.13750419036E+03  0.00000000000E+00 0. -1.
         35    2    1    2    0    0  0.71054273576E-14  0.00000000000E+00  0.13518714263E+01  0.27636025214E+03  0.27635694564E+03 0.  0.
         25    2    3    3    0    0 -0.53041563583E+02  0.58759314303E+01  0.24449204709E+02  0.13786800435E+03  0.12474730047E+03 0.  0.
         25    2    3    3    0    0  0.53041563583E+02 -0.58759314303E+01 -0.23097333283E+02  0.13849224779E+03  0.12569280750E+03 0.  0.
          5    1    4    4  502    0 -0.88490443797E+02  0.22537630040E+02  0.33522724271E+02  0.97387712027E+02  0.47000000000E+01 0. -1.
         -5    1    4    4    0  502  0.35448880214E+02 -0.16661698610E+02 -0.90735195621E+01  0.40480292319E+02  0.47000000000E+01 0. -1.
          5    1    5    5  503    0 -0.21654191976E+02 -0.36946117218E+02  0.19102221528E+02  0.47126473185E+02  0.47000000000E+01 0. -1.
         -5    1    5    5    0  503  0.74695755559E+02  0.31070185788E+02 -0.42199554811E+02  0.91365774607E+02  0.47000000000E+01 0. -1.
<mgrwt>
<rscale>  0 0.27635695E+03</rscale>
<asrwt>0</asrwt>
<pdfrwt beam="1">  1        2 0.21362471E-01 0.27635695E+03</pdfrwt>
<pdfrwt beam="2">  1       -2 0.21154491E-01 0.27635695E+03</pdfrwt>
<totfact> 0.48764032E+03</totfact>
</mgrwt>
</event>
<event>
 9    1  0.7997082E-001  0.2767587E+03  0.7818608E-02  0.1097473E+00
          4   -1    0    0  501    0  0.00000000000E+00  0.00000000000E+00  0.17173086299E+03  0.17173086299E+03  0.00000000000E+00 0.  1.
         -4   -1    0    0    0  501 -0.00000000000E+00 -0.00000000000E+00 -0.11150493942E+03  0.11150493942E+03  0.00000000000E+00 0.  1.
         35    2    1    2    0    0  0.14210854715E-13  0.00000000000E+00  0.60225923574E+02  0.28323580241E+03  0.27675866363E+03 0.  0.
         25    2    3    3    0    0 -0.53612714118E+02  0.48431159329E+00  0.59975815040E+02  0.14952357073E+03  0.12603825666E+03 0.  0.
         25    2    3    3    0    0  0.53612714118E+02 -0.48431159329E+00  0.25010853327E+00  0.13371223168E+03  0.12249220658E+03 0.  0.
          5    1    4    4  502    0 -0.50395718301E+02 -0.51471771454E+02  0.30653491309E+01  0.72253429295E+02  0.47000000000E+01 0. -1.
         -5    1    4    4    0  502 -0.32169958168E+01  0.51956083047E+02  0.56910465909E+02  0.77270141437E+02  0.47000000000E+01 0. -1.
          5    1    5    5  503    0 -0.22709422514E+02  0.30864996815E+02  0.26699462283E+02  0.46939505595E+02  0.47000000000E+01 0.  1.
         -5    1    5    5    0  503  0.76322136632E+02 -0.31349308408E+02 -0.26449353750E+02  0.86772726081E+02  0.47000000000E+01 0.  1.
<mgrwt>
<rscale>  0 0.27675866E+03</rscale>
<asrwt>0</asrwt>
<pdfrwt beam="1">  1        4 0.26420133E-01 0.27675866E+03</pdfrwt>
<pdfrwt beam="2">  1       -4 0.17154606E-01 0.27675866E+03</pdfrwt>
<totfact> 0.75399007E+02</totfact>
</mgrwt>
</event>
<event>
 9    1  0.7997082E-001  0.2846729E+03  0.7818608E-02  0.1093164E+00
         -1   -1    0    0    0  501 -0.00000000000E+00  0.00000000000E+00  0.32754044267E+02  0.32754044267E+02  0.00000000000E+00 0. -1.
          1   -1    0    0  501    0  0.00000000000E+00 -0.00000000000E+00 -0.61853913445E+03  0.61853913445E+03  0.00000000000E+00 0. -1.
         35    2    1    2    0    0 -0.71054273576E-14  0.14210854715E-13 -0.58578509019E+03  0.65129317872E+03  0.28467285217E+03 0.  0.
         25    2    3    3    0    0  0.26278756566E+02  0.62618667053E+02 -0.30090782291E+03  0.33280979721E+03  0.12492066570E+03 0.  0.
         25    2    3    3    0    0 -0.26278756566E+02 -0.62618667053E+02 -0.28487726728E+03  0.31848338151E+03  0.12515964357E+03 0.  0.
          5    1    4    4  502    0 -0.19445178918E+02  0.70172879571E+02 -0.26244773624E+03  0.27240273909E+03  0.47000000000E+01 0. -1.
         -5    1    4    4    0  502  0.45723935484E+02 -0.75542125174E+01 -0.38460086674E+02  0.60407058113E+02  0.47000000000E+01 0. -1.
          5    1    5    5  503    0 -0.61733308337E+01 -0.77375329807E+02 -0.78303861327E+02  0.11035685921E+03  0.47000000000E+01 0. -1.
         -5    1    5    5    0  503 -0.20105425733E+02  0.14756662754E+02 -0.20657340595E+03  0.20812652230E+03  0.47000000000E+01 0. -1.
<mgrwt>
<rscale>  0 0.28467285E+03</rscale>
<asrwt>0</asrwt>
<pdfrwt beam="1">  1        1 0.95159866E-01 0.28467285E+03</pdfrwt>
<pdfrwt beam="2">  1       -1 0.50390838E-02 0.28467285E+03</pdfrwt>
<totfact> 0.58488187E+03</totfact>
</mgrwt>
</event>
<event>
 9    1  0.7997082E-001  0.2778206E+03  0.7818608E-02  0.1096885E+00
          1   -1    0    0  501    0  0.00000000000E+00  0.00000000000E+00  0.11946602113E+04  0.11946602113E+04  0.00000000000E+00 0. -1.
         -1   -1    0    0    0  501 -0.00000000000E+00 -0.00000000000E+00 -0.16151935283E+02  0.16151935283E+02  0.00000000000E+00 0. -1.
         35    2    1    2    0    0  0.00000000000E+00  0.00000000000E+00  0.11785082760E+04  0.12108121466E+04  0.27782062140E+03 0.  0.
         25    2    3    3    0    0  0.51017828035E+02 -0.35908379363E+02  0.56336064777E+03  0.58030679149E+03  0.12445289192E+03 0.  0.
         25    2    3    3    0    0 -0.51017828035E+02  0.35908379363E+02  0.61514762825E+03  0.63050535510E+03  0.12344297379E+03 0.  0.
          5    1    4    4  502    0  0.89665478658E+00 -0.48822634720E+02  0.77814583868E+02  0.91987244297E+02  0.47000000000E+01 0.  1.
         -5    1    4    4    0  502  0.50121173248E+02  0.12914255358E+02  0.48554606390E+03  0.48831954719E+03  0.47000000000E+01 0.  1.
          5    1    5    5  503    0  0.11215371538E+01  0.57430688029E+02  0.48719651060E+03  0.49059359119E+03  0.47000000000E+01 0. -1.
         -5    1    5    5    0  503 -0.52139365188E+02 -0.21522308666E+02  0.12795111765E+03  0.13991176391E+03  0.47000000000E+01 0. -1.
<mgrwt>
<rscale>  0 0.27782062E+03</rscale>
<asrwt>0</asrwt>
<pdfrwt beam="1">  1        1 0.18379381E+00 0.27782062E+03</pdfrwt>
<pdfrwt beam="2">  1       -1 0.24849141E-02 0.27782062E+03</pdfrwt>
<totfact> 0.57554264E+03</totfact>
</mgrwt>
</event>
<event>
 9    1  0.7997082E-001  0.2741286E+03  0.7818608E-02  0.1098940E+00
         -2   -1    0    0    0  501 -0.00000000000E+00  0.00000000000E+00  0.22890150997E+03  0.22890150997E+03  0.00000000000E+00 0.  1.
          2   -1    0    0  501    0  0.00000000000E+00 -0.00000000000E+00 -0.82072941279E+02  0.82072941279E+02  0.00000000000E+00 0.  1.
         35    2    1    2    0    0  0.00000000000E+00 -0.35527136788E-14  0.14682856869E+03  0.31097445125E+03  0.27412858433E+03 0.  0.
         25    2    3    3    0    0 -0.47658440141E+02 -0.30070332299E+02  0.80585042771E+02  0.15863580504E+03  0.12448219840E+03 0.  0.
         25    2    3    3    0    0  0.47658440141E+02  0.30070332299E+02  0.66243525918E+02  0.15233864621E+03  0.12507320497E+03 0.  0.
          5    1    4    4  502    0  0.24787594691E+02  0.23911416396E+02  0.54216904971E+02  0.64402977177E+02  0.47000000000E+01 0.  1.
         -5    1    4    4    0  502 -0.72446034832E+02 -0.53981748695E+02  0.26368137799E+02  0.94232827858E+02  0.47000000000E+01 0.  1.
          5    1    5    5  503    0  0.66821693834E+02 -0.29100422723E+02  0.47833186670E+02  0.87304507997E+02  0.47000000000E+01 0. -1.
         -5    1    5    5    0  503 -0.19163253693E+02  0.59170755023E+02  0.18410339248E+02  0.65034138214E+02  0.47000000000E+01 0. -1.
<mgrwt>
<rscale>  0 0.27412858E+03</rscale>
<asrwt>0</asrwt>
<pdfrwt beam="1">  1        2 0.12626606E-01 0.27412858E+03</pdfrwt>
<pdfrwt beam="2">  1       -2 0.35215617E-01 0.27412858E+03</pdfrwt>
<totfact> 0.36264222E+03</totfact>
</mgrwt>
</event>
<event>
 9    1  0.7997082E-001  0.2733549E+03  0.7818608E-02  0.1099375E+00
          2   -1    0    0  501    0  0.00000000000E+00  0.00000000000E+00  0.31843832340E+04  0.31843832340E+04  0.00000000000E+00 0.  1.
         -2   -1    0    0    0  501 -0.00000000000E+00 -0.00000000000E+00 -0.58663575340E+01  0.58663575340E+01  0.00000000000E+00 0.  1.
         35    2    1    2    0    0  0.71054273576E-14  0.00000000000E+00  0.31785168765E+04  0.31902495915E+04  0.27335493832E+03 0.  0.
         25    2    3    3    0    0  0.67647282196E+01 -0.36044192128E+02  0.20880446764E+04  0.20921209878E+04  0.12527853569E+03 0.  0.
         25    2    3    3    0    0 -0.67647282196E+01  0.36044192128E+02  0.10904722000E+04  0.10981286037E+04  0.12414453652E+03 0.  0.
          5    1    4    4  502    0 -0.40009773702E+02  0.11805519855E+02  0.14404442436E+04  0.14410558148E+04  0.47000000000E+01 0. -1.
         -5    1    4    4    0  502  0.46774501921E+02 -0.47849711983E+02  0.64760043278E+03  0.65106517300E+03  0.47000000000E+01 0. -1.
          5    1    5    5  503    0 -0.54374569370E+02 -0.17431042358E+02  0.52751911489E+03  0.53062127889E+03  0.47000000000E+01 0. -1.
         -5    1    5    5    0  503  0.47609841151E+02  0.53475234486E+02  0.56295308516E+03  0.56750732486E+03  0.47000000000E+01 0. -1.
<mgrwt>
<rscale>  0 0.27335494E+03</rscale>
<asrwt>0</asrwt>
<pdfrwt beam="1">  1        2 0.48990373E+00 0.27335494E+03</pdfrwt>
<pdfrwt beam="2">  1       -2 0.90251909E-03 0.27335494E+03</pdfrwt>
<totfact> 0.39906012E+03</totfact>
</mgrwt>
</event>
<event>
 9    1  0.7997082E-001  0.2727999E+03  0.7818608E-02  0.1099688E+00
          2   -1    0    0  501    0  0.00000000000E+00  0.00000000000E+00  0.10965810800E+04  0.10965810800E+04  0.00000000000E+00 0.  1.
         -2   -1    0    0    0  501 -0.00000000000E+00 -0.00000000000E+00 -0.16966315062E+02  0.16966315062E+02  0.00000000000E+00 0.  1.
         35    2    1    2    0    0  0.00000000000E+00  0.00000000000E+00  0.10796147649E+04  0.11135473950E+04  0.27279985406E+03 0.  0.
         25    2    3    3    0    0  0.47224118670E+02 -0.33291567271E+02  0.58420937546E+03  0.59971094319E+03  0.12253234338E+03 0.  0.
         25    2    3    3    0    0 -0.47224118670E+02  0.33291567271E+02  0.49540538945E+03  0.51383645184E+03  0.12354332644E+03 0.  0.
          5    1    4    4  502    0  0.11706081824E+02  0.46063572968E+02  0.23570065634E+03  0.24049069526E+03  0.47000000000E+01 0.  1.
         -5    1    4    4    0  502  0.35518036846E+02 -0.79355140239E+02  0.34850871912E+03  0.35922024793E+03  0.47000000000E+01 0.  1.
          5    1    5    5  503    0 -0.76094825070E+02  0.58950378032E+02  0.32162633533E+03  0.33575461136E+03  0.47000000000E+01 0. -1.
         -5    1    5    5    0  503  0.28870706401E+02 -0.25658810761E+02  0.17377905412E+03  0.17808184048E+03  0.47000000000E+01 0. -1.
<mgrwt>
<rscale>  0 0.27279985E+03</rscale>
<asrwt>0</asrwt>
<pdfrwt beam="1">  1        2 0.16870473E+00 0.27279985E+03</pdfrwt>
<pdfrwt beam="2">  1       -2 0.26102032E-02 0.27279985E+03</pdfrwt>
<totfact> 0.11936457E+04</totfact>
</mgrwt>
</event>
<event>
 9    1  0.7997082E-001  0.2756050E+03  0.7818608E-02  0.1098114E+00
          2   -1    0    0  501    0  0.00000000000E+00  0.00000000000E+00  0.48954348363E+03  0.48954348363E+03  0.00000000000E+00 0. -1.
         -2   -1    0    0    0  501 -0.00000000000E+00 -0.00000000000E+00 -0.38790289457E+02  0.38790289457E+02  0.00000000000E+00 0. -1.
         35    2    1    2    0    0  0.71054273576E-14  0.00000000000E+00  0.45075319417E+03  0.52833377308E+03  0.27560503211E+03 0.  0.
         25    2    3    3    0    0 -0.45449946795E+00  0.56375239561E+02  0.19247208421E+03  0.23604488657E+03  0.12447212968E+03 0.  0.
         25    2    3    3    0    0  0.45449946795E+00 -0.56375239561E+02  0.25828110995E+03  0.29228888651E+03  0.12468074116E+03 0.  0.
          5    1    4    4  502    0  0.37993318031E+02  0.79603311144E+02  0.10203455045E+03  0.13495672953E+03  0.47000000000E+01 0. -1.
         -5    1    4    4    0  502 -0.38447817499E+02 -0.23228071583E+02  0.90437533760E+02  0.10108815703E+03  0.47000000000E+01 0. -1.
          5    1    5    5  503    0 -0.29898225492E+02 -0.41098200420E+02  0.25236980577E+03  0.25747927068E+03  0.47000000000E+01 0.  1.
         -5    1    5    5    0  503  0.30352724960E+02 -0.15277039141E+02  0.59113041843E+01  0.34809615835E+02  0.47000000000E+01 0.  1.
<mgrwt>
<rscale>  0 0.27560503E+03</rscale>
<asrwt>0</asrwt>
<pdfrwt beam="1">  1        2 0.75314378E-01 0.27560503E+03</pdfrwt>
<pdfrwt beam="2">  1       -2 0.59677372E-02 0.27560503E+03</pdfrwt>
<totfact> 0.94605984E+03</totfact>
</mgrwt>
</event>
<event>
 9    1  0.7997082E-001  0.2791077E+03  0.7818608E-02  0.1096177E+00
          2   -1    0    0  501    0  0.00000000000E+00  0.00000000000E+00  0.13289515964E+04  0.13289515964E+04  0.00000000000E+00 0. -1.
         -2   -1    0    0    0  501 -0.00000000000E+00 -0.00000000000E+00 -0.14654616329E+02  0.14654616329E+02  0.00000000000E+00 0. -1.
         35    2    1    2    0    0  0.88817841970E-15  0.00000000000E+00  0.13142969800E+04  0.13436062127E+04  0.27910769079E+03 0.  0.
         25    2    3    3    0    0  0.67298723924E+01 -0.42581669593E+02  0.45039176642E+03  0.46968169225E+03  0.12605419077E+03 0.  0.
         25    2    3    3    0    0 -0.67298723924E+01  0.42581669593E+02  0.86390521362E+03  0.87392452044E+03  0.12471310898E+03 0.  0.
          5    1    4    4  502    0  0.22663620151E+01 -0.87053644814E+02  0.32424619750E+03  0.33576950437E+03  0.47000000000E+01 0. -1.
         -5    1    4    4    0  502  0.44635103773E+01  0.44471975221E+02  0.12614556892E+03  0.13391218788E+03  0.47000000000E+01 0. -1.
          5    1    5    5  503    0  0.12932006953E+02 -0.33293724423E+02  0.10583136503E+03  0.11179479734E+03  0.47000000000E+01 0. -1.
         -5    1    5    5    0  503 -0.19661879346E+02  0.75875394016E+02  0.75807384859E+03  0.76212972310E+03  0.47000000000E+01 0. -1.
<mgrwt>
<rscale>  0 0.27910769E+03</rscale>
<asrwt>0</asrwt>
<pdfrwt beam="1">  1        2 0.20445400E+00 0.27910769E+03</pdfrwt>
<pdfrwt beam="2">  1       -2 0.22545574E-02 0.27910769E+03</pdfrwt>
<totfact> 0.10949566E+04</totfact>
</mgrwt>
</event>
<event>
 9    1  0.7997082E-001  0.2768615E+03  0.7818608E-02  0.1097416E+00
          2   -1    0    0  501    0  0.00000000000E+00  0.00000000000E+00  0.24028510095E+03  0.24028510095E+03  0.00000000000E+00 0.  1.
         -2   -1    0    0    0  501 -0.00000000000E+00 -0.00000000000E+00 -0.79751372415E+02  0.79751372415E+02  0.00000000000E+00 0.  1.
         35    2    1    2    0    0  0.14210854715E-13  0.00000000000E+00  0.16053372853E+03  0.32003647336E+03  0.27686145685E+03 0.  0.
         25    2    3    3    0    0 -0.43142597885E+02  0.31277588516E+02  0.10875497794E+03  0.17424188070E+03  0.12527177044E+03 0.  0.
         25    2    3    3    0    0  0.43142597885E+02 -0.31277588516E+02  0.51778750599E+02  0.14579459266E+03  0.12544103372E+03 0.  0.
          5    1    4    4  502    0 -0.33429680391E+02  0.70888070437E+02  0.27478640212E+02  0.83185501917E+02  0.47000000000E+01 0.  1.
         -5    1    4    4    0  502 -0.97129174935E+01 -0.39610481920E+02  0.81276337723E+02  0.91056378788E+02  0.47000000000E+01 0.  1.
          5    1    5    5  503    0 -0.90161857374E+01 -0.21682918625E+02 -0.35936596085E+02  0.43185292676E+02  0.47000000000E+01 0.  1.
         -5    1    5    5    0  503  0.52158783622E+02 -0.95946698917E+01  0.87715346684E+02  0.10260929998E+03  0.47000000000E+01 0.  1.
<mgrwt>
<rscale>  0 0.27686146E+03</rscale>
<asrwt>0</asrwt>
<pdfrwt beam="1">  1        2 0.36966938E-01 0.27686146E+03</pdfrwt>
<pdfrwt beam="2">  1       -2 0.12269442E-01 0.27686146E+03</pdfrwt>
<totfact> 0.65937124E+03</totfact>
</mgrwt>
</event>
<event>
 9    1  0.7997082E-001  0.2599219E+03  0.7818608E-02  0.1107190E+00
         -2   -1    0    0    0  501 -0.00000000000E+00  0.00000000000E+00  0.36257452458E+02  0.36257452458E+02  0.00000000000E+00 0.  1.
          2   -1    0    0  501    0  0.00000000000E+00 -0.00000000000E+00 -0.46583113623E+03  0.46583113623E+03  0.00000000000E+00 0.  1.
         35    2    1    2    0    0  0.62172489379E-14  0.35527136788E-14 -0.42957368377E+03  0.50208858869E+03  0.25992191347E+03 0.  0.
         25    2    3    3    0    0 -0.47348158261E+01 -0.17144649092E+02 -0.27406222069E+03  0.30140525042E+03  0.12417192393E+03 0.  0.
         25    2    3    3    0    0  0.47348158261E+01  0.17144649092E+02 -0.15551146308E+03  0.20068333827E+03  0.12559311143E+03 0.  0.
          5    1    4    4  502    0 -0.50034038015E+01 -0.63493420603E+02 -0.82892486444E+02  0.10464082768E+03  0.47000000000E+01 0.  1.
         -5    1    4    4    0  502  0.26858797539E+00  0.46348771511E+02 -0.19116973425E+03  0.19676442273E+03  0.47000000000E+01 0.  1.
          5    1    5    5  503    0 -0.33759699285E+02  0.32351161990E+02 -0.15174855967E+03  0.15885852303E+03  0.47000000000E+01 0.  1.
         -5    1    5    5    0  503  0.38494515111E+02 -0.15206512898E+02 -0.37629034127E+01  0.41824815245E+02  0.47000000000E+01 0.  1.
<mgrwt>
<rscale>  0 0.25992191E+03</rscale>
<asrwt>0</asrwt>
<pdfrwt beam="1">  1        2 0.71666329E-01 0.25992191E+03</pdfrwt>
<pdfrwt beam="2">  1       -2 0.55780696E-02 0.25992191E+03</pdfrwt>
<totfact> 0.11057953E+04</totfact>
</mgrwt>
</event>
<event>
 9    1  0.7997082E-001  0.2693062E+03  0.7818608E-02  0.1101677E+00
         -2   -1    0    0    0  501 -0.00000000000E+00  0.00000000000E+00  0.32837714596E+02  0.32837714596E+02  0.00000000000E+00 0.  1.
          2   -1    0    0  501    0  0.00000000000E+00 -0.00000000000E+00 -0.55215365226E+03  0.55215365226E+03  0.00000000000E+00 0.  1.
         35    2    1    2    0    0  0.71054273576E-14  0.00000000000E+00 -0.51931593766E+03  0.58499136685E+03  0.26930624980E+03 0.  0.
         25    2    3    3    0    0  0.19926021688E+02  0.38503572660E+02 -0.20535563981E+03  0.24437366985E+03  0.12517180300E+03 0.  0.
         25    2    3    3    0    0 -0.19926021688E+02 -0.38503572660E+02 -0.31396029785E+03  0.34061769700E+03  0.12477890622E+03 0.  0.
          5    1    4    4  502    0  0.58793379384E+02  0.68184733040E+01 -0.17674006566E+03  0.18644649057E+03  0.47000000000E+01 0.  1.
         -5    1    4    4    0  502 -0.38867357695E+02  0.31685099356E+02 -0.28615574157E+02  0.57927179284E+02  0.47000000000E+01 0.  1.
          5    1    5    5  503    0 -0.23329201404E+02  0.84593576584E+01 -0.22729823039E+01  0.25358801602E+02  0.47000000000E+01 0.  1.
         -5    1    5    5    0  503  0.34031797154E+01 -0.46962930318E+02 -0.31168731555E+03  0.31525889540E+03  0.47000000000E+01 0.  1.
<mgrwt>
<rscale>  0 0.26930625E+03</rscale>
<asrwt>0</asrwt>
<pdfrwt beam="1">  1        2 0.84946714E-01 0.26930625E+03</pdfrwt>
<pdfrwt beam="2">  1       -2 0.50519562E-02 0.26930625E+03</pdfrwt>
<totfact> 0.10643770E+04</totfact>
</mgrwt>
</event>
<event>
 9    1  0.7997082E-001  0.2721340E+03  0.7818608E-02  0.1100064E+00
         -2   -1    0    0    0  501 -0.00000000000E+00  0.00000000000E+00  0.11566060940E+03  0.11566060940E+03  0.00000000000E+00 0.  1.
          2   -1    0    0  501    0  0.00000000000E+00 -0.00000000000E+00 -0.16007374178E+03  0.16007374178E+03  0.00000000000E+00 0.  1.
         35    2    1    2    0    0  0.00000000000E+00 -0.35527136788E-14 -0.44413132373E+02  0.27573435118E+03  0.27213398555E+03 0.  0.
         25    2    3    3    0    0  0.36152288075E+02 -0.26512876878E+02 -0.48383328440E+02  0.14262621158E+03  0.12645698551E+03 0.  0.
         25    2    3    3    0    0 -0.36152288075E+02  0.26512876878E+02  0.39701960670E+01  0.13310813960E+03  0.12526808770E+03 0.  0.
          5    1    4    4  502    0  0.37232433113E+01 -0.72412446901E+02 -0.46367355917E+02  0.86194238216E+02  0.47000000000E+01 0.  1.
         -5    1    4    4    0  502  0.32429044764E+02  0.45899570023E+02 -0.20159725232E+01  0.56431973364E+02  0.47000000000E+01 0.  1.
          5    1    5    5  503    0 -0.42590887913E+02  0.12543407594E+02 -0.55655713746E+02  0.71351028583E+02  0.47000000000E+01 0.  1.
         -5    1    5    5    0  503  0.64385998380E+01  0.13969469284E+02  0.59625909813E+02  0.61757111016E+02  0.47000000000E+01 0.  1.
<mgrwt>
<rscale>  0 0.27213399E+03</rscale>
<asrwt>0</asrwt>
<pdfrwt beam="1">  1        2 0.24626729E-01 0.27213399E+03</pdfrwt>
<pdfrwt beam="2">  1       -2 0.17793940E-01 0.27213399E+03</pdfrwt>
<totfact> 0.55747889E+03</totfact>
</mgrwt>
</event>
<event>
 9    1  0.7997082E-001  0.2761274E+03  0.7818608E-02  0.1097823E+00
         -1   -1    0    0    0  501 -0.00000000000E+00  0.00000000000E+00  0.96732273476E+02  0.96732273476E+02  0.00000000000E+00 0.  1.
          1   -1    0    0  501    0  0.00000000000E+00 -0.00000000000E+00 -0.19705513878E+03  0.19705513878E+03  0.00000000000E+00 0.  1.
         35    2    1    2    0    0  0.00000000000E+00  0.00000000000E+00 -0.10032286530E+03  0.29378741226E+03  0.27612744575E+03 0.  0.
         25    2    3    3    0    0  0.35803720494E+02  0.40343570811E+02 -0.78492323379E+02  0.15727609407E+03  0.12516075595E+03 0.  0.
         25    2    3    3    0    0 -0.35803720494E+02 -0.40343570811E+02 -0.21830541925E+02  0.13651131819E+03  0.12348788331E+03 0.  0.
          5    1    4    4  502    0 -0.31302103170E+02  0.58137923514E+02 -0.45062602698E+02  0.80078511320E+02  0.47000000000E+01 0.  1.
         -5    1    4    4    0  502  0.67105823665E+02 -0.17794352702E+02 -0.33429720681E+02  0.77197582751E+02  0.47000000000E+01 0.  1.
          5    1    5    5  503    0 -0.20694820282E+02  0.29671267167E+02  0.30605904616E+02  0.47617970129E+02  0.47000000000E+01 0. -1.
         -5    1    5    5    0  503 -0.15108900212E+02 -0.70014837978E+02 -0.52436446541E+02  0.88893348056E+02  0.47000000000E+01 0. -1.
<mgrwt>
<rscale>  0 0.27612745E+03</rscale>
<asrwt>0</asrwt>
<pdfrwt beam="1">  1        1 0.30316175E-01 0.27612745E+03</pdfrwt>
<pdfrwt beam="2">  1       -1 0.14881888E-01 0.27612745E+03</pdfrwt>
<totfact> 0.48329505E+03</totfact>
</mgrwt>
</event>
<event>
 9    1  0.7997082E-001  0.2789804E+03  0.7818608E-02  0.1096247E+00
          2   -1    0    0  501    0  0.00000000000E+00  0.00000000000E+00  0.40952593603E+03  0.40952593603E+03  0.00000000000E+00 0.  1.
         -2   -1    0    0    0  501 -0.00000000000E+00 -0.00000000000E+00 -0.47512299225E+02  0.47512299225E+02  0.00000000000E+00 0.  1.
         35    2    1    2    0    0  0.00000000000E+00  0.00000000000E+00  0.36201363680E+03  0.45703823525E+03  0.27898042091E+03 0.  0.
         25    2    3    3    0    0  0.12829114384E+02 -0.48744167415E+02  0.12024780751E+03  0.18020056915E+03  0.12438701652E+03 0.  0.
         25    2    3    3    0    0 -0.12829114384E+02  0.48744167415E+02  0.24176582929E+03  0.27683766610E+03  0.12509115526E+03 0.  0.
          5    1    4    4  502    0  0.30170879548E+02 -0.22979691448E+02  0.13863366315E+03  0.14380448793E+03  0.47000000000E+01 0.  1.
         -5    1    4    4    0  502 -0.17341765164E+02 -0.25764475966E+02 -0.18385855637E+02  0.36396081222E+02  0.47000000000E+01 0.  1.
          5    1    5    5  503    0 -0.35083676069E+02  0.77139185295E+02  0.21650422166E+03  0.23254566483E+03  0.47000000000E+01 0.  1.
         -5    1    5    5    0  503  0.22254561685E+02 -0.28395017880E+02  0.25261607631E+02  0.44292001267E+02  0.47000000000E+01 0.  1.
<mgrwt>
<rscale>  0 0.27898042E+03</rscale>
<asrwt>0</asrwt>
<pdfrwt beam="1">  1        2 0.63003988E-01 0.27898042E+03</pdfrwt>
<pdfrwt beam="2">  1       -2 0.73095848E-02 0.27898042E+03</pdfrwt>
<totfact> 0.84241980E+03</totfact>
</mgrwt>
</event>
<event>
 9    1  0.7997082E-001  0.2789229E+03  0.7818608E-02  0.1096279E+00
          2   -1    0    0  501    0  0.00000000000E+00  0.00000000000E+00  0.12564045566E+03  0.12564045566E+03  0.00000000000E+00 0. -1.
         -2   -1    0    0    0  501 -0.00000000000E+00 -0.00000000000E+00 -0.15480283201E+03  0.15480283201E+03  0.00000000000E+00 0. -1.
         35    2    1    2    0    0  0.71054273576E-14 -0.35527136788E-14 -0.29162376346E+02  0.28044328767E+03  0.27892291660E+03 0.  0.
         25    2    3    3    0    0 -0.43935998296E+02  0.16929591638E+02  0.29667599450E+02  0.13692667222E+03  0.12510701055E+03 0.  0.
         25    2    3    3    0    0  0.43935998296E+02 -0.16929591638E+02 -0.58829975797E+02  0.14351661545E+03  0.12214364428E+03 0.  0.
          5    1    4    4  502    0 -0.89971044741E+01 -0.49393167364E+01 -0.47765047084E+02  0.49080897115E+02  0.47000000000E+01 0. -1.
         -5    1    4    4    0  502 -0.34938893822E+02  0.21868908374E+02  0.77432646534E+02  0.87845775107E+02  0.47000000000E+01 0. -1.
          5    1    5    5  503    0  0.60154857913E+02 -0.15066353917E+02 -0.89187090126E+02  0.10872915431E+03  0.47000000000E+01 0.  1.
         -5    1    5    5    0  503 -0.16218859617E+02 -0.18632377210E+01  0.30357114330E+02  0.34787461139E+02  0.47000000000E+01 0.  1.
<mgrwt>
<rscale>  0 0.27892292E+03</rscale>
<asrwt>0</asrwt>
<pdfrwt beam="1">  1        2 0.19329301E-01 0.27892292E+03</pdfrwt>
<pdfrwt beam="2">  1       -2 0.23815820E-01 0.27892292E+03</pdfrwt>
<totfact> 0.44510127E+03</totfact>
</mgrwt>
</event>
<event>
 9    1  0.7997082E-001  0.2985053E+03  0.7818608E-02  0.1085990E+00
         -2   -1    0    0    0  501 -0.00000000000E+00  0.00000000000E+00  0.15052453146E+02  0.15052453146E+02  0.00000000000E+00 0. -1.
          2   -1    0    0  501    0  0.00000000000E+00 -0.00000000000E+00 -0.14799148094E+04  0.14799148094E+04  0.00000000000E+00 0. -1.
         35    2    1    2    0    0  0.00000000000E+00  0.00000000000E+00 -0.14648623562E+04  0.14949672625E+04  0.29850526513E+03 0.  0.
         25    2    3    3    0    0  0.61780298850E+02  0.40086511859E+02 -0.56915889257E+03  0.58747538928E+03  0.12554582531E+03 0.  0.
         25    2    3    3    0    0 -0.61780298850E+02 -0.40086511859E+02 -0.89570346365E+03  0.90749187324E+03  0.12582953326E+03 0.  0.
          5    1    4    4  502    0  0.88567139976E+02  0.63239464322E+02 -0.39853236993E+03  0.41315070860E+03  0.47000000000E+01 0.  1.
         -5    1    4    4    0  502 -0.26786841126E+02 -0.23152952463E+02 -0.17062652264E+03  0.17432468068E+03  0.47000000000E+01 0.  1.
          5    1    5    5  503    0 -0.46533904631E+02 -0.71459858523E+01 -0.83684488843E+03  0.83818132088E+03  0.47000000000E+01 0.  1.
         -5    1    5    5    0  503 -0.15246394219E+02 -0.32940526006E+02 -0.58858575224E+02  0.69310552354E+02  0.47000000000E+01 0.  1.
<mgrwt>
<rscale>  0 0.29850527E+03</rscale>
<asrwt>0</asrwt>
<pdfrwt beam="1">  1        2 0.22767911E+00 0.29850527E+03</pdfrwt>
<pdfrwt beam="2">  1       -2 0.23157629E-02 0.29850527E+03</pdfrwt>
<totfact> 0.87221949E+03</totfact>
</mgrwt>
</event>
<event>
 9    1  0.7997082E-001  0.2729908E+03  0.7818608E-02  0.1099580E+00
         -4   -1    0    0    0  501 -0.00000000000E+00  0.00000000000E+00  0.14654019157E+03  0.14654019157E+03  0.00000000000E+00 0.  1.
          4   -1    0    0  501    0  0.00000000000E+00 -0.00000000000E+00 -0.12713913459E+03  0.12713913459E+03  0.00000000000E+00 0.  1.
         35    2    1    2    0    0  0.00000000000E+00  0.00000000000E+00  0.19401056985E+02  0.27367932616E+03  0.27299079207E+03 0.  0.
         25    2    3    3    0    0  0.11883754726E+02 -0.26175308627E+02 -0.29240767531E+02  0.13317777430E+03  0.12670803713E+03 0.  0.
         25    2    3    3    0    0 -0.11883754726E+02  0.26175308627E+02  0.48641824516E+02  0.14050155186E+03  0.12864015149E+03 0.  0.
          5    1    4    4  502    0 -0.34933110054E+02  0.36839253543E+02 -0.71024850885E+01  0.51478034870E+02  0.47000000000E+01 0.  1.
         -5    1    4    4    0  502  0.46816864780E+02 -0.63014562170E+02 -0.22138282442E+02  0.81699739429E+02  0.47000000000E+01 0.  1.
          5    1    5    5  503    0  0.20647720664E+02  0.49165353731E+02  0.75263738350E+02  0.92359518657E+02  0.47000000000E+01 0. -1.
         -5    1    5    5    0  503 -0.32531475390E+02 -0.22990045104E+02 -0.26621913834E+02  0.48142033206E+02  0.47000000000E+01 0. -1.
<mgrwt>
<rscale>  0 0.27299079E+03</rscale>
<asrwt>0</asrwt>
<pdfrwt beam="1">  1        4 0.19559867E-01 0.27299079E+03</pdfrwt>
<pdfrwt beam="2">  1       -4 0.22544645E-01 0.27299079E+03</pdfrwt>
<totfact> 0.79811035E+02</totfact>
</mgrwt>
</event>
<event>
 9    1  0.7997082E-001  0.2713368E+03  0.7818608E-02  0.1100517E+00
          2   -1    0    0  501    0  0.00000000000E+00  0.00000000000E+00  0.68117830420E+03  0.68117830420E+03  0.00000000000E+00 0. -1.
         -2   -1    0    0    0  501 -0.00000000000E+00 -0.00000000000E+00 -0.27020691347E+02  0.27020691347E+02  0.00000000000E+00 0. -1.
         35    2    1    2    0    0  0.00000000000E+00 -0.71054273576E-14  0.65415761285E+03  0.70819899555E+03  0.27133675542E+03 0.  0.
         25    2    3    3    0    0 -0.18170538896E+02 -0.10529993250E+02  0.45477124978E+03  0.47208647519E+03  0.12493078559E+03 0.  0.
         25    2    3    3    0    0  0.18170538896E+02  0.10529993250E+02  0.19938636307E+03  0.23611252036E+03  0.12471227385E+03 0.  0.
          5    1    4    4  502    0  0.57560065561E+01 -0.36015916854E+02  0.34778837816E+02  0.50615565177E+02  0.47000000000E+01 0. -1.
         -5    1    4    4    0  502 -0.23926545452E+02  0.25485923604E+02  0.41999241197E+03  0.42147091001E+03  0.47000000000E+01 0. -1.
          5    1    5    5  503    0  0.96354238645E+01  0.60824788737E+02  0.15995468090E+03  0.17146453353E+03  0.47000000000E+01 0. -1.
         -5    1    5    5    0  503  0.85351150314E+01 -0.50294795487E+02  0.39431682175E+02  0.64647986827E+02  0.47000000000E+01 0. -1.
<mgrwt>
<rscale>  0 0.27133676E+03</rscale>
<asrwt>0</asrwt>
<pdfrwt beam="1">  1        2 0.10479665E+00 0.27133676E+03</pdfrwt>
<pdfrwt beam="2">  1       -2 0.41570300E-02 0.27133676E+03</pdfrwt>
<totfact> 0.11188353E+04</totfact>
</mgrwt>
</event>
<event>
 9    1  0.7997082E-001  0.2780568E+03  0.7818608E-02  0.1096755E+00
          1   -1    0    0  501    0  0.00000000000E+00  0.00000000000E+00  0.10809365183E+03  0.10809365183E+03  0.00000000000E+00 0.  1.
         -1   -1    0    0    0  501 -0.00000000000E+00 -0.00000000000E+00 -0.17881622140E+03  0.17881622140E+03  0.00000000000E+00 0.  1.
         35    2    1    2    0    0  0.71054273576E-14  0.14210854715E-13 -0.70722569566E+02  0.28690987323E+03  0.27805681706E+03 0.  0.
         25    2    3    3    0    0  0.41347340369E+02 -0.41622943398E+02 -0.24696173669E+02  0.14147224716E+03  0.12634248593E+03 0.  0.
         25    2    3    3    0    0 -0.41347340369E+02  0.41622943398E+02 -0.46026395897E+02  0.14543762607E+03  0.12486633648E+03 0.  0.
          5    1    4    4  502    0  0.53303184631E+01 -0.53209446077E+02  0.39610063982E+02  0.66713601428E+02  0.47000000000E+01 0.  1.
         -5    1    4    4    0  502  0.36017021906E+02  0.11586502679E+02 -0.64306237651E+02  0.74758645735E+02  0.47000000000E+01 0.  1.
          5    1    5    5  503    0  0.29927513950E+02  0.52181260350E+02 -0.10051679262E+01  0.60346005548E+02  0.47000000000E+01 0.  1.
         -5    1    5    5    0  503 -0.71274854319E+02 -0.10558316952E+02 -0.45021227971E+02  0.85091620522E+02  0.47000000000E+01 0.  1.
<mgrwt>
<rscale>  0 0.27805682E+03</rscale>
<asrwt>0</asrwt>
<pdfrwt beam="1">  1        1 0.16629793E-01 0.27805682E+03</pdfrwt>
<pdfrwt beam="2">  1       -1 0.27510188E-01 0.27805682E+03</pdfrwt>
<totfact> 0.38326743E+03</totfact>
</mgrwt>
</event>
<event>
 9    1  0.7997082E-001  0.2745226E+03  0.7818608E-02  0.1098719E+00
         -2   -1    0    0    0  501 -0.00000000000E+00  0.00000000000E+00  0.15459577456E+03  0.15459577456E+03  0.00000000000E+00 0.  1.
          2   -1    0    0  501    0  0.00000000000E+00 -0.00000000000E+00 -0.12187052866E+03  0.12187052866E+03  0.00000000000E+00 0.  1.
         35    2    1    2    0    0  0.00000000000E+00  0.71054273576E-14  0.32725245894E+02  0.27646630322E+03  0.27452263130E+03 0.  0.
         25    2    3    3    0    0 -0.41986110141E+02 -0.26230143029E+02 -0.81652524807E+00  0.13844327843E+03  0.12928658392E+03 0.  0.
         25    2    3    3    0    0  0.41986110141E+02  0.26230143029E+02  0.33541771142E+02  0.13802302479E+03  0.12439634686E+03 0.  0.
          5    1    4    4  502    0 -0.30050525476E+02  0.45832916587E+02  0.25539532221E+02  0.60646912785E+02  0.47000000000E+01 0.  1.
         -5    1    4    4    0  502 -0.11935584664E+02 -0.72063059616E+02 -0.26356057469E+02  0.77796365646E+02  0.47000000000E+01 0.  1.
          5    1    5    5  503    0  0.60721451306E+02  0.63491110371E+02  0.67650163218E+01  0.88238717073E+02  0.47000000000E+01 0. -1.
         -5    1    5    5    0  503 -0.18735341165E+02 -0.37260967343E+02  0.26776754820E+02  0.49784307714E+02  0.47000000000E+01 0. -1.
<mgrwt>
<rscale>  0 0.27452263E+03</rscale>
<asrwt>0</asrwt>
<pdfrwt beam="1">  1        2 0.18749312E-01 0.27452263E+03</pdfrwt>
<pdfrwt beam="2">  1       -2 0.23783965E-01 0.27452263E+03</pdfrwt>
<totfact> 0.46183295E+03</totfact>
</mgrwt>
</event>
<event>
 9    1  0.7997082E-001  0.2780016E+03  0.7818608E-02  0.1096785E+00
          2   -1    0    0  501    0  0.00000000000E+00  0.00000000000E+00  0.62660005818E+02  0.62660005818E+02  0.00000000000E+00 0. -1.
         -2   -1    0    0    0  501 -0.00000000000E+00 -0.00000000000E+00 -0.30835008464E+03  0.30835008464E+03  0.00000000000E+00 0. -1.
         35    2    1    2    0    0  0.00000000000E+00  0.00000000000E+00 -0.24569007882E+03  0.37101009046E+03  0.27800156904E+03 0.  0.
         25    2    3    3    0    0  0.56761740330E+02 -0.10118573396E+02 -0.10142225782E+03  0.17153247567E+03  0.12574830073E+03 0.  0.
         25    2    3    3    0    0 -0.56761740330E+02  0.10118573396E+02 -0.14426782100E+03  0.19947761478E+03  0.12511528256E+03 0.  0.
          5    1    4    4  502    0 -0.24644168132E+02 -0.22384515442E+02 -0.79336489022E+02  0.86167105353E+02  0.47000000000E+01 0.  1.
         -5    1    4    4    0  502  0.81405908461E+02  0.12265942046E+02 -0.22085768798E+02  0.85365370321E+02  0.47000000000E+01 0.  1.
          5    1    5    5  503    0 -0.60654380809E+02  0.44507118582E+02 -0.14621076555E+03  0.16449776739E+03  0.47000000000E+01 0. -1.
         -5    1    5    5    0  503  0.38926404797E+01 -0.34388545185E+02  0.19429445460E+01  0.34979847389E+02  0.47000000000E+01 0. -1.
<mgrwt>
<rscale>  0 0.27800157E+03</rscale>
<asrwt>0</asrwt>
<pdfrwt beam="1">  1        2 0.96400009E-02 0.27800157E+03</pdfrwt>
<pdfrwt beam="2">  1       -2 0.47438474E-01 0.27800157E+03</pdfrwt>
<totfact> 0.28539486E+03</totfact>
</mgrwt>
</event>
<event>
 9    1  0.7997082E-001  0.2714867E+03  0.7818608E-02  0.1100432E+00
          1   -1    0    0  501    0  0.00000000000E+00  0.00000000000E+00  0.31774215704E+03  0.31774215704E+03  0.00000000000E+00 0.  1.
         -1   -1    0    0    0  501 -0.00000000000E+00 -0.00000000000E+00 -0.57991213625E+02  0.57991213625E+02  0.00000000000E+00 0.  1.
         35    2    1    2    0    0  0.71054273576E-14 -0.35527136788E-14  0.25975094342E+03  0.37573337067E+03  0.27148667228E+03 0.  0.
         25    2    3    3    0    0 -0.31266651803E+02 -0.17056937477E+02  0.18457498200E+03  0.22430952997E+03  0.12238585958E+03 0.  0.
         25    2    3    3    0    0  0.31266651803E+02  0.17056937477E+02  0.75175961421E+02  0.15142384070E+03  0.12652751371E+03 0.  0.
          5    1    4    4  502    0  0.13556403198E+02 -0.48822804976E+02  0.15194391956E+03  0.16023884374E+03  0.47000000000E+01 0.  1.
         -5    1    4    4    0  502 -0.44823055001E+02  0.31765867499E+02  0.32631062436E+02  0.64070686224E+02  0.47000000000E+01 0.  1.
          5    1    5    5  503    0 -0.10975058908E+01  0.60823084211E+02  0.32506843243E+01  0.61100810475E+02  0.47000000000E+01 0. -1.
         -5    1    5    5    0  503  0.32364157694E+02 -0.43766146734E+02  0.71925277097E+02  0.90323030223E+02  0.47000000000E+01 0. -1.
<mgrwt>
<rscale>  0 0.27148667E+03</rscale>
<asrwt>0</asrwt>
<pdfrwt beam="1">  1        1 0.48883408E-01 0.27148667E+03</pdfrwt>
<pdfrwt beam="2">  1       -1 0.89217254E-02 0.27148667E+03</pdfrwt>
<totfact> 0.58833201E+03</totfact>
</mgrwt>
</event>
<event>
 9    1  0.7997082E-001  0.2737772E+03  0.7818608E-02  0.1099137E+00
          2   -1    0    0  501    0  0.00000000000E+00  0.00000000000E+00  0.17857856946E+02  0.17857856946E+02  0.00000000000E+00 0.  1.
         -2   -1    0    0    0  501 -0.00000000000E+00 -0.00000000000E+00 -0.10493134769E+04  0.10493134769E+04  0.00000000000E+00 0.  1.
         35    2    1    2    0    0  0.35527136788E-14  0.35527136788E-14 -0.10314556199E+04  0.10671713338E+04  0.27377720842E+03 0.  0.
         25    2    3    3    0    0 -0.22685765701E+02  0.77128869770E+01 -0.71132430066E+03  0.72261545591E+03  0.12496681087E+03 0.  0.
         25    2    3    3    0    0  0.22685765701E+02 -0.77128869770E+01 -0.32013131927E+03  0.34455587791E+03  0.12514215451E+03 0.  0.
          5    1    4    4  502    0 -0.30271267973E+01 -0.31383276039E+02 -0.62412498859E+03  0.62493852889E+03  0.47000000000E+01 0.  1.
         -5    1    4    4    0  502 -0.19658638904E+02  0.39096163016E+02 -0.87199312072E+02  0.97676927020E+02  0.47000000000E+01 0.  1.
          5    1    5    5  503    0  0.62641631675E+02 -0.10803157787E+02 -0.28174022266E+03  0.28886039068E+03  0.47000000000E+01 0.  1.
         -5    1    5    5    0  503 -0.39955865974E+02  0.30902708104E+01 -0.38391096603E+02  0.55695487230E+02  0.47000000000E+01 0.  1.
<mgrwt>
<rscale>  0 0.27377721E+03</rscale>
<asrwt>0</asrwt>
<pdfrwt beam="1">  1        2 0.27473619E-02 0.27377721E+03</pdfrwt>
<pdfrwt beam="2">  1       -2 0.16143288E+00 0.27377721E+03</pdfrwt>
<totfact> 0.92423854E+02</totfact>
</mgrwt>
</event>
<event>
 9    1  0.7997082E-001  0.2743874E+03  0.7818608E-02  0.1098794E+00
         -1   -1    0    0    0  501 -0.00000000000E+00  0.00000000000E+00  0.35667436429E+03  0.35667436429E+03  0.00000000000E+00 0. -1.
          1   -1    0    0  501    0  0.00000000000E+00 -0.00000000000E+00 -0.52771148655E+02  0.52771148655E+02  0.00000000000E+00 0. -1.
         35    2    1    2    0    0  0.00000000000E+00  0.71054273576E-14  0.30390321564E+03  0.40944551295E+03  0.27438743338E+03 0.  0.
         25    2    3    3    0    0  0.17876453277E+02  0.30969500679E+02  0.21712866024E+03  0.25321605970E+03  0.12527904946E+03 0.  0.
         25    2    3    3    0    0 -0.17876453277E+02 -0.30969500679E+02  0.86774555393E+02  0.15622945325E+03  0.12489652135E+03 0.  0.
          5    1    4    4  502    0  0.40459787680E+02  0.64635044104E+02  0.82068831108E+02  0.11212522635E+03  0.47000000000E+01 0. -1.
         -5    1    4    4    0  502 -0.22583334403E+02 -0.33665543425E+02  0.13505982914E+03  0.14109083334E+03  0.47000000000E+01 0. -1.
          5    1    5    5  503    0  0.13690584761E+00  0.46756304819E+02  0.16502322285E+02  0.49805495925E+02  0.47000000000E+01 0. -1.
         -5    1    5    5    0  503 -0.18013359125E+02 -0.77725805497E+02  0.70272233108E+02  0.10642395733E+03  0.47000000000E+01 0. -1.
<mgrwt>
<rscale>  0 0.27438743E+03</rscale>
<asrwt>0</asrwt>
<pdfrwt beam="1">  1        1 0.81186385E-02 0.27438743E+03</pdfrwt>
<pdfrwt beam="2">  1       -1 0.54872978E-01 0.27438743E+03</pdfrwt>
<totfact> 0.29290162E+03</totfact>
</mgrwt>
</event>
<event>
 9    1  0.7997082E-001  0.2754467E+03  0.7818608E-02  0.1098202E+00
          2   -1    0    0  501    0  0.00000000000E+00  0.00000000000E+00  0.27141050589E+04  0.27141050589E+04  0.00000000000E+00 0. -1.
         -2   -1    0    0    0  501 -0.00000000000E+00 -0.00000000000E+00 -0.69885715423E+01  0.69885715423E+01  0.00000000000E+00 0. -1.
         35    2    1    2    0    0  0.00000000000E+00  0.17763568394E-14  0.27071164873E+04  0.27210936304E+04  0.27544667271E+03 0.  0.
         25    2    3    3    0    0 -0.48258394821E+02  0.73070773799E+00  0.10341897336E+04  0.10428750509E+04  0.12534177247E+03 0.  0.
         25    2    3    3    0    0  0.48258394821E+02 -0.73070773799E+00  0.16729267537E+04  0.16782185796E+04  0.12411394346E+03 0.  0.
          5    1    4    4  502    0 -0.80246842680E+02  0.29884667658E+02  0.53954308494E+03  0.54631628168E+03  0.47000000000E+01 0.  1.
         -5    1    4    4    0  502  0.31988447859E+02 -0.29153959920E+02  0.49464664870E+03  0.49655876918E+03  0.47000000000E+01 0.  1.
          5    1    5    5  503    0  0.50240133351E+02 -0.10272748068E+02  0.24988323338E+03  0.25513392694E+03  0.47000000000E+01 0. -1.
         -5    1    5    5    0  503 -0.19817385306E+01  0.95420403301E+01  0.14230435203E+04  0.14230846526E+04  0.47000000000E+01 0. -1.
<mgrwt>
<rscale>  0 0.27544667E+03</rscale>
<asrwt>0</asrwt>
<pdfrwt beam="1">  1        2 0.41755378E+00 0.27544667E+03</pdfrwt>
<pdfrwt beam="2">  1       -2 0.10751670E-02 0.27544667E+03</pdfrwt>
<totfact> 0.58497196E+03</totfact>
</mgrwt>
</event>
<event>
 9    1  0.7997082E-001  0.2806387E+03  0.7818608E-02  0.1095341E+00
         -1   -1    0    0    0  501 -0.00000000000E+00  0.00000000000E+00  0.18153077122E+02  0.18153077122E+02  0.00000000000E+00 0. -1.
          1   -1    0    0  501    0  0.00000000000E+00 -0.00000000000E+00 -0.10846378170E+04  0.10846378170E+04  0.00000000000E+00 0. -1.
         35    2    1    2    0    0 -0.14210854715E-13  0.00000000000E+00 -0.10664847399E+04  0.11027908941E+04  0.28063865694E+03 0.  0.
         25    2    3    3    0    0  0.51283185799E+02 -0.29214306350E+02 -0.66773946581E+03  0.68192228865E+03  0.12513421881E+03 0.  0.
         25    2    3    3    0    0 -0.51283185799E+02  0.29214306350E+02 -0.39874527408E+03  0.42086860548E+03  0.12103366738E+03 0.  0.
          5    1    4    4  502    0  0.90752311329E+02 -0.23955426926E+02 -0.38235136676E+03  0.39373151023E+03  0.47000000000E+01 0. -1.
         -5    1    4    4    0  502 -0.39469125530E+02 -0.52588794239E+01 -0.28538809906E+03  0.28819077842E+03  0.47000000000E+01 0. -1.
          5    1    5    5  503    0 -0.39575690282E+02 -0.15618555950E+02 -0.35300191408E+03  0.35558770493E+03  0.47000000000E+01 0.  1.
         -5    1    5    5    0  503 -0.11707495517E+02  0.44832862300E+02 -0.45743359999E+02  0.65280900555E+02  0.47000000000E+01 0.  1.
<mgrwt>
<rscale>  0 0.28063866E+03</rscale>
<asrwt>0</asrwt>
<pdfrwt beam="1">  1        1 0.16686735E+00 0.28063866E+03</pdfrwt>
<pdfrwt beam="2">  1       -1 0.27927811E-02 0.28063866E+03</pdfrwt>
<totfact> 0.58062354E+03</totfact>
</mgrwt>
</event>
<event>
 9    1  0.7997082E-001  0.2738327E+03  0.7818608E-02  0.1099106E+00
          2   -1    0    0  501    0  0.00000000000E+00  0.00000000000E+00  0.12194804526E+04  0.12194804526E+04  0.00000000000E+00 0.  1.
         -2   -1    0    0    0  501 -0.00000000000E+00 -0.00000000000E+00 -0.15372192904E+02  0.15372192904E+02  0.00000000000E+00 0.  1.
         35    2    1    2    0    0  0.71054273576E-14  0.00000000000E+00  0.12041082597E+04  0.12348526456E+04  0.27383271361E+03 0.  0.
         25    2    3    3    0    0  0.19863673146E+02 -0.48064683083E+02  0.51756733187E+03  0.53499324735E+03  0.12504820039E+03 0.  0.
         25    2    3    3    0    0 -0.19863673146E+02  0.48064683083E+02  0.68654092787E+03  0.69985939820E+03  0.12553864877E+03 0.  0.
          5    1    4    4  502    0 -0.50724821857E+02 -0.25782373361E+01  0.17790630128E+03  0.18507403085E+03  0.47000000000E+01 0. -1.
         -5    1    4    4    0  502  0.70588495003E+02 -0.45486445747E+02  0.33966103059E+03  0.34991921650E+03  0.47000000000E+01 0. -1.
          5    1    5    5  503    0 -0.64901583312E+01  0.83554830313E+02  0.30275582906E+03  0.31417624648E+03  0.47000000000E+01 0.  1.
         -5    1    5    5    0  503 -0.13373514815E+02 -0.35490147230E+02  0.38378509881E+03  0.38568315172E+03  0.47000000000E+01 0.  1.
<mgrwt>
<rscale>  0 0.27383271E+03</rscale>
<asrwt>0</asrwt>
<pdfrwt beam="1">  1        2 0.18761230E+00 0.27383271E+03</pdfrwt>
<pdfrwt beam="2">  1       -2 0.23649537E-02 0.27383271E+03</pdfrwt>
<totfact> 0.11736801E+04</totfact>
</mgrwt>
</event>
<event>
 9    1  0.7997082E-001  0.2757971E+03  0.7818608E-02  0.1098007E+00
          3   -1    0    0  501    0  0.00000000000E+00  0.00000000000E+00  0.33953448562E+03  0.33953448562E+03  0.00000000000E+00 0. -1.
         -3   -1    0    0    0  501 -0.00000000000E+00 -0.00000000000E+00 -0.56006127767E+02  0.56006127767E+02  0.00000000000E+00 0. -1.
         35    2    1    2    0    0  0.00000000000E+00  0.00000000000E+00  0.28352835785E+03  0.39554061338E+03  0.27579711226E+03 0.  0.
         25    2    3    3    0    0 -0.24517404705E+02  0.66200851019E+02  0.15149094581E+03  0.20969731672E+03  0.12664834057E+03 0.  0.
         25    2    3    3    0    0  0.24517404705E+02 -0.66200851019E+02  0.13203741204E+03  0.18584329666E+03  0.11009176593E+03 0.  0.
          5    1    4    4  502    0 -0.10706169688E+02 -0.34299795782E+02  0.72455775836E+02  0.81012514540E+02  0.47000000000E+01 0.  1.
         -5    1    4    4    0  502 -0.13811235017E+02  0.10050064680E+03  0.79035169973E+02  0.12868480218E+03  0.47000000000E+01 0.  1.
          5    1    5    5  503    0  0.38523483369E+01 -0.50620457732E+02 -0.23134256436E+00  0.50984456926E+02  0.47000000000E+01 0. -1.
         -5    1    5    5    0  503  0.20665056368E+02 -0.15580393288E+02  0.13226875461E+03  0.13485883974E+03  0.47000000000E+01 0. -1.
<mgrwt>
<rscale>  0 0.27579711E+03</rscale>
<asrwt>0</asrwt>
<pdfrwt beam="1">  1        3 0.52236074E-01 0.27579711E+03</pdfrwt>
<pdfrwt beam="2">  1       -3 0.86163275E-02 0.27579711E+03</pdfrwt>
<totfact> 0.87865648E+02</totfact>
</mgrwt>
</event>
<event>
 9    1  0.7997082E-001  0.2707456E+03  0.7818608E-02  0.1100854E+00
         -1   -1    0    0    0  501 -0.00000000000E+00  0.00000000000E+00  0.16222713684E+03  0.16222713684E+03  0.00000000000E+00 0. -1.
          1   -1    0    0  501    0  0.00000000000E+00 -0.00000000000E+00 -0.11296380246E+03  0.11296380246E+03  0.00000000000E+00 0. -1.
         35    2    1    2    0    0  0.71054273576E-14 -0.71054273576E-14  0.49263334379E+02  0.27519093930E+03  0.27074559454E+03 0.  0.
         25    2    3    3    0    0  0.51738903836E+02 -0.45288464225E+01  0.40993245271E+02  0.14123086613E+03  0.12477294085E+03 0.  0.
         25    2    3    3    0    0 -0.51738903836E+02  0.45288464225E+01  0.82700891085E+01  0.13396007318E+03  0.12320504134E+03 0.  0.
          5    1    4    4  502    0 -0.29034249242E+02  0.27037904896E+02  0.36740874347E+02  0.54277230751E+02  0.47000000000E+01 0. -1.
         -5    1    4    4    0  502  0.80773153078E+02 -0.31566751318E+02  0.42523709236E+01  0.86953635377E+02  0.47000000000E+01 0. -1.
          5    1    5    5  503    0  0.26914223112E+02  0.37420720922E+02 -0.80605883200E+01  0.47029233931E+02  0.47000000000E+01 0.  1.
         -5    1    5    5    0  503 -0.78653126947E+02 -0.32891874500E+02  0.16330677429E+02  0.86930839246E+02  0.47000000000E+01 0.  1.
<mgrwt>
<rscale>  0 0.27074559E+03</rscale>
<asrwt>0</asrwt>
<pdfrwt beam="1">  1        1 0.17379047E-01 0.27074559E+03</pdfrwt>
<pdfrwt beam="2">  1       -1 0.24958021E-01 0.27074559E+03</pdfrwt>
<totfact> 0.42554958E+03</totfact>
</mgrwt>
</event>
<event>
 9    1  0.7997082E-001  0.2769158E+03  0.7818608E-02  0.1097386E+00
          2   -1    0    0  501    0  0.00000000000E+00  0.00000000000E+00  0.13619363435E+04  0.13619363435E+04  0.00000000000E+00 0.  1.
         -2   -1    0    0    0  501 -0.00000000000E+00 -0.00000000000E+00 -0.14075976204E+02  0.14075976204E+02  0.00000000000E+00 0.  1.
         35    2    1    2    0    0  0.00000000000E+00  0.00000000000E+00  0.13478603673E+04  0.13760123197E+04  0.27691575299E+03 0.  0.
         25    2    3    3    0    0  0.25814799272E+02  0.11767832312E+01  0.94295394685E+03  0.95150006609E+03  0.12458908941E+03 0.  0.
         25    2    3    3    0    0 -0.25814799272E+02 -0.11767832312E+01  0.40490642048E+03  0.42451225366E+03  0.12487455896E+03 0.  0.
          5    1    4    4  502    0 -0.38186740411E+02  0.36123410156E+02  0.32777614096E+03  0.33199761518E+03  0.47000000000E+01 0. -1.
         -5    1    4    4    0  502  0.64001539682E+02 -0.34946626925E+02  0.61517780590E+03  0.61950245091E+03  0.47000000000E+01 0. -1.
          5    1    5    5  503    0 -0.29680409732E+02 -0.36645697047E+02  0.37424699213E+03  0.37723564910E+03  0.47000000000E+01 0.  1.
         -5    1    5    5    0  503  0.38656104601E+01  0.35468913815E+02  0.30659428357E+02  0.47276604559E+02  0.47000000000E+01 0.  1.
<mgrwt>
<rscale>  0 0.27691575E+03</rscale>
<asrwt>0</asrwt>
<pdfrwt beam="1">  1        2 0.20952856E+00 0.27691575E+03</pdfrwt>
<pdfrwt beam="2">  1       -2 0.21655359E-02 0.27691575E+03</pdfrwt>
<totfact> 0.11143673E+04</totfact>
</mgrwt>
</event>
<event>
 9    1  0.7997082E-001  0.2714971E+03  0.7818608E-02  0.1100426E+00
          2   -1    0    0  501    0  0.00000000000E+00  0.00000000000E+00  0.64016323553E+03  0.64016323553E+03  0.00000000000E+00 0. -1.
         -2   -1    0    0    0  501 -0.00000000000E+00 -0.00000000000E+00 -0.28785881706E+02  0.28785881706E+02  0.00000000000E+00 0. -1.
         35    2    1    2    0    0  0.00000000000E+00  0.00000000000E+00  0.61137735382E+03  0.66894911723E+03  0.27149705833E+03 0.  0.
         25    2    3    3    0    0  0.97798666285E+01  0.47160963688E+02  0.24976418567E+03  0.28325500069E+03  0.12462521690E+03 0.  0.
         25    2    3    3    0    0 -0.97798666285E+01 -0.47160963688E+02  0.36161316815E+03  0.38569411654E+03  0.12520409684E+03 0.  0.
          5    1    4    4  502    0 -0.17162356373E+02  0.84141122659E+02  0.14089926209E+03  0.16507261147E+03  0.47000000000E+01 0.  1.
         -5    1    4    4    0  502  0.26942223002E+02 -0.36980158971E+02  0.10886492358E+03  0.11818238923E+03  0.47000000000E+01 0.  1.
          5    1    5    5  503    0  0.10777614869E+02  0.56773764596E+01 -0.55225331974E+01  0.14176669519E+02  0.47000000000E+01 0. -1.
         -5    1    5    5    0  503 -0.20557481497E+02 -0.52838340148E+02  0.36713570135E+03  0.37151744702E+03  0.47000000000E+01 0. -1.
<mgrwt>
<rscale>  0 0.27149706E+03</rscale>
<asrwt>0</asrwt>
<pdfrwt beam="1">  1        2 0.98486642E-01 0.27149706E+03</pdfrwt>
<pdfrwt beam="2">  1       -2 0.44285976E-02 0.27149706E+03</pdfrwt>
<totfact> 0.10951100E+04</totfact>
</mgrwt>
</event>
<event>
 9    1  0.7997082E-001  0.2736613E+03  0.7818608E-02  0.1099202E+00
         -2   -1    0    0    0  501 -0.00000000000E+00  0.00000000000E+00  0.12369184223E+02  0.12369184223E+02  0.00000000000E+00 0.  1.
          2   -1    0    0  501    0  0.00000000000E+00 -0.00000000000E+00 -0.15136509902E+04  0.15136509902E+04  0.00000000000E+00 0.  1.
         35    2    1    2    0    0  0.00000000000E+00 -0.71054273576E-14 -0.15012818060E+04  0.15260201744E+04  0.27366130854E+03 0.  0.
         25    2    3    3    0    0  0.93782922504E+01 -0.48517584477E+02 -0.62722639725E+03  0.64139459801E+03  0.12462812118E+03 0.  0.
         25    2    3    3    0    0 -0.93782922504E+01  0.48517584477E+02 -0.87405540875E+03  0.88462557643E+03  0.12707338250E+03 0.  0.
          5    1    4    4  502    0  0.56317780756E+02 -0.34602963199E+02 -0.18631340238E+03  0.19774688720E+03  0.47000000000E+01 0.  1.
         -5    1    4    4    0  502 -0.46939488506E+02 -0.13914621277E+02 -0.44091299487E+03  0.44364771081E+03  0.47000000000E+01 0.  1.
          5    1    5    5  503    0  0.82522946891E+01 -0.37526013197E+02 -0.44299323960E+03  0.44468123680E+03  0.47000000000E+01 0. -1.
         -5    1    5    5    0  503 -0.17630586939E+02  0.86043597673E+02 -0.43106216915E+03  0.43994433963E+03  0.47000000000E+01 0. -1.
<mgrwt>
<rscale>  0 0.27366131E+03</rscale>
<asrwt>0</asrwt>
<pdfrwt beam="1">  1        2 0.23286949E+00 0.27366131E+03</pdfrwt>
<pdfrwt beam="2">  1       -2 0.19029506E-02 0.27366131E+03</pdfrwt>
<totfact> 0.11158419E+04</totfact>
</mgrwt>
</event>
<event>
 9    1  0.7997082E-001  0.2767948E+03  0.7818608E-02  0.1097453E+00
         -3   -1    0    0    0  501 -0.00000000000E+00  0.00000000000E+00  0.59520030616E+02  0.59520030616E+02  0.00000000000E+00 0. -1.
          3   -1    0    0  501    0  0.00000000000E+00 -0.00000000000E+00 -0.32180502065E+03  0.32180502065E+03  0.00000000000E+00 0. -1.
         35    2    1    2    0    0  0.35527136788E-14  0.53290705182E-14 -0.26228499003E+03  0.38132505126E+03  0.27679483146E+03 0.  0.
         25    2    3    3    0    0  0.54221556277E+01 -0.12728936252E+02 -0.21014781851E+03  0.24543100208E+03  0.12602716202E+03 0.  0.
         25    2    3    3    0    0 -0.54221556277E+01  0.12728936252E+02 -0.52137171517E+02  0.13589404918E+03  0.12472963705E+03 0.  0.
          5    1    4    4  502    0  0.22144347407E+02 -0.64613817829E+02 -0.14502649328E+03  0.16037484631E+03  0.47000000000E+01 0. -1.
         -5    1    4    4    0  502 -0.16722191779E+02  0.51884881578E+02 -0.65121325230E+02  0.85056155768E+02  0.47000000000E+01 0. -1.
          5    1    5    5  503    0  0.48312806282E+02  0.26272080555E+02 -0.57886862622E+02  0.79983300331E+02  0.47000000000E+01 0.  1.
         -5    1    5    5    0  503 -0.53734961910E+02 -0.13543144303E+02  0.57496911051E+01  0.55910748849E+02  0.47000000000E+01 0.  1.
<mgrwt>
<rscale>  0 0.27679483E+03</rscale>
<asrwt>0</asrwt>
<pdfrwt beam="1">  1        3 0.49508465E-01 0.27679483E+03</pdfrwt>
<pdfrwt beam="2">  1       -3 0.91569277E-02 0.27679483E+03</pdfrwt>
<totfact> 0.88579273E+02</totfact>
</mgrwt>
</event>
<event>
 9    1  0.7997082E-001  0.2782406E+03  0.7818608E-02  0.1096654E+00
         -1   -1    0    0    0  501 -0.00000000000E+00  0.00000000000E+00  0.17486577786E+02  0.17486577786E+02  0.00000000000E+00 0.  1.
          1   -1    0    0  501    0  0.00000000000E+00 -0.00000000000E+00 -0.11068180873E+04  0.11068180873E+04  0.00000000000E+00 0.  1.
         35    2    1    2    0    0  0.71054273576E-14 -0.17763568394E-14 -0.10893315095E+04  0.11243046651E+04  0.27824061945E+03 0.  0.
         25    2    3    3    0    0  0.53949048712E+02  0.22817661822E+01 -0.43062077846E+03  0.45159757288E+03  0.12486155006E+03 0.  0.
         25    2    3    3    0    0 -0.53949048712E+02 -0.22817661822E+01 -0.65871073104E+03  0.67270709218E+03  0.12537662609E+03 0.  0.
          5    1    4    4  502    0  0.67680504591E+02 -0.40514304056E+02 -0.17500502073E+03  0.19201798566E+03  0.47000000000E+01 0.  1.
         -5    1    4    4    0  502 -0.13731455878E+02  0.42796070238E+02 -0.25561575772E+03  0.25957958723E+03  0.47000000000E+01 0.  1.
          5    1    5    5  503    0  0.34702150812E+02 -0.14642273619E+02 -0.32352544330E+03  0.32574443650E+03  0.47000000000E+01 0. -1.
         -5    1    5    5    0  503 -0.88651199524E+02  0.12360507436E+02 -0.33518528774E+03  0.34696265568E+03  0.47000000000E+01 0. -1.
<mgrwt>
<rscale>  0 0.27824062E+03</rscale>
<asrwt>0</asrwt>
<pdfrwt beam="1">  1        1 0.17027972E+00 0.27824062E+03</pdfrwt>
<pdfrwt beam="2">  1       -1 0.26902426E-02 0.27824062E+03</pdfrwt>
<totfact> 0.59120144E+03</totfact>
</mgrwt>
</event>
<event>
 9    1  0.7997082E-001  0.2714154E+03  0.7818608E-02  0.1100472E+00
          1   -1    0    0  501    0  0.00000000000E+00  0.00000000000E+00  0.15183415369E+04  0.15183415369E+04  0.00000000000E+00 0. -1.
         -1   -1    0    0    0  501 -0.00000000000E+00 -0.00000000000E+00 -0.12129401917E+02  0.12129401917E+02  0.00000000000E+00 0. -1.
         35    2    1    2    0    0  0.00000000000E+00  0.00000000000E+00  0.15062121350E+04  0.15304709389E+04  0.27141536249E+03 0.  0.
         25    2    3    3    0    0 -0.63844257089E+01  0.16844922108E+02  0.46344854683E+03  0.48008968916E+03  0.12400420070E+03 0.  0.
         25    2    3    3    0    0  0.63844257089E+01 -0.16844922108E+02  0.10427635882E+04  0.10503812497E+04  0.12498142483E+03 0.  0.
          5    1    4    4  502    0 -0.41560596471E+02  0.52645211751E+02  0.17905576287E+03  0.19126384320E+03  0.47000000000E+01 0.  1.
         -5    1    4    4    0  502  0.35176170762E+02 -0.35800289643E+02  0.28439278396E+03  0.28882584597E+03  0.47000000000E+01 0.  1.
          5    1    5    5  503    0  0.48953631043E+02 -0.46309634112E+02  0.41425740830E+03  0.41972887741E+03  0.47000000000E+01 0.  1.
         -5    1    5    5    0  503 -0.42569205335E+02  0.29464712005E+02  0.62850617990E+03  0.63065237228E+03  0.47000000000E+01 0.  1.
<mgrwt>
<rscale>  0 0.27141536E+03</rscale>
<asrwt>0</asrwt>
<pdfrwt beam="1">  1        1 0.23359086E+00 0.27141536E+03</pdfrwt>
<pdfrwt beam="2">  1       -1 0.18660630E-02 0.27141536E+03</pdfrwt>
<totfact> 0.52801462E+03</totfact>
</mgrwt>
</event>
<event>
 9    1  0.7997082E-001  0.2826834E+03  0.7818608E-02  0.1094232E+00
         -2   -1    0    0    0  501 -0.00000000000E+00  0.00000000000E+00  0.20923811840E+02  0.20923811840E+02  0.00000000000E+00 0. -1.
          2   -1    0    0  501    0  0.00000000000E+00 -0.00000000000E+00 -0.95477200353E+03  0.95477200353E+03  0.00000000000E+00 0. -1.
         35    2    1    2    0    0  0.88817841970E-15  0.00000000000E+00 -0.93384819169E+03  0.97569581537E+03  0.28268335467E+03 0.  0.
         25    2    3    3    0    0 -0.71517635288E+01 -0.42905825435E+02 -0.29372251606E+03  0.32207886379E+03  0.12477908671E+03 0.  0.
         25    2    3    3    0    0  0.71517635288E+01  0.42905825435E+02 -0.64012567563E+03  0.65361695158E+03  0.12474847179E+03 0.  0.
          5    1    4    4  502    0 -0.50355680971E+01 -0.50946843658E+02 -0.32802013697E+02  0.60983603758E+02  0.47000000000E+01 0.  1.
         -5    1    4    4    0  502 -0.21161954317E+01  0.80410182225E+01 -0.26092050237E+03  0.26109526003E+03  0.47000000000E+01 0.  1.
          5    1    5    5  503    0  0.12837862531E+02  0.74242691549E+02 -0.58443722556E+03  0.58929258318E+03  0.47000000000E+01 0. -1.
         -5    1    5    5    0  503 -0.56860990019E+01 -0.31336866114E+02 -0.55688450064E+02  0.64324368401E+02  0.47000000000E+01 0. -1.
<mgrwt>
<rscale>  0 0.28268335E+03</rscale>
<asrwt>0</asrwt>
<pdfrwt beam="1">  1        2 0.14688794E+00 0.28268335E+03</pdfrwt>
<pdfrwt beam="2">  1       -2 0.32190493E-02 0.28268335E+03</pdfrwt>
<totfact> 0.10663977E+04</totfact>
</mgrwt>
</event>
<event>
 9    1  0.7997082E-001  0.2640541E+03  0.7818608E-02  0.1104732E+00
         -2   -1    0    0    0  501 -0.00000000000E+00  0.00000000000E+00  0.88252639960E+02  0.88252639960E+02  0.00000000000E+00 0. -1.
          2   -1    0    0  501    0  0.00000000000E+00 -0.00000000000E+00 -0.19751405725E+03  0.19751405725E+03  0.00000000000E+00 0. -1.
         35    2    1    2    0    0 -0.35527136788E-14  0.00000000000E+00 -0.10926141729E+03  0.28576669721E+03  0.26405406251E+03 0.  0.
         25    2    3    3    0    0 -0.31626007576E+02  0.25830565052E+02 -0.65838499499E+02  0.14672723378E+03  0.12460638294E+03 0.  0.
         25    2    3    3    0    0  0.31626007576E+02 -0.25830565052E+02 -0.43422917790E+02  0.13903946343E+03  0.12561449023E+03 0.  0.
          5    1    4    4  502    0 -0.15187511890E+02  0.72863667654E+02 -0.16356663598E+02  0.76350540439E+02  0.47000000000E+01 0. -1.
         -5    1    4    4    0  502 -0.16438495686E+02 -0.47033102602E+02 -0.49481835901E+02  0.70376693336E+02  0.47000000000E+01 0. -1.
          5    1    5    5  503    0  0.22573995593E+01  0.16654133086E+02 -0.75878909701E+02  0.77859841633E+02  0.47000000000E+01 0.  1.
         -5    1    5    5    0  503  0.29368608017E+02 -0.42484698138E+02  0.32455991911E+02  0.61179621800E+02  0.47000000000E+01 0.  1.
<mgrwt>
<rscale>  0 0.26405406E+03</rscale>
<asrwt>0</asrwt>
<pdfrwt beam="1">  1        2 0.30386777E-01 0.26405406E+03</pdfrwt>
<pdfrwt beam="2">  1       -2 0.13577329E-01 0.26405406E+03</pdfrwt>
<totfact> 0.69101813E+03</totfact>
</mgrwt>
</event>
<event>
 9    1  0.7997082E-001  0.2759003E+03  0.7818608E-02  0.1097949E+00
         -1   -1    0    0    0  501 -0.00000000000E+00  0.00000000000E+00  0.16880412281E+02  0.16880412281E+02  0.00000000000E+00 0.  1.
          1   -1    0    0  501    0  0.00000000000E+00 -0.00000000000E+00 -0.11273565351E+04  0.11273565351E+04  0.00000000000E+00 0.  1.
         35    2    1    2    0    0 -0.71054273576E-14 -0.71054273576E-14 -0.11104761229E+04  0.11442369474E+04  0.27590029432E+03 0.  0.
         25    2    3    3    0    0 -0.29491339732E+02 -0.51534094751E+02 -0.52233847661E+03  0.54007413890E+03  0.12376222899E+03 0.  0.
         25    2    3    3    0    0  0.29491339732E+02  0.51534094751E+02 -0.58813764625E+03  0.60416280852E+03  0.12482510253E+03 0.  0.
          5    1    4    4  502    0  0.26953011589E+02 -0.16497087520E+02 -0.39572475171E+03  0.39701232707E+03  0.47000000000E+01 0.  1.
         -5    1    4    4    0  502 -0.56444351321E+02 -0.35037007231E+02 -0.12661372490E+03  0.14306181183E+03  0.47000000000E+01 0.  1.
          5    1    5    5  503    0  0.33689926999E+01  0.44003296180E+02 -0.56866327181E+03  0.57039253755E+03  0.47000000000E+01 0. -1.
         -5    1    5    5    0  503  0.26122347032E+02  0.75307985716E+01 -0.19474374441E+02  0.33770270971E+02  0.47000000000E+01 0. -1.
<mgrwt>
<rscale>  0 0.27590029E+03</rscale>
<asrwt>0</asrwt>
<pdfrwt beam="1">  1        1 0.17343949E+00 0.27590029E+03</pdfrwt>
<pdfrwt beam="2">  1       -1 0.25969862E-02 0.27590029E+03</pdfrwt>
<totfact> 0.60184875E+03</totfact>
</mgrwt>
</event>
<event>
 9    1  0.7997082E-001  0.2732999E+03  0.7818608E-02  0.1099406E+00
          1   -1    0    0  501    0  0.00000000000E+00  0.00000000000E+00  0.67611522741E+03  0.67611522741E+03  0.00000000000E+00 0.  1.
         -1   -1    0    0    0  501 -0.00000000000E+00 -0.00000000000E+00 -0.27618384468E+02  0.27618384468E+02  0.00000000000E+00 0.  1.
         35    2    1    2    0    0  0.00000000000E+00 -0.35527136788E-14  0.64849684294E+03  0.70373361188E+03  0.27329991069E+03 0.  0.
         25    2    3    3    0    0 -0.41474500432E+02 -0.27094339274E+02  0.39555851024E+03  0.41725716779E+03  0.12321839003E+03 0.  0.
         25    2    3    3    0    0  0.41474500432E+02  0.27094339274E+02  0.25293833270E+03  0.28647644409E+03  0.12504685306E+03 0.  0.
          5    1    4    4  502    0 -0.36246511501E+01 -0.59631182094E+02  0.32630563869E+03  0.33176267996E+03  0.47000000000E+01 0.  1.
         -5    1    4    4    0  502 -0.37849849282E+02  0.32536842820E+02  0.69252871552E+02  0.85494487831E+02  0.47000000000E+01 0.  1.
          5    1    5    5  503    0  0.37807493048E+02  0.27427300103E+02  0.26705470687E+03  0.27114934959E+03  0.47000000000E+01 0. -1.
         -5    1    5    5    0  503  0.36670073832E+01 -0.33296082815E+00 -0.14116374169E+02  0.15327094498E+02  0.47000000000E+01 0. -1.
<mgrwt>
<rscale>  0 0.27329991E+03</rscale>
<asrwt>0</asrwt>
<pdfrwt beam="1">  1        1 0.10401771E+00 0.27329991E+03</pdfrwt>
<pdfrwt beam="2">  1       -1 0.42489827E-02 0.27329991E+03</pdfrwt>
<totfact> 0.66429114E+03</totfact>
</mgrwt>
</event>
<event>
 9    1  0.7997082E-001  0.2688533E+03  0.7818608E-02  0.1101938E+00
         -2   -1    0    0    0  501 -0.00000000000E+00  0.00000000000E+00  0.26444488576E+02  0.26444488576E+02  0.00000000000E+00 0.  1.
          2   -1    0    0  501    0  0.00000000000E+00 -0.00000000000E+00 -0.68333802179E+03  0.68333802179E+03  0.00000000000E+00 0.  1.
         35    2    1    2    0    0  0.71054273576E-14 -0.17763568394E-14 -0.65689353322E+03  0.70978251037E+03  0.26885330209E+03 0.  0.
         25    2    3    3    0    0  0.47391635186E+02 -0.12804503171E+01 -0.28407598490E+03  0.31386767751E+03  0.12476436650E+03 0.  0.
         25    2    3    3    0    0 -0.47391635186E+02  0.12804503171E+01 -0.37281754831E+03  0.39591483286E+03  0.12453121661E+03 0.  0.
          5    1    4    4  502    0  0.80768642042E+02  0.28477109619E+02 -0.15448303352E+03  0.17669639768E+03  0.47000000000E+01 0. -1.
         -5    1    4    4    0  502 -0.33377006857E+02 -0.29757559936E+02 -0.12959295138E+03  0.13717127982E+03  0.47000000000E+01 0. -1.
          5    1    5    5  503    0 -0.70951239524E+02  0.12903237566E+02 -0.35833692082E+03  0.36555165265E+03  0.47000000000E+01 0. -1.
         -5    1    5    5    0  503  0.23559604338E+02 -0.11622787249E+02 -0.14480627492E+02  0.30363180212E+02  0.47000000000E+01 0. -1.
<mgrwt>
<rscale>  0 0.26885330E+03</rscale>
<asrwt>0</asrwt>
<pdfrwt beam="1">  1        2 0.10512891E+00 0.26885330E+03</pdfrwt>
<pdfrwt beam="2">  1       -2 0.40683835E-02 0.26885330E+03</pdfrwt>
<totfact> 0.11509362E+04</totfact>
</mgrwt>
</event>
<event>
 9    1  0.7997082E-001  0.2751944E+03  0.7818608E-02  0.1098343E+00
          2   -1    0    0  501    0  0.00000000000E+00  0.00000000000E+00  0.26959530679E+04  0.26959530679E+04  0.00000000000E+00 0. -1.
         -2   -1    0    0    0  501 -0.00000000000E+00 -0.00000000000E+00 -0.70227432558E+01  0.70227432558E+01  0.00000000000E+00 0. -1.
         35    2    1    2    0    0  0.71054273576E-14  0.00000000000E+00  0.26889303246E+04  0.27029758112E+04  0.27519437658E+03 0.  0.
         25    2    3    3    0    0  0.43688397984E+02 -0.47049959671E+01  0.17094248344E+04  0.17145647745E+04  0.12517303511E+03 0.  0.
         25    2    3    3    0    0 -0.43688397984E+02  0.47049959671E+01  0.97950549029E+03  0.98841103661E+03  0.12487817531E+03 0.  0.
          5    1    4    4  502    0 -0.20170648594E+02 -0.17108503811E+02  0.12739131410E+04  0.12741963494E+04  0.47000000000E+01 0. -1.
         -5    1    4    4    0  502  0.63859046579E+02  0.12403507844E+02  0.43551169332E+03  0.44036842514E+03  0.47000000000E+01 0. -1.
          5    1    5    5  503    0  0.34213218137E+02 -0.30427799329E+02  0.29346532590E+03  0.29705282825E+03  0.47000000000E+01 0. -1.
         -5    1    5    5    0  503 -0.77901616121E+02  0.35132795296E+02  0.68604016439E+03  0.69135820835E+03  0.47000000000E+01 0. -1.
<mgrwt>
<rscale>  0 0.27519438E+03</rscale>
<asrwt>0</asrwt>
<pdfrwt beam="1">  1        2 0.41476118E+00 0.27519438E+03</pdfrwt>
<pdfrwt beam="2">  1       -2 0.10804242E-02 0.27519438E+03</pdfrwt>
<totfact> 0.59469091E+03</totfact>
</mgrwt>
</event>
<event>
 9    1  0.7997082E-001  0.2741577E+03  0.7818608E-02  0.1098923E+00
          2   -1    0    0  501    0  0.00000000000E+00  0.00000000000E+00  0.11398497758E+04  0.11398497758E+04  0.00000000000E+00 0. -1.
         -2   -1    0    0    0  501 -0.00000000000E+00 -0.00000000000E+00 -0.16485169370E+02  0.16485169370E+02  0.00000000000E+00 0. -1.
         35    2    1    2    0    0  0.00000000000E+00  0.17763568394E-14  0.11233646064E+04  0.11563349452E+04  0.27415774007E+03 0.  0.
         25    2    3    3    0    0  0.45556620834E+02 -0.13672263605E+02  0.67996081017E+03  0.69314290103E+03  0.12584928045E+03 0.  0.
         25    2    3    3    0    0 -0.45556620834E+02  0.13672263605E+02  0.44340379628E+03  0.46319204415E+03  0.12521025007E+03 0.  0.
          5    1    4    4  502    0  0.22170606256E+02 -0.93001853847E+01  0.17185927960E+02  0.29924494145E+02  0.47000000000E+01 0. -1.
         -5    1    4    4    0  502  0.23386014578E+02 -0.43720782206E+01  0.66277488221E+03  0.66321840689E+03  0.47000000000E+01 0. -1.
          5    1    5    5  503    0  0.12650248760E+02  0.26543051614E+02  0.35627402886E+03  0.35751620386E+03  0.47000000000E+01 0. -1.
         -5    1    5    5    0  503 -0.58206869594E+02 -0.12870788009E+02  0.87129767421E+02  0.10567584030E+03  0.47000000000E+01 0. -1.
<mgrwt>
<rscale>  0 0.27415774E+03</rscale>
<asrwt>0</asrwt>
<pdfrwt beam="1">  1        2 0.17536144E+00 0.27415774E+03</pdfrwt>
<pdfrwt beam="2">  1       -2 0.25361808E-02 0.27415774E+03</pdfrwt>
<totfact> 0.11754353E+04</totfact>
</mgrwt>
</event>
<event>
 9    1  0.7997082E-001  0.2792331E+03  0.7818608E-02  0.1096109E+00
         -2   -1    0    0    0  501 -0.00000000000E+00  0.00000000000E+00  0.11635088771E+02  0.11635088771E+02  0.00000000000E+00 0. -1.
          2   -1    0    0  501    0  0.00000000000E+00 -0.00000000000E+00 -0.16753440130E+04  0.16753440130E+04  0.00000000000E+00 0. -1.
         35    2    1    2    0    0 -0.35527136788E-14  0.17763568394E-14 -0.16637089242E+04  0.16869791018E+04  0.27923306619E+03 0.  0.
         25    2    3    3    0    0  0.18852179667E+02 -0.48296342270E+01 -0.44398345213E+03  0.46160455353E+03  0.12481477488E+03 0.  0.
         25    2    3    3    0    0 -0.18852179667E+02  0.48296342270E+01 -0.12197254721E+04  0.12253745482E+04  0.11590438365E+03 0.  0.
          5    1    4    4  502    0  0.27437560634E+02  0.94964751815E+01 -0.16412644121E+02  0.33681859531E+02  0.47000000000E+01 0.  1.
         -5    1    4    4    0  502 -0.85853809668E+01 -0.14326109408E+02 -0.42757080801E+03  0.42792269400E+03  0.47000000000E+01 0.  1.
          5    1    5    5  503    0 -0.12149868311E+02  0.16253479550E+02 -0.12044021302E+04  0.12045822414E+04  0.47000000000E+01 0.  1.
         -5    1    5    5    0  503 -0.67023113561E+01 -0.11423845323E+02 -0.15323341869E+02  0.20792306883E+02  0.47000000000E+01 0.  1.
<mgrwt>
<rscale>  0 0.27923307E+03</rscale>
<asrwt>0</asrwt>
<pdfrwt beam="1">  1        2 0.25774502E+00 0.27923307E+03</pdfrwt>
<pdfrwt beam="2">  1       -2 0.17900151E-02 0.27923307E+03</pdfrwt>
<totfact> 0.10023282E+04</totfact>
</mgrwt>
</event>
<event>
 9    1  0.7997082E-001  0.2703035E+03  0.7818608E-02  0.1101106E+00
          2   -1    0    0  501    0  0.00000000000E+00  0.00000000000E+00  0.31094103121E+03  0.31094103121E+03  0.00000000000E+00 0. -1.
         -2   -1    0    0    0  501 -0.00000000000E+00 -0.00000000000E+00 -0.58744242423E+02  0.58744242423E+02  0.00000000000E+00 0. -1.
         35    2    1    2    0    0  0.35527136788E-14 -0.71054273576E-14  0.25219678878E+03  0.36968527363E+03  0.27030349843E+03 0.  0.
         25    2    3    3    0    0 -0.31203630087E+02  0.26107648118E+02  0.16932064427E+03  0.21402400360E+03  0.12442474722E+03 0.  0.
         25    2    3    3    0    0  0.31203630087E+02 -0.26107648118E+02  0.82876144513E+02  0.15566127003E+03  0.12532637327E+03 0.  0.
          5    1    4    4  502    0 -0.35178399319E+02  0.70983610632E+02  0.13718378117E+03  0.15848555951E+03  0.47000000000E+01 0.  1.
         -5    1    4    4    0  502  0.39747692327E+01 -0.44875962513E+02  0.32136863101E+02  0.55538444090E+02  0.47000000000E+01 0.  1.
          5    1    5    5  503    0  0.67522083753E+02  0.69827499631E+00  0.86840401198E+02  0.11010478946E+03  0.47000000000E+01 0. -1.
         -5    1    5    5    0  503 -0.36318453666E+02 -0.26805923115E+02 -0.39642566850E+01  0.45556480568E+02  0.47000000000E+01 0. -1.
<mgrwt>
<rscale>  0 0.27030350E+03</rscale>
<asrwt>0</asrwt>
<pdfrwt beam="1">  1        2 0.47837081E-01 0.27030350E+03</pdfrwt>
<pdfrwt beam="2">  1       -2 0.90375760E-02 0.27030350E+03</pdfrwt>
<totfact> 0.81302042E+03</totfact>
</mgrwt>
</event>
<event>
 9    1  0.7997082E-001  0.2734974E+03  0.7818608E-02  0.1099294E+00
         -1   -1    0    0    0  501 -0.00000000000E+00  0.00000000000E+00  0.13225973343E+03  0.13225973343E+03  0.00000000000E+00 0. -1.
          1   -1    0    0  501    0  0.00000000000E+00 -0.00000000000E+00 -0.14139007092E+03  0.14139007092E+03  0.00000000000E+00 0. -1.
         35    2    1    2    0    0  0.00000000000E+00  0.00000000000E+00 -0.91303374855E+01  0.27364980435E+03  0.27349744489E+03 0.  0.
         25    2    3    3    0    0 -0.81072369735E+01  0.48267884557E+02 -0.34982208236E+02  0.13647424992E+03  0.12249877562E+03 0.  0.
         25    2    3    3    0    0  0.81072369735E+01 -0.48267884557E+02  0.25851870750E+02  0.13717555443E+03  0.12551214101E+03 0.  0.
          5    1    4    4  502    0 -0.32309988097E+02 -0.25318852805E+02 -0.41542232933E+02  0.58590329879E+02  0.47000000000E+01 0. -1.
         -5    1    4    4    0  502  0.24202751124E+02  0.73586737362E+02  0.65600246975E+01  0.77883920045E+02  0.47000000000E+01 0. -1.
          5    1    5    5  503    0  0.31264961763E+02  0.24006230988E+02  0.43732248994E+02  0.59062649470E+02  0.47000000000E+01 0. -1.
         -5    1    5    5    0  503 -0.23157724789E+02 -0.72274115545E+02 -0.17880378244E+02  0.78112904960E+02  0.47000000000E+01 0. -1.
<mgrwt>
<rscale>  0 0.27349744E+03</rscale>
<asrwt>0</asrwt>
<pdfrwt beam="1">  1        1 0.21752319E-01 0.27349744E+03</pdfrwt>
<pdfrwt beam="2">  1       -1 0.20347651E-01 0.27349744E+03</pdfrwt>
<totfact> 0.44582121E+03</totfact>
</mgrwt>
</event>
<event>
 9    1  0.7997082E-001  0.2740194E+03  0.7818608E-02  0.1099001E+00
         -2   -1    0    0    0  501 -0.00000000000E+00  0.00000000000E+00  0.10053588996E+02  0.10053588996E+02  0.00000000000E+00 0.  1.
          2   -1    0    0  501    0  0.00000000000E+00 -0.00000000000E+00 -0.18671592965E+04  0.18671592965E+04  0.00000000000E+00 0.  1.
         35    2    1    2    0    0  0.00000000000E+00 -0.14210854715E-13 -0.18571057075E+04  0.18772128855E+04  0.27401935813E+03 0.  0.
         25    2    3    3    0    0  0.17802419097E+02  0.35821914682E+02 -0.65868404600E+03  0.67165342494E+03  0.12511400832E+03 0.  0.
         25    2    3    3    0    0 -0.17802419097E+02 -0.35821914682E+02 -0.11984216615E+04  0.12055594606E+04  0.12473571456E+03 0.  0.
          5    1    4    4  502    0  0.51254905189E+02 -0.14667899086E+02 -0.47894569248E+03  0.48192663230E+03  0.47000000000E+01 0.  1.
         -5    1    4    4    0  502 -0.33452486093E+02  0.50489813768E+02 -0.17973835351E+03  0.18972679264E+03  0.47000000000E+01 0.  1.
          5    1    5    5  503    0  0.33902634770E+02 -0.54702778253E+02 -0.88151006892E+03  0.88386869738E+03  0.47000000000E+01 0.  1.
         -5    1    5    5    0  503 -0.51705053867E+02  0.18880863571E+02 -0.31691159262E+03  0.32169076322E+03  0.47000000000E+01 0.  1.
<mgrwt>
<rscale>  0 0.27401936E+03</rscale>
<asrwt>0</asrwt>
<pdfrwt beam="1">  1        2 0.28725552E+00 0.27401936E+03</pdfrwt>
<pdfrwt beam="2">  1       -2 0.15467047E-02 0.27401936E+03</pdfrwt>
<totfact> 0.98414886E+03</totfact>
</mgrwt>
</event>
<event>
 9    1  0.7997082E-001  0.2719769E+03  0.7818608E-02  0.1100153E+00
          1   -1    0    0  501    0  0.00000000000E+00  0.00000000000E+00  0.14992175573E+04  0.14992175573E+04  0.00000000000E+00 0. -1.
         -1   -1    0    0    0  501 -0.00000000000E+00 -0.00000000000E+00 -0.12335009563E+02  0.12335009563E+02  0.00000000000E+00 0. -1.
         35    2    1    2    0    0  0.00000000000E+00  0.00000000000E+00  0.14868825478E+04  0.15115525669E+04  0.27197693216E+03 0.  0.
         25    2    3    3    0    0 -0.60462638949E+01 -0.27931063116E+02  0.49652939469E+03  0.51283456835E+03  0.12506459572E+03 0.  0.
         25    2    3    3    0    0  0.60462638949E+01  0.27931063116E+02  0.99035315309E+03  0.99871799856E+03  0.12578382737E+03 0.  0.
          5    1    4    4  502    0 -0.11619702676E+02 -0.75976118071E+02  0.35302511832E+03  0.36132563177E+03  0.47000000000E+01 0. -1.
         -5    1    4    4    0  502  0.55734387809E+01  0.48045054955E+02  0.14350427637E+03  0.15150893658E+03  0.47000000000E+01 0. -1.
          5    1    5    5  503    0 -0.58501580955E+01 -0.27331690123E+02  0.78950244989E+03  0.79001104677E+03  0.47000000000E+01 0. -1.
         -5    1    5    5    0  503  0.11896421990E+02  0.55262753239E+02  0.20085070320E+03  0.20870695179E+03  0.47000000000E+01 0. -1.
<mgrwt>
<rscale>  0 0.27197693E+03</rscale>
<asrwt>0</asrwt>
<pdfrwt beam="1">  1        1 0.23064871E+00 0.27197693E+03</pdfrwt>
<pdfrwt beam="2">  1       -1 0.18976950E-02 0.27197693E+03</pdfrwt>
<totfact> 0.53046360E+03</totfact>
</mgrwt>
</event>
<event>
 9    1  0.7997082E-001  0.2730265E+03  0.7818608E-02  0.1099560E+00
         -1   -1    0    0    0  501 -0.00000000000E+00  0.00000000000E+00  0.29338726056E+02  0.29338726056E+02  0.00000000000E+00 0.  1.
          1   -1    0    0  501    0  0.00000000000E+00 -0.00000000000E+00 -0.63519686113E+03  0.63519686113E+03  0.00000000000E+00 0.  1.
         35    2    1    2    0    0 -0.88817841970E-14  0.71054273576E-14 -0.60585813507E+03  0.66453558718E+03  0.27302649469E+03 0.  0.
         25    2    3    3    0    0 -0.15482446345E+02 -0.19391674143E+02 -0.18133601836E+03  0.22158473513E+03  0.12490516450E+03 0.  0.
         25    2    3    3    0    0  0.15482446345E+02  0.19391674143E+02 -0.42452211671E+03  0.44295085205E+03  0.12397857309E+03 0.  0.
          5    1    4    4  502    0 -0.64430384857E+02 -0.34312403082E+02 -0.83011554127E+02  0.11064187099E+03  0.47000000000E+01 0.  1.
         -5    1    4    4    0  502  0.48947938512E+02  0.14920728939E+02 -0.98324464236E+02  0.11094286414E+03  0.47000000000E+01 0.  1.
          5    1    5    5  503    0  0.22114694473E+02 -0.67908630473E+01 -0.71305410772E+01  0.24659889469E+02  0.47000000000E+01 0.  1.
         -5    1    5    5    0  503 -0.66322481283E+01  0.26182537190E+02 -0.41739157563E+03  0.41829096258E+03  0.47000000000E+01 0.  1.
<mgrwt>
<rscale>  0 0.27302649E+03</rscale>
<asrwt>0</asrwt>
<pdfrwt beam="1">  1        1 0.97722597E-01 0.27302649E+03</pdfrwt>
<pdfrwt beam="2">  1       -1 0.45136500E-02 0.27302649E+03</pdfrwt>
<totfact> 0.66357991E+03</totfact>
</mgrwt>
</event>
<event>
 9    1  0.7997082E-001  0.2759440E+03  0.7818608E-02  0.1097925E+00
         -2   -1    0    0    0  501 -0.00000000000E+00  0.00000000000E+00  0.42459594449E+02  0.42459594449E+02  0.00000000000E+00 0. -1.
          2   -1    0    0  501    0  0.00000000000E+00 -0.00000000000E+00 -0.44833858710E+03  0.44833858710E+03  0.00000000000E+00 0. -1.
         35    2    1    2    0    0 -0.44408920985E-14 -0.71054273576E-14 -0.40587899265E+03  0.49079818155E+03  0.27594401305E+03 0.  0.
         25    2    3    3    0    0 -0.67996245315E+01  0.41254425935E+02 -0.19668424004E+03  0.23755376001E+03  0.12648690076E+03 0.  0.
         25    2    3    3    0    0  0.67996245315E+01 -0.41254425935E+02 -0.20919475261E+03  0.25324442154E+03  0.13646292524E+03 0.  0.
          5    1    4    4  502    0 -0.11338024104E+02 -0.44680109277E+01  0.15575366433E+02  0.20327221939E+02  0.47000000000E+01 0. -1.
         -5    1    4    4    0  502  0.45383995730E+01  0.45722436863E+02 -0.21225960647E+03  0.21722653807E+03  0.47000000000E+01 0. -1.
          5    1    5    5  503    0 -0.60430932888E+02 -0.10324323238E+02 -0.13501844352E+03  0.14835956117E+03  0.47000000000E+01 0. -1.
         -5    1    5    5    0  503  0.67230557419E+02 -0.30930102697E+02 -0.74176309091E+02  0.10488486037E+03  0.47000000000E+01 0. -1.
<mgrwt>
<rscale>  0 0.27594401E+03</rscale>
<asrwt>0</asrwt>
<pdfrwt beam="1">  1        2 0.68975165E-01 0.27594401E+03</pdfrwt>
<pdfrwt beam="2">  1       -2 0.65322455E-02 0.27594401E+03</pdfrwt>
<totfact> 0.90753055E+03</totfact>
</mgrwt>
</event>
<event>
 9    1  0.7997082E-001  0.2874030E+03  0.7818608E-02  0.1091713E+00
         -2   -1    0    0    0  501 -0.00000000000E+00  0.00000000000E+00  0.21433866345E+03  0.21433866345E+03  0.00000000000E+00 0. -1.
          2   -1    0    0  501    0  0.00000000000E+00 -0.00000000000E+00 -0.96343397168E+02  0.96343397168E+02  0.00000000000E+00 0. -1.
         35    2    1    2    0    0 -0.17763568394E-14 -0.22204460493E-14  0.11799526628E+03  0.31068206062E+03  0.28740295740E+03 0.  0.
         25    2    3    3    0    0 -0.32515350374E+01  0.28333815012E+01 -0.17404827228E+02  0.12629621103E+03  0.12501681638E+03 0.  0.
         25    2    3    3    0    0  0.32515350374E+01 -0.28333815012E+01  0.13540009351E+03  0.18438584959E+03  0.12508539353E+03 0.  0.
          5    1    4    4  502    0  0.99268603884E+01  0.62544946868E+02 -0.47820802778E+01  0.63681796674E+02  0.47000000000E+01 0.  1.
         -5    1    4    4    0  502 -0.13178395426E+02 -0.59711565367E+02 -0.12622746950E+02  0.62614414356E+02  0.47000000000E+01 0.  1.
          5    1    5    5  503    0 -0.24187852584E+02 -0.12337457520E+01  0.15061355938E+03  0.15262080006E+03  0.47000000000E+01 0. -1.
         -5    1    5    5    0  503  0.27439387622E+02 -0.15996357492E+01 -0.15213465873E+02  0.31765049527E+02  0.47000000000E+01 0. -1.
<mgrwt>
<rscale>  0 0.28740296E+03</rscale>
<asrwt>0</asrwt>
<pdfrwt beam="1">  1        2 0.14822061E-01 0.28740296E+03</pdfrwt>
<pdfrwt beam="2">  1       -2 0.32975179E-01 0.28740296E+03</pdfrwt>
<totfact> 0.33851888E+03</totfact>
</mgrwt>
</event>
<event>
 9    1  0.7997082E-001  0.2759700E+03  0.7818608E-02  0.1097911E+00
          2   -1    0    0  501    0  0.00000000000E+00  0.00000000000E+00  0.14474726801E+04  0.14474726801E+04  0.00000000000E+00 0.  1.
         -2   -1    0    0    0  501 -0.00000000000E+00 -0.00000000000E+00 -0.13153866606E+02  0.13153866606E+02  0.00000000000E+00 0.  1.
         35    2    1    2    0    0  0.00000000000E+00  0.71054273576E-14  0.14343188135E+04  0.14606265467E+04  0.27597001685E+03 0.  0.
         25    2    3    3    0    0 -0.19431095529E+02 -0.21697544286E+02  0.41417629422E+03  0.43218256489E+03  0.11996422716E+03 0.  0.
         25    2    3    3    0    0  0.19431095529E+02  0.21697544286E+02  0.10201425193E+04  0.10284439818E+04  0.12711378055E+03 0.  0.
          5    1    4    4  502    0 -0.27356952930E+02 -0.55241006114E+02  0.11131964922E+03  0.12733470043E+03  0.47000000000E+01 0.  1.
         -5    1    4    4    0  502  0.79258574009E+01  0.33543461829E+02  0.30285664499E+03  0.30484786446E+03  0.47000000000E+01 0.  1.
          5    1    5    5  503    0 -0.94687736521E+01  0.71475568178E+02  0.60682851979E+03  0.61111484760E+03  0.47000000000E+01 0.  1.
         -5    1    5    5    0  503  0.28899869181E+02 -0.49778023893E+02  0.41331399946E+03  0.41732913420E+03  0.47000000000E+01 0.  1.
<mgrwt>
<rscale>  0 0.27597002E+03</rscale>
<asrwt>0</asrwt>
<pdfrwt beam="1">  1        2 0.22268798E+00 0.27597002E+03</pdfrwt>
<pdfrwt beam="2">  1       -2 0.20236729E-02 0.27597002E+03</pdfrwt>
<totfact> 0.11064011E+04</totfact>
</mgrwt>
</event>
<event>
 9    1  0.7997082E-001  0.2757808E+03  0.7818608E-02  0.1098016E+00
          2   -1    0    0  501    0  0.00000000000E+00  0.00000000000E+00  0.85462677770E+02  0.85462677770E+02  0.00000000000E+00 0.  1.
         -2   -1    0    0    0  501 -0.00000000000E+00 -0.00000000000E+00 -0.22248026594E+03  0.22248026594E+03  0.00000000000E+00 0.  1.
         35    2    1    2    0    0  0.00000000000E+00  0.00000000000E+00 -0.13701758817E+03  0.30794294371E+03  0.27578077727E+03 0.  0.
         25    2    3    3    0    0  0.28162392048E+02  0.47772792791E+02 -0.43429315719E+02  0.14309574042E+03  0.12455892343E+03 0.  0.
         25    2    3    3    0    0 -0.28162392048E+02 -0.47772792791E+02 -0.93588272447E+02  0.16484720328E+03  0.12385667375E+03 0.  0.
          5    1    4    4  502    0  0.54740681225E+02 -0.82326604296E+01  0.15246036545E+02  0.57609465447E+02  0.47000000000E+01 0. -1.
         -5    1    4    4    0  502 -0.26578289177E+02  0.56005453221E+02 -0.58675352264E+02  0.85486274977E+02  0.47000000000E+01 0. -1.
          5    1    5    5  503    0 -0.89758132713E+01 -0.40677344350E+02 -0.12229801305E+03  0.12928304437E+03  0.47000000000E+01 0. -1.
         -5    1    5    5    0  503 -0.19186578777E+02 -0.70954484412E+01  0.28709740599E+02  0.35564158910E+02  0.47000000000E+01 0. -1.
<mgrwt>
<rscale>  0 0.27578078E+03</rscale>
<asrwt>0</asrwt>
<pdfrwt beam="1">  1        2 0.13148104E-01 0.27578078E+03</pdfrwt>
<pdfrwt beam="2">  1       -2 0.34227733E-01 0.27578078E+03</pdfrwt>
<totfact> 0.36420601E+03</totfact>
</mgrwt>
</event>
<event>
 9    1  0.7997082E-001  0.2736205E+03  0.7818608E-02  0.1099225E+00
         -2   -1    0    0    0  501 -0.00000000000E+00  0.00000000000E+00  0.25717375492E+03  0.25717375492E+03  0.00000000000E+00 0. -1.
          2   -1    0    0  501    0  0.00000000000E+00 -0.00000000000E+00 -0.72779749171E+02  0.72779749171E+02  0.00000000000E+00 0. -1.
         35    2    1    2    0    0  0.71054273576E-14  0.00000000000E+00  0.18439400575E+03  0.32995350409E+03  0.27362047713E+03 0.  0.
         25    2    3    3    0    0  0.33186394363E+02 -0.36439461708E+02  0.59632748952E+02  0.14698776322E+03  0.12498066510E+03 0.  0.
         25    2    3    3    0    0 -0.33186394363E+02  0.36439461708E+02  0.12476125680E+03  0.18296574087E+03  0.12442636374E+03 0.  0.
          5    1    4    4  502    0  0.45230178227E+02 -0.38311722366E+02  0.93434029668E+02  0.11075001126E+03  0.47000000000E+01 0.  1.
         -5    1    4    4    0  502 -0.12043783864E+02  0.18722606572E+01 -0.33801280716E+02  0.36237751969E+02  0.47000000000E+01 0.  1.
          5    1    5    5  503    0 -0.74952473090E+02  0.46994322259E+02  0.97653753723E+02  0.13185099606E+03  0.47000000000E+01 0.  1.
         -5    1    5    5    0  503  0.41766078727E+02 -0.10554860551E+02  0.27107503075E+02  0.51114744804E+02  0.47000000000E+01 0.  1.
<mgrwt>
<rscale>  0 0.27362048E+03</rscale>
<asrwt>0</asrwt>
<pdfrwt beam="1">  1        2 0.11196885E-01 0.27362048E+03</pdfrwt>
<pdfrwt beam="2">  1       -2 0.39565193E-01 0.27362048E+03</pdfrwt>
<totfact> 0.33703041E+03</totfact>
</mgrwt>
</event>
<event>
 9    1  0.7997082E-001  0.2715660E+03  0.7818608E-02  0.1100387E+00
         -1   -1    0    0    0  501 -0.00000000000E+00  0.00000000000E+00  0.47593474992E+02  0.47593474992E+02  0.00000000000E+00 0.  1.
          1   -1    0    0  501    0  0.00000000000E+00 -0.00000000000E+00 -0.38738560520E+03  0.38738560520E+03  0.00000000000E+00 0.  1.
         35    2    1    2    0    0 -0.35527136788E-14  0.35527136788E-14 -0.33979213021E+03  0.43497908019E+03  0.27156602964E+03 0.  0.
         25    2    3    3    0    0 -0.26200198505E+02 -0.10485515046E+02 -0.10061271108E+03  0.16361078143E+03  0.12589350159E+03 0.  0.
         25    2    3    3    0    0  0.26200198505E+02  0.10485515046E+02 -0.23917941913E+03  0.27136829876E+03  0.12505024033E+03 0.  0.
          5    1    4    4  502    0 -0.28030292059E+02  0.82330108105E+01  0.23628278695E+02  0.37866413799E+02  0.47000000000E+01 0.  1.
         -5    1    4    4    0  502  0.18300935538E+01 -0.18718525857E+02 -0.12424098977E+03  0.12574436763E+03  0.47000000000E+01 0.  1.
          5    1    5    5  503    0 -0.14880769688E+02  0.48581401180E+02 -0.41267490953E+02  0.65625343098E+02  0.47000000000E+01 0. -1.
         -5    1    5    5    0  503  0.41080968193E+02 -0.38095886134E+02 -0.19791192818E+03  0.20574295566E+03  0.47000000000E+01 0. -1.
<mgrwt>
<rscale>  0 0.27156603E+03</rscale>
<asrwt>0</asrwt>
<pdfrwt beam="1">  1        1 0.59597787E-01 0.27156603E+03</pdfrwt>
<pdfrwt beam="2">  1       -1 0.73220729E-02 0.27156603E+03</pdfrwt>
<totfact> 0.61884611E+03</totfact>
</mgrwt>
</event>
<event>
 9    1  0.7997082E-001  0.2728049E+03  0.7818608E-02  0.1099685E+00
          1   -1    0    0  501    0  0.00000000000E+00  0.00000000000E+00  0.16332974933E+03  0.16332974933E+03  0.00000000000E+00 0.  1.
         -1   -1    0    0    0  501 -0.00000000000E+00 -0.00000000000E+00 -0.11391454706E+03  0.11391454706E+03  0.00000000000E+00 0.  1.
         35    2    1    2    0    0  0.00000000000E+00  0.00000000000E+00  0.49415202269E+02  0.27724429639E+03  0.27280494435E+03 0.  0.
         25    2    3    3    0    0 -0.41886465389E+02 -0.18695474945E+02 -0.13027234812E+02  0.13382103672E+03  0.12503745141E+03 0.  0.
         25    2    3    3    0    0  0.41886465389E+02  0.18695474945E+02  0.62442437081E+02  0.14342325966E+03  0.12069455952E+03 0.  0.
          5    1    4    4  502    0 -0.49081947016E+02  0.29393792232E+01 -0.62193715115E+02  0.79421821138E+02  0.47000000000E+01 0.  1.
         -5    1    4    4    0  502  0.71954816275E+01 -0.21634854168E+02  0.49166480303E+02  0.54399215584E+02  0.47000000000E+01 0.  1.
          5    1    5    5  503    0  0.23535584712E+02  0.22035506914E+02 -0.32815156219E+02  0.46242964766E+02  0.47000000000E+01 0. -1.
         -5    1    5    5    0  503  0.18350880677E+02 -0.33400319690E+01  0.95257593300E+02  0.97180294898E+02  0.47000000000E+01 0. -1.
<mgrwt>
<rscale>  0 0.27280494E+03</rscale>
<asrwt>0</asrwt>
<pdfrwt beam="1">  1        1 0.25127654E-01 0.27280494E+03</pdfrwt>
<pdfrwt beam="2">  1       -1 0.17525315E-01 0.27280494E+03</pdfrwt>
<totfact> 0.47203934E+03</totfact>
</mgrwt>
</event>
<event>
 9    1  0.7997082E-001  0.2724297E+03  0.7818608E-02  0.1099897E+00
          4   -1    0    0  501    0  0.00000000000E+00  0.00000000000E+00  0.33850512628E+03  0.33850512628E+03  0.00000000000E+00 0. -1.
         -4   -1    0    0    0  501 -0.00000000000E+00 -0.00000000000E+00 -0.54812996755E+02  0.54812996755E+02  0.00000000000E+00 0. -1.
         35    2    1    2    0    0  0.00000000000E+00  0.14210854715E-13  0.28369212952E+03  0.39331812303E+03  0.27242966350E+03 0.  0.
         25    2    3    3    0    0 -0.36313607767E+02  0.42817240475E+02  0.14305673938E+03  0.19662887248E+03  0.12266086834E+03 0.  0.
         25    2    3    3    0    0  0.36313607767E+02 -0.42817240475E+02  0.14063539014E+03  0.19668925055E+03  0.12552431689E+03 0.  0.
          5    1    4    4  502    0 -0.81152311151E+02  0.20781979074E+02  0.78853942618E+02  0.11514174971E+03  0.47000000000E+01 0. -1.
         -5    1    4    4    0  502  0.44838703384E+02  0.22035261401E+02  0.64202796763E+02  0.81487122776E+02  0.47000000000E+01 0. -1.
          5    1    5    5  503    0  0.31980082876E+02 -0.76037324572E+02  0.42553267566E+02  0.92936919517E+02  0.47000000000E+01 0. -1.
         -5    1    5    5    0  503  0.43335248906E+01  0.33220084096E+02  0.98082122577E+02  0.10375233103E+03  0.47000000000E+01 0. -1.
<mgrwt>
<rscale>  0 0.27242966E+03</rscale>
<asrwt>0</asrwt>
<pdfrwt beam="1">  1        4 0.52077710E-01 0.27242966E+03</pdfrwt>
<pdfrwt beam="2">  1       -4 0.84327689E-02 0.27242966E+03</pdfrwt>
<totfact> 0.67522510E+02</totfact>
</mgrwt>
</event>
<event>
 9    1  0.7997082E-001  0.2758884E+03  0.7818608E-02  0.1097956E+00
         -2   -1    0    0    0  501 -0.00000000000E+00  0.00000000000E+00  0.31675681098E+02  0.31675681098E+02  0.00000000000E+00 0. -1.
          2   -1    0    0  501    0  0.00000000000E+00 -0.00000000000E+00 -0.60073238424E+03  0.60073238424E+03  0.00000000000E+00 0. -1.
         35    2    1    2    0    0  0.00000000000E+00  0.00000000000E+00 -0.56905670314E+03  0.63240806533E+03  0.27588843708E+03 0.  0.
         25    2    3    3    0    0  0.16558873102E+02 -0.54497441613E+02 -0.29171572672E+03  0.32267470945E+03  0.12560547554E+03 0.  0.
         25    2    3    3    0    0 -0.16558873102E+02  0.54497441613E+02 -0.27734097642E+03  0.30973335588E+03  0.12558888136E+03 0.  0.
          5    1    4    4  502    0  0.46979429517E+02 -0.31838013183E+02 -0.43831859121E+02  0.71861309167E+02  0.47000000000E+01 0.  1.
         -5    1    4    4    0  502 -0.30420556415E+02 -0.22659428430E+02 -0.24788386760E+03  0.25081340029E+03  0.47000000000E+01 0.  1.
          5    1    5    5  503    0 -0.52123826993E+02  0.50462011343E+02 -0.25944903490E+03  0.26944238649E+03  0.47000000000E+01 0.  1.
         -5    1    5    5    0  503  0.35564953891E+02  0.40354302698E+01 -0.17891941522E+02  0.40290969388E+02  0.47000000000E+01 0.  1.
<mgrwt>
<rscale>  0 0.27588844E+03</rscale>
<asrwt>0</asrwt>
<pdfrwt beam="1">  1        2 0.92420373E-01 0.27588844E+03</pdfrwt>
<pdfrwt beam="2">  1       -2 0.48731814E-02 0.27588844E+03</pdfrwt>
<totfact> 0.10212950E+04</totfact>
</mgrwt>
</event>
<event>
 9    1  0.7997082E-001  0.2766640E+03  0.7818608E-02  0.1097525E+00
          2   -1    0    0  501    0  0.00000000000E+00  0.00000000000E+00  0.93529981400E+03  0.93529981400E+03  0.00000000000E+00 0. -1.
         -2   -1    0    0    0  501 -0.00000000000E+00 -0.00000000000E+00 -0.20459468203E+02  0.20459468203E+02  0.00000000000E+00 0. -1.
         35    2    1    2    0    0  0.00000000000E+00  0.35527136788E-14  0.91484034580E+03  0.95575928220E+03  0.27666396082E+03 0.  0.
         25    2    3    3    0    0 -0.40782248227E+02 -0.46678837865E+01  0.28165001987E+03  0.30897949269E+03  0.12023565320E+03 0.  0.
         25    2    3    3    0    0  0.40782248227E+02  0.46678837865E+01  0.63319032593E+03  0.64677978951E+03  0.12533605373E+03 0.  0.
          5    1    4    4  502    0  0.84332988710E+00 -0.52431415145E+02  0.67498812298E+02  0.85603412087E+02  0.47000000000E+01 0. -1.
         -5    1    4    4    0  502 -0.41625578114E+02  0.47763531358E+02  0.21415120757E+03  0.22337608060E+03  0.47000000000E+01 0. -1.
          5    1    5    5  503    0  0.58674710870E+02 -0.89049167928E+01  0.61396772426E+03  0.61684720610E+03  0.47000000000E+01 0. -1.
         -5    1    5    5    0  503 -0.17892462643E+02  0.13572800579E+02  0.19222601669E+02  0.29932583416E+02  0.47000000000E+01 0. -1.
<mgrwt>
<rscale>  0 0.27666396E+03</rscale>
<asrwt>0</asrwt>
<pdfrwt beam="1">  1        2 0.14389225E+00 0.27666396E+03</pdfrwt>
<pdfrwt beam="2">  1       -2 0.31476112E-02 0.27666396E+03</pdfrwt>
<totfact> 0.11335558E+04</totfact>
</mgrwt>
</event>
<event>
 9    1  0.7997082E-001  0.2735247E+03  0.7818608E-02  0.1099279E+00
          2   -1    0    0  501    0  0.00000000000E+00  0.00000000000E+00  0.84960005487E+02  0.84960005487E+02  0.00000000000E+00 0.  1.
         -2   -1    0    0    0  501 -0.00000000000E+00 -0.00000000000E+00 -0.22014995312E+03  0.22014995312E+03  0.00000000000E+00 0.  1.
         35    2    1    2    0    0 -0.17763568394E-14  0.00000000000E+00 -0.13518994763E+03  0.30510995861E+03  0.27352470620E+03 0.  0.
         25    2    3    3    0    0 -0.12741499736E+02 -0.18138102026E+02 -0.10317103465E+03  0.17413517076E+03  0.13851880286E+03 0.  0.
         25    2    3    3    0    0  0.12741499736E+02  0.18138102026E+02 -0.32018912987E+02  0.13097478784E+03  0.12505138024E+03 0.  0.
          5    1    4    4  502    0 -0.13591817384E+02  0.41922002412E+02  0.10443360495E+02  0.45534004485E+02  0.47000000000E+01 0. -1.
         -5    1    4    4    0  502  0.85031764813E+00 -0.60060104438E+02 -0.11361439514E+03  0.12860116628E+03  0.47000000000E+01 0. -1.
          5    1    5    5  503    0 -0.33618912304E+02 -0.58149725134E+01  0.32846453614E+02  0.47592275475E+02  0.47000000000E+01 0. -1.
         -5    1    5    5    0  503  0.46360412040E+02  0.23953074540E+02 -0.64865366601E+02  0.83382512367E+02  0.47000000000E+01 0. -1.
<mgrwt>
<rscale>  0 0.27352471E+03</rscale>
<asrwt>0</asrwt>
<pdfrwt beam="1">  1        2 0.13070770E-01 0.27352471E+03</pdfrwt>
<pdfrwt beam="2">  1       -2 0.33869223E-01 0.27352471E+03</pdfrwt>
<totfact> 0.37394139E+03</totfact>
</mgrwt>
</event>
<event>
 9    1  0.7997082E-001  0.2770289E+03  0.7818608E-02  0.1097323E+00
         -2   -1    0    0    0  501 -0.00000000000E+00  0.00000000000E+00  0.22380288420E+02  0.22380288420E+02  0.00000000000E+00 0. -1.
          2   -1    0    0  501    0  0.00000000000E+00 -0.00000000000E+00 -0.85728359982E+03  0.85728359982E+03  0.00000000000E+00 0. -1.
         35    2    1    2    0    0  0.35527136788E-14  0.35527136788E-14 -0.83490331140E+03  0.87966388824E+03  0.27702890984E+03 0.  0.
         25    2    3    3    0    0 -0.17333085683E+02 -0.29368792297E+02 -0.54125473296E+03  0.55860266226E+03  0.13385546874E+03 0.  0.
         25    2    3    3    0    0  0.17333085683E+02  0.29368792297E+02 -0.29364857844E+03  0.32106122598E+03  0.12525119316E+03 0.  0.
          5    1    4    4  502    0 -0.22277404901E+02 -0.81293056891E+02 -0.37055754921E+03  0.38005240578E+03  0.47000000000E+01 0.  1.
         -5    1    4    4    0  502  0.49443192174E+01  0.51924264594E+02 -0.17069718375E+03  0.17855025647E+03  0.47000000000E+01 0.  1.
          5    1    5    5  503    0 -0.40654801399E+02 -0.25426920719E+02 -0.86221723505E+02  0.98770525858E+02  0.47000000000E+01 0.  1.
         -5    1    5    5    0  503  0.57987887082E+02  0.54795713016E+02 -0.20742685494E+03  0.22229070013E+03  0.47000000000E+01 0.  1.
<mgrwt>
<rscale>  0 0.27702891E+03</rscale>
<asrwt>0</asrwt>
<pdfrwt beam="1">  1        2 0.13188980E+00 0.27702891E+03</pdfrwt>
<pdfrwt beam="2">  1       -2 0.34431209E-02 0.27702891E+03</pdfrwt>
<totfact> 0.11138129E+04</totfact>
</mgrwt>
</event>
<event>
 9    1  0.7997082E-001  0.2764134E+03  0.7818608E-02  0.1097664E+00
          1   -1    0    0  501    0  0.00000000000E+00  0.00000000000E+00  0.32699656021E+03  0.32699656021E+03  0.00000000000E+00 0. -1.
         -1   -1    0    0    0  501 -0.00000000000E+00 -0.00000000000E+00 -0.58413722529E+02  0.58413722529E+02  0.00000000000E+00 0. -1.
         35    2    1    2    0    0  0.71054273576E-14  0.00000000000E+00  0.26858283768E+03  0.38541028274E+03  0.27641335956E+03 0.  0.
         25    2    3    3    0    0 -0.29901285680E+02 -0.49233852058E+02  0.11994839646E+03  0.18251076862E+03  0.12491798819E+03 0.  0.
         25    2    3    3    0    0  0.29901285680E+02  0.49233852058E+02  0.14863444122E+03  0.20289951412E+03  0.12553069999E+03 0.  0.
          5    1    4    4  502    0  0.27837696494E+02 -0.70298706050E+02  0.61708761327E+02  0.97708273155E+02  0.47000000000E+01 0.  1.
         -5    1    4    4    0  502 -0.57738982174E+02  0.21064853992E+02  0.58239635130E+02  0.84802495460E+02  0.47000000000E+01 0.  1.
          5    1    5    5  503    0  0.36585858487E+02  0.11793969141E+02  0.15863607980E+03  0.16329457604E+03  0.47000000000E+01 0. -1.
         -5    1    5    5    0  503 -0.66845728064E+01  0.37439882917E+02 -0.10001638577E+02  0.39604938084E+02  0.47000000000E+01 0. -1.
<mgrwt>
<rscale>  0 0.27641336E+03</rscale>
<asrwt>0</asrwt>
<pdfrwt beam="1">  1        1 0.50307162E-01 0.27641336E+03</pdfrwt>
<pdfrwt beam="2">  1       -1 0.89867267E-02 0.27641336E+03</pdfrwt>
<totfact> 0.56144549E+03</totfact>
</mgrwt>
</event>
<event>
 9    1  0.7997082E-001  0.2726738E+03  0.7818608E-02  0.1099759E+00
          2   -1    0    0  501    0  0.00000000000E+00  0.00000000000E+00  0.25585264678E+03  0.25585264678E+03  0.00000000000E+00 0.  1.
         -2   -1    0    0    0  501 -0.00000000000E+00 -0.00000000000E+00 -0.72650209464E+02  0.72650209464E+02  0.00000000000E+00 0.  1.
         35    2    1    2    0    0  0.35527136788E-14  0.00000000000E+00  0.18320243731E+03  0.32850285624E+03  0.27267378591E+03 0.  0.
         25    2    3    3    0    0  0.26955991699E+02 -0.28340197813E+02  0.44737125860E+02  0.13798258077E+03  0.12453107992E+03 0.  0.
         25    2    3    3    0    0 -0.26955991699E+02  0.28340197813E+02  0.13846531145E+03  0.19052027547E+03  0.12488210676E+03 0.  0.
          5    1    4    4  502    0 -0.47990969434E+02 -0.22237627876E+02  0.65130847818E+01  0.53499116947E+02  0.47000000000E+01 0.  1.
         -5    1    4    4    0  502  0.74946961133E+02 -0.61025699370E+01  0.38224041078E+02  0.84483463822E+02  0.47000000000E+01 0.  1.
          5    1    5    5  503    0 -0.54524730345E+02 -0.31579289223E+02  0.82331623882E+02  0.10378238780E+03  0.47000000000E+01 0. -1.
         -5    1    5    5    0  503  0.27568738646E+02  0.59919487036E+02  0.56133687572E+02  0.86737887671E+02  0.47000000000E+01 0. -1.
<mgrwt>
<rscale>  0 0.27267379E+03</rscale>
<asrwt>0</asrwt>
<pdfrwt beam="1">  1        2 0.39361945E-01 0.27267379E+03</pdfrwt>
<pdfrwt beam="2">  1       -2 0.11176955E-01 0.27267379E+03</pdfrwt>
<totfact> 0.71557592E+03</totfact>
</mgrwt>
</event>
<event>
 9    1  0.7997082E-001  0.2763397E+03  0.7818608E-02  0.1097705E+00
         -2   -1    0    0    0  501 -0.00000000000E+00  0.00000000000E+00  0.11591491798E+02  0.11591491798E+02  0.00000000000E+00 0.  1.
          2   -1    0    0  501    0  0.00000000000E+00 -0.00000000000E+00 -0.16469761781E+04  0.16469761781E+04  0.00000000000E+00 0.  1.
         35    2    1    2    0    0 -0.35527136788E-14  0.00000000000E+00 -0.16353846863E+04  0.16585676699E+04  0.27633972469E+03 0.  0.
         25    2    3    3    0    0 -0.31817815834E+02  0.33822640895E+02 -0.60616804430E+03  0.62079176348E+03  0.12564382688E+03 0.  0.
         25    2    3    3    0    0  0.31817815834E+02 -0.33822640895E+02 -0.10292166420E+04  0.10377759064E+04  0.12464185223E+03 0.  0.
          5    1    4    4  502    0 -0.64431872347E+02  0.50837692474E+02 -0.26107603593E+03  0.27371284897E+03  0.47000000000E+01 0. -1.
         -5    1    4    4    0  502  0.32614056513E+02 -0.17015051579E+02 -0.34509200836E+03  0.34707891451E+03  0.47000000000E+01 0. -1.
          5    1    5    5  503    0  0.19810878685E+02 -0.31949207116E+02 -0.10223426349E+04  0.10230443666E+04  0.47000000000E+01 0.  1.
         -5    1    5    5    0  503  0.12006937149E+02 -0.18734337799E+01 -0.68740070960E+01  0.14731539885E+02  0.47000000000E+01 0.  1.
<mgrwt>
<rscale>  0 0.27633972E+03</rscale>
<asrwt>0</asrwt>
<pdfrwt beam="1">  1        2 0.25338109E+00 0.27633972E+03</pdfrwt>
<pdfrwt beam="2">  1       -2 0.17833054E-02 0.27633972E+03</pdfrwt>
<totfact> 0.10430489E+04</totfact>
</mgrwt>
</event>
<event>
 9    1  0.7997082E-001  0.2798445E+03  0.7818608E-02  0.1095774E+00
          2   -1    0    0  501    0  0.00000000000E+00  0.00000000000E+00  0.20278984362E+04  0.20278984362E+04  0.00000000000E+00 0. -1.
         -2   -1    0    0    0  501 -0.00000000000E+00 -0.00000000000E+00 -0.96544494500E+01  0.96544494500E+01  0.00000000000E+00 0. -1.
         35    2    1    2    0    0  0.00000000000E+00  0.00000000000E+00  0.20182439868E+04  0.20375528857E+04  0.27984454929E+03 0.  0.
         25    2    3    3    0    0 -0.40055128981E+02  0.16304401116E+02  0.71236784005E+03  0.72486021185E+03  0.12682326416E+03 0.  0.
         25    2    3    3    0    0  0.40055128981E+02 -0.16304401116E+02  0.13058761467E+04  0.13126926738E+04  0.12640924996E+03 0.  0.
          5    1    4    4  502    0 -0.58896356553E+02  0.55570309881E+02  0.57457954764E+03  0.58027630205E+03  0.47000000000E+01 0.  1.
         -5    1    4    4    0  502  0.18841227572E+02 -0.39265908765E+02  0.13778829242E+03  0.14458390981E+03  0.47000000000E+01 0.  1.
          5    1    5    5  503    0  0.65632116895E+02 -0.51580283382E+02  0.65017623185E+03  0.65552980318E+03  0.47000000000E+01 0.  1.
         -5    1    5    5    0  503 -0.25576987914E+02  0.35275882266E+02  0.65569991487E+03  0.65716287063E+03  0.47000000000E+01 0.  1.
<mgrwt>
<rscale>  0 0.27984455E+03</rscale>
<asrwt>0</asrwt>
<pdfrwt beam="1">  1        2 0.31198404E+00 0.27984455E+03</pdfrwt>
<pdfrwt beam="2">  1       -2 0.14853015E-02 0.27984455E+03</pdfrwt>
<totfact> 0.85982456E+03</totfact>
</mgrwt>
</event>
<event>
 9    1  0.7997082E-001  0.2760579E+03  0.7818608E-02  0.1097862E+00
          1   -1    0    0  501    0  0.00000000000E+00  0.00000000000E+00  0.15597922559E+04  0.15597922559E+04  0.00000000000E+00 0. -1.
         -1   -1    0    0    0  501 -0.00000000000E+00 -0.00000000000E+00 -0.12214441331E+02  0.12214441331E+02  0.00000000000E+00 0. -1.
         35    2    1    2    0    0  0.00000000000E+00  0.71054273576E-14  0.15475778145E+04  0.15720066972E+04  0.27605789971E+03 0.  0.
         25    2    3    3    0    0  0.33033454726E+02  0.44065045599E+02  0.74327428371E+03  0.75617038110E+03  0.12768730185E+03 0.  0.
         25    2    3    3    0    0 -0.33033454726E+02 -0.44065045599E+02  0.80430353083E+03  0.81583631610E+03  0.12510710447E+03 0.  0.
          5    1    4    4  502    0 -0.54226572208E+00 -0.29432706874E+02  0.47542528973E+03  0.47635897641E+03  0.47000000000E+01 0. -1.
         -5    1    4    4    0  502  0.33575720448E+02  0.73497752472E+02  0.26784899398E+03  0.27981140469E+03  0.47000000000E+01 0. -1.
          5    1    5    5  503    0 -0.58025760855E+02  0.23139265584E+02  0.44807586286E+03  0.45243395475E+03  0.47000000000E+01 0.  1.
         -5    1    5    5    0  503  0.24992306129E+02 -0.67204311183E+02  0.35622766797E+03  0.36340236135E+03  0.47000000000E+01 0.  1.
<mgrwt>
<rscale>  0 0.27605790E+03</rscale>
<asrwt>0</asrwt>
<pdfrwt beam="1">  1        1 0.23996788E+00 0.27605790E+03</pdfrwt>
<pdfrwt beam="2">  1       -1 0.18791461E-02 0.27605790E+03</pdfrwt>
<totfact> 0.49080452E+03</totfact>
</mgrwt>
</event>
<event>
 9    1  0.7997082E-001  0.2749061E+03  0.7818608E-02  0.1098504E+00
         -4   -1    0    0    0  501 -0.00000000000E+00  0.00000000000E+00  0.51999675429E+02  0.51999675429E+02  0.00000000000E+00 0. -1.
          4   -1    0    0  501    0  0.00000000000E+00 -0.00000000000E+00 -0.36333566646E+03  0.36333566646E+03  0.00000000000E+00 0. -1.
         35    2    1    2    0    0  0.14210854715E-13  0.35527136788E-14 -0.31133599103E+03  0.41533534189E+03  0.27490606925E+03 0.  0.
         25    2    3    3    0    0  0.50705388587E+02  0.25563342519E+02 -0.17134403628E+03  0.21939508059E+03  0.12470325459E+03 0.  0.
         25    2    3    3    0    0 -0.50705388587E+02 -0.25563342519E+02 -0.13999195475E+03  0.19594026130E+03  0.12478107906E+03 0.  0.
          5    1    4    4  502    0 -0.24048175438E+02  0.51525359611E+02 -0.60958786582E+02  0.83493958383E+02  0.47000000000E+01 0. -1.
         -5    1    4    4    0  502  0.74753564025E+02 -0.25962017093E+02 -0.11038524970E+03  0.13590112221E+03  0.47000000000E+01 0. -1.
          5    1    5    5  503    0 -0.27715807260E+02  0.31836114359E+02  0.38941047864E+00  0.42472882997E+02  0.47000000000E+01 0.  1.
         -5    1    5    5    0  503 -0.22989581327E+02 -0.57399456878E+02 -0.14038136523E+03  0.15346737830E+03  0.47000000000E+01 0.  1.
<mgrwt>
<rscale>  0 0.27490607E+03</rscale>
<asrwt>0</asrwt>
<pdfrwt beam="1">  1        4 0.55897794E-01 0.27490607E+03</pdfrwt>
<pdfrwt beam="2">  1       -4 0.79999502E-02 0.27490607E+03</pdfrwt>
<totfact> 0.63717882E+02</totfact>
</mgrwt>
</event>
<event>
 9    1  0.7997082E-001  0.2740949E+03  0.7818608E-02  0.1098959E+00
         -1   -1    0    0    0  501 -0.00000000000E+00  0.00000000000E+00  0.25365809996E+02  0.25365809996E+02  0.00000000000E+00 0.  1.
          1   -1    0    0  501    0  0.00000000000E+00 -0.00000000000E+00 -0.74044568880E+03  0.74044568880E+03  0.00000000000E+00 0.  1.
         35    2    1    2    0    0  0.14210854715E-13  0.00000000000E+00 -0.71507987881E+03  0.76581149880E+03  0.27409490805E+03 0.  0.
         25    2    3    3    0    0 -0.49759400140E+02 -0.16733807084E+02 -0.41446276866E+03  0.43599132744E+03  0.12471179894E+03 0.  0.
         25    2    3    3    0    0  0.49759400140E+02  0.16733807084E+02 -0.30061711015E+03  0.32982017136E+03  0.12511866496E+03 0.  0.
          5    1    4    4  502    0 -0.12941841251E+01 -0.49120927212E+02 -0.64735127150E+02  0.81408028411E+02  0.47000000000E+01 0.  1.
         -5    1    4    4    0  502 -0.48465216014E+02  0.32387120128E+02 -0.34972764151E+03  0.35458329903E+03  0.47000000000E+01 0.  1.
          5    1    5    5  503    0  0.84287579050E+01  0.66996748723E+02 -0.11990713762E+03  0.13769320954E+03  0.47000000000E+01 0. -1.
         -5    1    5    5    0  503  0.41330642235E+02 -0.50262941640E+02 -0.18070997252E+03  0.19212696182E+03  0.47000000000E+01 0. -1.
<mgrwt>
<rscale>  0 0.27409491E+03</rscale>
<asrwt>0</asrwt>
<pdfrwt beam="1">  1        1 0.11391472E+00 0.27409491E+03</pdfrwt>
<pdfrwt beam="2">  1       -1 0.39024323E-02 0.27409491E+03</pdfrwt>
<totfact> 0.65997491E+03</totfact>
</mgrwt>
</event>
<event>
 9    1  0.7997082E-001  0.2751936E+03  0.7818608E-02  0.1098343E+00
          1   -1    0    0  501    0  0.00000000000E+00  0.00000000000E+00  0.32890946496E+03  0.32890946496E+03  0.00000000000E+00 0.  1.
         -1   -1    0    0    0  501 -0.00000000000E+00 -0.00000000000E+00 -0.57562566498E+02  0.57562566498E+02  0.00000000000E+00 0.  1.
         35    2    1    2    0    0  0.17763568394E-14 -0.71054273576E-14  0.27134689847E+03  0.38647203146E+03  0.27519355333E+03 0.  0.
         25    2    3    3    0    0 -0.97411877123E+01 -0.34996595847E+02  0.13914811248E+03  0.19077018186E+03  0.12534517390E+03 0.  0.
         25    2    3    3    0    0  0.97411877123E+01  0.34996595847E+02  0.13219878599E+03  0.19570184960E+03  0.13965329378E+03 0.  0.
          5    1    4    4  502    0  0.12588195387E+02  0.44814527875E+02  0.59902614543E+02  0.76008011425E+02  0.47000000000E+01 0.  1.
         -5    1    4    4    0  502 -0.22329383099E+02 -0.79811123722E+02  0.79245497937E+02  0.11476217043E+03  0.47000000000E+01 0.  1.
          5    1    5    5  503    0  0.48762959847E+01 -0.16830315623E+02 -0.24517411804E+02  0.30499692918E+02  0.47000000000E+01 0.  1.
         -5    1    5    5    0  503  0.48648917276E+01  0.51826911470E+02  0.15671619779E+03  0.16520215669E+03  0.47000000000E+01 0.  1.
<mgrwt>
<rscale>  0 0.27519355E+03</rscale>
<asrwt>0</asrwt>
<pdfrwt beam="1">  1        1 0.50601455E-01 0.27519355E+03</pdfrwt>
<pdfrwt beam="2">  1       -1 0.88557797E-02 0.27519355E+03</pdfrwt>
<totfact> 0.56995160E+03</totfact>
</mgrwt>
</event>
<event>
 9    1  0.7997082E-001  0.3277574E+03  0.7818608E-02  0.1072133E+00
          1   -1    0    0  501    0  0.00000000000E+00  0.00000000000E+00  0.15446145235E+03  0.15446145235E+03  0.00000000000E+00 0.  1.
         -1   -1    0    0    0  501 -0.00000000000E+00 -0.00000000000E+00 -0.17387007262E+03  0.17387007262E+03  0.00000000000E+00 0.  1.
         35    2    1    2    0    0 -0.13322676296E-14  0.71054273576E-14 -0.19408620271E+02  0.32833152498E+03  0.32775737330E+03 0.  0.
         25    2    3    3    0    0  0.37217016668E+01 -0.57186651615E+02 -0.10582351611E+03  0.16594952146E+03  0.11426488054E+03 0.  0.
         25    2    3    3    0    0 -0.37217016668E+01  0.57186651615E+02  0.86414895840E+02  0.16238200351E+03  0.12496486169E+03 0.  0.
          5    1    4    4  502    0  0.47291944211E+02 -0.20488584029E+02 -0.76045287273E+01  0.52308975520E+02  0.47000000000E+01 0. -1.
         -5    1    4    4    0  502 -0.43570242544E+02 -0.36698067586E+02 -0.98218987384E+02  0.11364054594E+03  0.47000000000E+01 0. -1.
          5    1    5    5  503    0 -0.71221737495E+01  0.96121827850E+02  0.49671348962E+02  0.10853323941E+03  0.47000000000E+01 0.  1.
         -5    1    5    5    0  503  0.34004720827E+01 -0.38935176235E+02  0.36743546878E+02  0.53848764109E+02  0.47000000000E+01 0.  1.
<mgrwt>
<rscale>  0 0.32775737E+03</rscale>
<asrwt>0</asrwt>
<pdfrwt beam="1">  1        1 0.23763300E-01 0.32775737E+03</pdfrwt>
<pdfrwt beam="2">  1       -1 0.26749242E-01 0.32775737E+03</pdfrwt>
<totfact> 0.25417100E+03</totfact>
</mgrwt>
</event>
<event>
 9    1  0.7997082E-001  0.2729647E+03  0.7818608E-02  0.1099595E+00
          2   -1    0    0  501    0  0.00000000000E+00  0.00000000000E+00  0.10760761018E+03  0.10760761018E+03  0.00000000000E+00 0. -1.
         -2   -1    0    0    0  501 -0.00000000000E+00 -0.00000000000E+00 -0.17310519081E+03  0.17310519081E+03  0.00000000000E+00 0. -1.
         35    2    1    2    0    0  0.71054273576E-14 -0.71054273576E-14 -0.65497580625E+02  0.28071280099E+03  0.27296472954E+03 0.  0.
         25    2    3    3    0    0  0.18513110575E+02 -0.45433327489E+02 -0.90979760789E+01  0.13514587567E+03  0.12559742049E+03 0.  0.
         25    2    3    3    0    0 -0.18513110575E+02  0.45433327489E+02 -0.56399604546E+02  0.14556692531E+03  0.12490753317E+03 0.  0.
          5    1    4    4  502    0  0.15149636697E+02 -0.86793828205E+02  0.10792043983E+02  0.88888909994E+02  0.47000000000E+01 0.  1.
         -5    1    4    4    0  502  0.33634738781E+01  0.41360500715E+02 -0.19890020062E+02  0.46256965681E+02  0.47000000000E+01 0.  1.
          5    1    5    5  503    0  0.42600128264E+02  0.88810099950E+01  0.13367558127E+02  0.45764886943E+02  0.47000000000E+01 0.  1.
         -5    1    5    5    0  503 -0.61113238839E+02  0.36552317494E+02 -0.69767162673E+02  0.99802038371E+02  0.47000000000E+01 0.  1.
<mgrwt>
<rscale>  0 0.27296473E+03</rscale>
<asrwt>0</asrwt>
<pdfrwt beam="1">  1        2 0.16555017E-01 0.27296473E+03</pdfrwt>
<pdfrwt beam="2">  1       -2 0.26631568E-01 0.27296473E+03</pdfrwt>
<totfact> 0.43704163E+03</totfact>
</mgrwt>
</event>
<event>
 9    1  0.7997082E-001  0.2738827E+03  0.7818608E-02  0.1099078E+00
         -2   -1    0    0    0  501 -0.00000000000E+00  0.00000000000E+00  0.11023686647E+02  0.11023686647E+02  0.00000000000E+00 0.  1.
          2   -1    0    0  501    0  0.00000000000E+00 -0.00000000000E+00 -0.17011485410E+04  0.17011485410E+04  0.00000000000E+00 0.  1.
         35    2    1    2    0    0 -0.88817841970E-15  0.71054273576E-14 -0.16901248544E+04  0.17121722276E+04  0.27388266434E+03 0.  0.
         25    2    3    3    0    0 -0.27427541034E+01 -0.59149644524E+02 -0.86197778282E+03  0.87239523537E+03  0.12067122891E+03 0.  0.
         25    2    3    3    0    0  0.27427541034E+01  0.59149644524E+02 -0.82814707154E+03  0.83977699227E+03  0.12606197487E+03 0.  0.
          5    1    4    4  502    0  0.75080801008E+01 -0.93915176809E+02 -0.52165533070E+03  0.53011584182E+03  0.47000000000E+01 0. -1.
         -5    1    4    4    0  502 -0.10250834204E+02  0.34765532284E+02 -0.34032245212E+03  0.34227939355E+03  0.47000000000E+01 0. -1.
          5    1    5    5  503    0 -0.23314189242E+02  0.26237391734E+02 -0.75090414745E+03  0.75173870514E+03  0.47000000000E+01 0. -1.
         -5    1    5    5    0  503  0.26056943345E+02  0.32912252791E+02 -0.77242924089E+02  0.88038287138E+02  0.47000000000E+01 0. -1.
<mgrwt>
<rscale>  0 0.27388266E+03</rscale>
<asrwt>0</asrwt>
<pdfrwt beam="1">  1        2 0.26171526E+00 0.27388266E+03</pdfrwt>
<pdfrwt beam="2">  1       -2 0.16959511E-02 0.27388266E+03</pdfrwt>
<totfact> 0.10511525E+04</totfact>
</mgrwt>
</event>
<event>
 9    1  0.7997082E-001  0.2743130E+03  0.7818608E-02  0.1098836E+00
          2   -1    0    0  501    0  0.00000000000E+00  0.00000000000E+00  0.34979865822E+02  0.34979865822E+02  0.00000000000E+00 0.  1.
         -2   -1    0    0    0  501 -0.00000000000E+00 -0.00000000000E+00 -0.53779257791E+03  0.53779257791E+03  0.00000000000E+00 0.  1.
         35    2    1    2    0    0  0.00000000000E+00  0.14210854715E-13 -0.50281271209E+03  0.57277244374E+03  0.27431304902E+03 0.  0.
         25    2    3    3    0    0  0.34026188561E+02  0.35823502325E+02 -0.30388024375E+03  0.33269240458E+03  0.12609491939E+03 0.  0.
         25    2    3    3    0    0 -0.34026188561E+02 -0.35823502325E+02 -0.19893246834E+03  0.24008003916E+03  0.12499277345E+03 0.  0.
          5    1    4    4  502    0  0.36763206156E+02  0.74331900254E+02 -0.12817086301E+03  0.15273056291E+03  0.47000000000E+01 0. -1.
         -5    1    4    4    0  502 -0.27370175951E+01 -0.38508397929E+02 -0.17570938074E+03  0.17996184166E+03  0.47000000000E+01 0. -1.
          5    1    5    5  503    0 -0.42035639996E+02 -0.75285774354E+02 -0.94284172831E+02  0.12785358069E+03  0.47000000000E+01 0.  1.
         -5    1    5    5    0  503  0.80094514352E+01  0.39462272029E+02 -0.10464829551E+03  0.11222645846E+03  0.47000000000E+01 0.  1.
<mgrwt>
<rscale>  0 0.27431305E+03</rscale>
<asrwt>0</asrwt>
<pdfrwt beam="1">  1        2 0.53815184E-02 0.27431305E+03</pdfrwt>
<pdfrwt beam="2">  1       -2 0.82737311E-01 0.27431305E+03</pdfrwt>
<totfact> 0.18810896E+03</totfact>
</mgrwt>
</event>
<event>
 9    1  0.7997082E-001  0.2753548E+03  0.7818608E-02  0.1098253E+00
         -4   -1    0    0    0  501 -0.00000000000E+00  0.00000000000E+00  0.34958274262E+02  0.34958274262E+02  0.00000000000E+00 0.  1.
          4   -1    0    0  501    0  0.00000000000E+00 -0.00000000000E+00 -0.54221970942E+03  0.54221970942E+03  0.00000000000E+00 0.  1.
         35    2    1    2    0    0  0.71054273576E-14  0.00000000000E+00 -0.50726143516E+03  0.57717798368E+03  0.27535479159E+03 0.  0.
         25    2    3    3    0    0 -0.29313693128E+02 -0.48571571603E+02 -0.22258141749E+03  0.26135878571E+03  0.12468936315E+03 0.  0.
         25    2    3    3    0    0  0.29313693128E+02  0.48571571603E+02 -0.28468001767E+03  0.31581919798E+03  0.12442091133E+03 0.  0.
          5    1    4    4  502    0  0.15988717118E+01 -0.38910320162E+02 -0.22514090588E+03  0.22853246357E+03  0.47000000000E+01 0. -1.
         -5    1    4    4    0  502 -0.30912564840E+02 -0.96612514410E+01  0.25594883875E+01  0.32826322139E+02  0.47000000000E+01 0. -1.
          5    1    5    5  503    0  0.47477204011E+02  0.24967984486E+02 -0.34772150328E+02  0.64098967140E+02  0.47000000000E+01 0. -1.
         -5    1    5    5    0  503 -0.18163510882E+02  0.23603587118E+02 -0.24990786734E+03  0.25172023084E+03  0.47000000000E+01 0. -1.
<mgrwt>
<rscale>  0 0.27535479E+03</rscale>
<asrwt>0</asrwt>
<pdfrwt beam="1">  1        4 0.83418415E-01 0.27535479E+03</pdfrwt>
<pdfrwt beam="2">  1       -4 0.53781961E-02 0.27535479E+03</pdfrwt>
<totfact> 0.51413139E+02</totfact>
</mgrwt>
</event>
<event>
 9    1  0.7997082E-001  0.2761811E+03  0.7818608E-02  0.1097793E+00
         -2   -1    0    0    0  501 -0.00000000000E+00  0.00000000000E+00  0.19473627076E+03  0.19473627076E+03  0.00000000000E+00 0. -1.
          2   -1    0    0  501    0  0.00000000000E+00 -0.00000000000E+00 -0.97922184511E+02  0.97922184511E+02  0.00000000000E+00 0. -1.
         35    2    1    2    0    0 -0.17763568394E-14  0.00000000000E+00  0.96814086250E+02  0.29265845527E+03  0.27618110751E+03 0.  0.
         25    2    3    3    0    0 -0.14252289767E+01  0.53909481644E+02  0.23826621155E+02  0.13772208359E+03  0.12446445655E+03 0.  0.
         25    2    3    3    0    0  0.14252289767E+01 -0.53909481644E+02  0.72987465095E+02  0.15493637168E+03  0.12557804633E+03 0.  0.
          5    1    4    4  502    0  0.42179457887E+02 -0.11169541853E+02  0.37908006320E+02  0.57991139634E+02  0.47000000000E+01 0. -1.
         -5    1    4    4    0  502 -0.43604686864E+02  0.65079023497E+02 -0.14081385165E+02  0.79730943955E+02  0.47000000000E+01 0. -1.
          5    1    5    5  503    0 -0.12152614116E+02  0.29209401326E+02 -0.12961502858E+02  0.34510371079E+02  0.47000000000E+01 0. -1.
         -5    1    5    5    0  503  0.13577843092E+02 -0.83118882970E+02  0.85948967953E+02  0.12042600060E+03  0.47000000000E+01 0. -1.
<mgrwt>
<rscale>  0 0.27618111E+03</rscale>
<asrwt>0</asrwt>
<pdfrwt beam="1">  1        2 0.15064951E-01 0.27618111E+03</pdfrwt>
<pdfrwt beam="2">  1       -2 0.29959426E-01 0.27618111E+03</pdfrwt>
<totfact> 0.39534678E+03</totfact>
</mgrwt>
</event>
<event>
 9    1  0.7997082E-001  0.2754123E+03  0.7818608E-02  0.1098221E+00
         -4   -1    0    0    0  501 -0.00000000000E+00  0.00000000000E+00  0.94376461692E+02  0.94376461692E+02  0.00000000000E+00 0.  1.
          4   -1    0    0  501    0  0.00000000000E+00 -0.00000000000E+00 -0.20092923023E+03  0.20092923023E+03  0.00000000000E+00 0.  1.
         35    2    1    2    0    0  0.71054273576E-14 -0.71054273576E-14 -0.10655276854E+03  0.29530569192E+03  0.27541234395E+03 0.  0.
         25    2    3    3    0    0 -0.33842153174E+02  0.43777154184E+02 -0.25187146114E+02  0.13986016567E+03  0.12595532165E+03 0.  0.
         25    2    3    3    0    0  0.33842153174E+02 -0.43777154184E+02 -0.81365622427E+02  0.15544552625E+03  0.12033792652E+03 0.  0.
          5    1    4    4  502    0 -0.36501058273E+02  0.39251322850E+02 -0.73470244816E+02  0.91065693178E+02  0.47000000000E+01 0. -1.
         -5    1    4    4    0  502  0.26589050992E+01  0.45258313336E+01  0.48283098702E+02  0.48794472492E+02  0.47000000000E+01 0. -1.
          5    1    5    5  503    0  0.46574486439E+02 -0.15046127661E+02 -0.10493461960E+03  0.11588327375E+03  0.47000000000E+01 0. -1.
         -5    1    5    5    0  503 -0.12732333264E+02 -0.28731026523E+02  0.23568997173E+02  0.39562252504E+02  0.47000000000E+01 0. -1.
<mgrwt>
<rscale>  0 0.27541234E+03</rscale>
<asrwt>0</asrwt>
<pdfrwt beam="1">  1        4 0.30912189E-01 0.27541234E+03</pdfrwt>
<pdfrwt beam="2">  1       -4 0.14519456E-01 0.27541234E+03</pdfrwt>
<totfact> 0.75171383E+02</totfact>
</mgrwt>
</event>
<event>
 9    1  0.7997082E-001  0.2757107E+03  0.7818608E-02  0.1098055E+00
         -1   -1    0    0    0  501 -0.00000000000E+00  0.00000000000E+00  0.11411895226E+03  0.11411895226E+03  0.00000000000E+00 0.  1.
          1   -1    0    0  501    0  0.00000000000E+00 -0.00000000000E+00 -0.16652887874E+03  0.16652887874E+03  0.00000000000E+00 0.  1.
         35    2    1    2    0    0  0.00000000000E+00 -0.71054273576E-14 -0.52409926482E+02  0.28064783100E+03  0.27571072640E+03 0.  0.
         25    2    3    3    0    0 -0.34381412564E+02 -0.14464118730E+02  0.18283207904E+02  0.13171674734E+03  0.12499493421E+03 0.  0.
         25    2    3    3    0    0  0.34381412564E+02  0.14464118730E+02 -0.70693134386E+02  0.14893108366E+03  0.12566485654E+03 0.  0.
          5    1    4    4  502    0 -0.51956395185E+02 -0.58444348226E+02 -0.54555952766E+01  0.78530645992E+02  0.47000000000E+01 0. -1.
         -5    1    4    4    0  502  0.17574982621E+02  0.43980229496E+02  0.23738803181E+02  0.53186101353E+02  0.47000000000E+01 0. -1.
          5    1    5    5  503    0 -0.90151416395E+01 -0.33133477837E+02  0.18127892180E+02  0.39112793396E+02  0.47000000000E+01 0.  1.
         -5    1    5    5    0  503  0.43396554203E+02  0.47597596567E+02 -0.88821026566E+02  0.10981829026E+03  0.47000000000E+01 0.  1.
<mgrwt>
<rscale>  0 0.27571073E+03</rscale>
<asrwt>0</asrwt>
<pdfrwt beam="1">  1        1 0.25619827E-01 0.27571073E+03</pdfrwt>
<pdfrwt beam="2">  1       -1 0.17556762E-01 0.27571073E+03</pdfrwt>
<totfact> 0.45936659E+03</totfact>
</mgrwt>
</event>
<event>
 9    1  0.7997082E-001  0.3063017E+03  0.7818608E-02  0.1082132E+00
          2   -1    0    0  501    0  0.00000000000E+00  0.00000000000E+00  0.78321083059E+03  0.78321083059E+03  0.00000000000E+00 0. -1.
         -2   -1    0    0    0  501 -0.00000000000E+00 -0.00000000000E+00 -0.29947461187E+02  0.29947461187E+02  0.00000000000E+00 0. -1.
         35    2    1    2    0    0 -0.35527136788E-14  0.00000000000E+00  0.75326336940E+03  0.81315829178E+03  0.30630165491E+03 0.  0.
         25    2    3    3    0    0  0.29079747491E+02 -0.70375411249E+02  0.49740632577E+03  0.51834893554E+03  0.12439548158E+03 0.  0.
         25    2    3    3    0    0 -0.29079747491E+02  0.70375411249E+02  0.25585704363E+03  0.29480935623E+03  0.12510555353E+03 0.  0.
          5    1    4    4  502    0  0.26050759672E+02 -0.49351790015E+02  0.49297738100E+03  0.49614819301E+03  0.47000000000E+01 0. -1.
         -5    1    4    4    0  502  0.30289878188E+01 -0.21023621234E+02  0.44289447763E+01  0.22200742528E+02  0.47000000000E+01 0. -1.
          5    1    5    5  503    0 -0.14441192758E+02  0.23509334406E+02 -0.57674405626E+01  0.28576042818E+02  0.47000000000E+01 0.  1.
         -5    1    5    5    0  503 -0.14638554733E+02  0.46866076843E+02  0.26162448419E+03  0.26623331342E+03  0.47000000000E+01 0.  1.
<mgrwt>
<rscale>  0 0.30630165E+03</rscale>
<asrwt>0</asrwt>
<pdfrwt beam="1">  1        2 0.12049396E+00 0.30630165E+03</pdfrwt>
<pdfrwt beam="2">  1       -2 0.46073023E-02 0.30630165E+03</pdfrwt>
<totfact> 0.80928139E+03</totfact>
</mgrwt>
</event>
<event>
 9    1  0.7997082E-001  0.2755965E+03  0.7818608E-02  0.1098119E+00
          2   -1    0    0  501    0  0.00000000000E+00  0.00000000000E+00  0.10939720751E+03  0.10939720751E+03  0.00000000000E+00 0.  1.
         -2   -1    0    0    0  501 -0.00000000000E+00 -0.00000000000E+00 -0.17357257449E+03  0.17357257449E+03  0.00000000000E+00 0.  1.
         35    2    1    2    0    0  0.00000000000E+00 -0.71054273576E-14 -0.64175366985E+02  0.28296978200E+03  0.27559648002E+03 0.  0.
         25    2    3    3    0    0 -0.39337290927E+02 -0.41803582053E+02 -0.54846358832E+02  0.14793766226E+03  0.12482975169E+03 0.  0.
         25    2    3    3    0    0  0.39337290927E+02  0.41803582053E+02 -0.93290081523E+01  0.13503211974E+03  0.12186747326E+03 0.  0.
          5    1    4    4  502    0 -0.31645812391E+02 -0.85821736458E+02 -0.28848589889E+02  0.96026866184E+02  0.47000000000E+01 0. -1.
         -5    1    4    4    0  502 -0.76914785364E+01  0.44018154405E+02 -0.25997768944E+02  0.51910796077E+02  0.47000000000E+01 0. -1.
          5    1    5    5  503    0  0.22838554117E+02  0.23265286914E+02  0.56011943636E+02  0.64979234831E+02  0.47000000000E+01 0. -1.
         -5    1    5    5    0  503  0.16498736811E+02  0.18538295139E+02 -0.65340951789E+02  0.70052884906E+02  0.47000000000E+01 0. -1.
<mgrwt>
<rscale>  0 0.27559648E+03</rscale>
<asrwt>0</asrwt>
<pdfrwt beam="1">  1        2 0.16830340E-01 0.27559648E+03</pdfrwt>
<pdfrwt beam="2">  1       -2 0.26703473E-01 0.27559648E+03</pdfrwt>
<totfact> 0.42676795E+03</totfact>
</mgrwt>
</event>
<event>
 9    1  0.7997082E-001  0.2782563E+03  0.7818608E-02  0.1096645E+00
         -1   -1    0    0    0  501 -0.00000000000E+00  0.00000000000E+00  0.27794006633E+03  0.27794006633E+03  0.00000000000E+00 0.  1.
          1   -1    0    0  501    0  0.00000000000E+00 -0.00000000000E+00 -0.69643223748E+02  0.69643223748E+02  0.00000000000E+00 0.  1.
         35    2    1    2    0    0  0.00000000000E+00 -0.14210854715E-13  0.20829684259E+03  0.34758329008E+03  0.27825630076E+03 0.  0.
         25    2    3    3    0    0 -0.11411141421E+02 -0.53943219151E+02  0.13887113014E+03  0.19469920425E+03  0.12482990150E+03 0.  0.
         25    2    3    3    0    0  0.11411141421E+02  0.53943219151E+02  0.69425712450E+02  0.15288408584E+03  0.12455331835E+03 0.  0.
          5    1    4    4  502    0 -0.56130094620E+02  0.93141050302E+01  0.74549715773E+02  0.93899362066E+02  0.47000000000E+01 0. -1.
         -5    1    4    4    0  502  0.44718953199E+02 -0.63257324182E+02  0.64321414363E+02  0.10079984218E+03  0.47000000000E+01 0. -1.
          5    1    5    5  503    0  0.21937924928E+02 -0.27989889262E+02 -0.10975911408E+02  0.37513558645E+02  0.47000000000E+01 0.  1.
         -5    1    5    5    0  503 -0.10526783507E+02  0.81933108413E+02  0.80401623858E+02  0.11537052719E+03  0.47000000000E+01 0.  1.
<mgrwt>
<rscale>  0 0.27825630E+03</rscale>
<asrwt>0</asrwt>
<pdfrwt beam="1">  1        1 0.10714342E-01 0.27825630E+03</pdfrwt>
<pdfrwt beam="2">  1       -1 0.42760010E-01 0.27825630E+03</pdfrwt>
<totfact> 0.31878210E+03</totfact>
</mgrwt>
</event>
<event>
 9    1  0.7997082E-001  0.2723073E+03  0.7818608E-02  0.1099966E+00
         -1   -1    0    0    0  501 -0.00000000000E+00  0.00000000000E+00  0.98626989315E+01  0.98626989315E+01  0.00000000000E+00 0.  1.
          1   -1    0    0  501    0  0.00000000000E+00 -0.00000000000E+00 -0.18795879520E+04  0.18795879520E+04  0.00000000000E+00 0.  1.
         35    2    1    2    0    0  0.14210854715E-13 -0.35527136788E-14 -0.18697252531E+04  0.18894506510E+04  0.27230725357E+03 0.  0.
         25    2    3    3    0    0  0.42099677020E+02  0.31629534026E+02 -0.86274474390E+03  0.87334087984E+03  0.12499195587E+03 0.  0.
         25    2    3    3    0    0 -0.42099677020E+02 -0.31629534026E+02 -0.10069805092E+04  0.10161097711E+04  0.12528571686E+03 0.  0.
          5    1    4    4  502    0 -0.37915680957E+02  0.39653754561E+02 -0.35615615793E+03  0.36038773279E+03  0.47000000000E+01 0. -1.
         -5    1    4    4    0  502  0.80015357977E+02 -0.80242205345E+01 -0.50658858597E+03  0.51295314704E+03  0.47000000000E+01 0. -1.
          5    1    5    5  503    0 -0.47150606684E+02  0.36794712098E+02 -0.63482469320E+03  0.63765312800E+03  0.47000000000E+01 0.  1.
         -5    1    5    5    0  503  0.50509296647E+01 -0.68424246124E+02 -0.37215581599E+03  0.37845664312E+03  0.47000000000E+01 0.  1.
<mgrwt>
<rscale>  0 0.27230725E+03</rscale>
<asrwt>0</asrwt>
<pdfrwt beam="1">  1        1 0.28916746E+00 0.27230725E+03</pdfrwt>
<pdfrwt beam="2">  1       -1 0.15173379E-02 0.27230725E+03</pdfrwt>
<totfact> 0.41458708E+03</totfact>
</mgrwt>
</event>
<event>
 8    1  0.7997082E-001  0.3813495E+03  0.7818608E-02  0.1050436E+00
          2   -1    0    0  501    0  0.00000000000E+00  0.00000000000E+00  0.35698800234E+04  0.35698800234E+04  0.00000000000E+00 0.  1.
         -2   -1    0    0    0  501 -0.00000000000E+00 -0.00000000000E+00 -0.10184338796E+02  0.10184338796E+02  0.00000000000E+00 0.  1.
         25    2    1    2    0    0 -0.74297835865E+02 -0.82547348615E+02  0.26414338130E+04  0.26466330436E+04  0.12312451236E+03 0.  0.
         25    2    1    2    0    0  0.74297835865E+02  0.82547348615E+02  0.91826187156E+03  0.93343131860E+03  0.12551863853E+03 0.  0.
          5    1    3    3  502    0  0.29053728251E+02 -0.34902693221E+02  0.11257749741E+04  0.11267003592E+04  0.47000000000E+01 0. -1.
         -5    1    3    3    0  502 -0.10335156412E+03 -0.47644655394E+02  0.15156588390E+04  0.15199326844E+04  0.47000000000E+01 0. -1.
          5    1    4    4  503    0  0.90523477394E+02  0.10475310408E+02  0.42861208607E+03  0.43821757428E+03  0.47000000000E+01 0.  1.
         -5    1    4    4    0  503 -0.16225641529E+02  0.72072038207E+02  0.48964978549E+03  0.49521374432E+03  0.47000000000E+01 0.  1.
<mgrwt>
<rscale>  0 0.38134954E+03</rscale>
<asrwt>0</asrwt>
<pdfrwt beam="1">  1        2 0.54921131E+00 0.38134954E+03</pdfrwt>
<pdfrwt beam="2">  1       -2 0.15668242E-02 0.38134954E+03</pdfrwt>
<totfact> 0.98824433E+02</totfact>
</mgrwt>
</event>
<event>
 9    1  0.7997082E-001  0.2981264E+03  0.7818608E-02  0.1086181E+00
         -2   -1    0    0    0  501 -0.00000000000E+00  0.00000000000E+00  0.17825606582E+02  0.17825606582E+02  0.00000000000E+00 0.  1.
          2   -1    0    0  501    0  0.00000000000E+00 -0.00000000000E+00 -0.12465122887E+04  0.12465122887E+04  0.00000000000E+00 0.  1.
         35    2    1    2    0    0  0.00000000000E+00  0.14210854715E-13 -0.12286866821E+04  0.12643378953E+04  0.29812640043E+03 0.  0.
         25    2    3    3    0    0 -0.65159748752E+02 -0.38930692729E+02 -0.47506804620E+03  0.49655945619E+03  0.12296443926E+03 0.  0.
         25    2    3    3    0    0  0.65159748752E+02  0.38930692729E+02 -0.75361863594E+03  0.76777843910E+03  0.12562361015E+03 0.  0.
          5    1    4    4  502    0 -0.18981639320E+02  0.36447821660E+02 -0.64994039515E+02  0.77039350383E+02  0.47000000000E+01 0.  1.
         -5    1    4    4    0  502 -0.46178109432E+02 -0.75378514389E+02 -0.41007400668E+03  0.41952010581E+03  0.47000000000E+01 0.  1.
          5    1    5    5  503    0  0.40169802146E+02 -0.43915583959E+02 -0.33604174006E+03  0.34130387132E+03  0.47000000000E+01 0.  1.
         -5    1    5    5    0  503  0.24989946606E+02  0.82846276688E+02 -0.41757689588E+03  0.42647456778E+03  0.47000000000E+01 0.  1.
<mgrwt>
<rscale>  0 0.29812640E+03</rscale>
<asrwt>0</asrwt>
<pdfrwt beam="1">  1        2 0.19177107E+00 0.29812640E+03</pdfrwt>
<pdfrwt beam="2">  1       -2 0.27424018E-02 0.29812640E+03</pdfrwt>
<totfact> 0.91169285E+03</totfact>
</mgrwt>
</event>
<event>
 9    1  0.7997082E-001  0.2795242E+03  0.7818608E-02  0.1095949E+00
          2   -1    0    0  501    0  0.00000000000E+00  0.00000000000E+00  0.73276736683E+03  0.73276736683E+03  0.00000000000E+00 0. -1.
         -2   -1    0    0    0  501 -0.00000000000E+00 -0.00000000000E+00 -0.26657088412E+02  0.26657088412E+02  0.00000000000E+00 0. -1.
         35    2    1    2    0    0  0.00000000000E+00 -0.71054273576E-14  0.70611027842E+03  0.75942445524E+03  0.27952419919E+03 0.  0.
         25    2    3    3    0    0  0.25376106850E+02  0.49045055555E+02  0.42650226014E+03  0.44769948302E+03  0.12442381170E+03 0.  0.
         25    2    3    3    0    0 -0.25376106850E+02 -0.49045055555E+02  0.27960801828E+03  0.31172497222E+03  0.12626341572E+03 0.  0.
          5    1    4    4  502    0  0.92471410460E+01 -0.13591935907E+02  0.83267956631E+00  0.17118226966E+02  0.47000000000E+01 0. -1.
         -5    1    4    4    0  502  0.16128965804E+02  0.62636991462E+02  0.42566958057E+03  0.43058125605E+03  0.47000000000E+01 0. -1.
          5    1    5    5  503    0 -0.68083063364E+02 -0.12357101665E+02  0.21494499395E+03  0.22585712719E+03  0.47000000000E+01 0. -1.
         -5    1    5    5    0  503  0.42706956513E+02 -0.36687953890E+02  0.64663024327E+02  0.85867845032E+02  0.47000000000E+01 0. -1.
<mgrwt>
<rscale>  0 0.27952420E+03</rscale>
<asrwt>0</asrwt>
<pdfrwt beam="1">  1        2 0.11273343E+00 0.27952420E+03</pdfrwt>
<pdfrwt beam="2">  1       -2 0.41010911E-02 0.27952420E+03</pdfrwt>
<totfact> 0.10459234E+04</totfact>
</mgrwt>
</event>
<event>
 9    1  0.7997082E-001  0.2764979E+03  0.7818608E-02  0.1097617E+00
         -1   -1    0    0    0  501 -0.00000000000E+00  0.00000000000E+00  0.15265654856E+02  0.15265654856E+02  0.00000000000E+00 0.  1.
          1   -1    0    0  501    0  0.00000000000E+00 -0.00000000000E+00 -0.12520110671E+04  0.12520110671E+04  0.00000000000E+00 0.  1.
         35    2    1    2    0    0  0.14210854715E-13  0.71054273576E-14 -0.12367454123E+04  0.12672767220E+04  0.27649787577E+03 0.  0.
         25    2    3    3    0    0 -0.40651747981E+02 -0.33979969676E+02 -0.49612692494E+03  0.51432153679E+03  0.12480991387E+03 0.  0.
         25    2    3    3    0    0  0.40651747981E+02  0.33979969676E+02 -0.74061848733E+03  0.75295518519E+03  0.12497425408E+03 0.  0.
          5    1    4    4  502    0 -0.21147872026E+02  0.82967622383E+01 -0.44266450570E+03  0.44327195192E+03  0.47000000000E+01 0. -1.
         -5    1    4    4    0  502 -0.19503875955E+02 -0.42276731914E+02 -0.53462419240E+02  0.71049584866E+02  0.47000000000E+01 0. -1.
          5    1    5    5  503    0 -0.40510823598E+02  0.20591241119E+02 -0.39587042534E+03  0.39849794190E+03  0.47000000000E+01 0. -1.
         -5    1    5    5    0  503  0.81162571579E+02  0.13388728557E+02 -0.34474806199E+03  0.35445724330E+03  0.47000000000E+01 0. -1.
<mgrwt>
<rscale>  0 0.27649788E+03</rscale>
<asrwt>0</asrwt>
<pdfrwt beam="1">  1        1 0.19261715E+00 0.27649788E+03</pdfrwt>
<pdfrwt beam="2">  1       -1 0.23485616E-02 0.27649788E+03</pdfrwt>
<totfact> 0.57032959E+03</totfact>
</mgrwt>
</event>
<event>
 9    1  0.7997082E-001  0.2757078E+03  0.7818608E-02  0.1098057E+00
          1   -1    0    0  501    0  0.00000000000E+00  0.00000000000E+00  0.12790260396E+04  0.12790260396E+04  0.00000000000E+00 0. -1.
         -1   -1    0    0    0  501 -0.00000000000E+00 -0.00000000000E+00 -0.14857941762E+02  0.14857941762E+02  0.00000000000E+00 0. -1.
         35    2    1    2    0    0 -0.71054273576E-14  0.14210854715E-13  0.12641680978E+04  0.12938839813E+04  0.27570777579E+03 0.  0.
         25    2    3    3    0    0 -0.28841856939E+02  0.48204913759E+02  0.74456290163E+03  0.75695812008E+03  0.12432262325E+03 0.  0.
         25    2    3    3    0    0  0.28841856939E+02 -0.48204913759E+02  0.51960519619E+03  0.53692586127E+03  0.12306199317E+03 0.  0.
          5    1    4    4  502    0  0.62133310173E+01 -0.16835780518E+02  0.15580470851E+02  0.24225813917E+02  0.47000000000E+01 0. -1.
         -5    1    4    4    0  502 -0.35055187957E+02  0.65040694277E+02  0.72898243078E+03  0.73273230617E+03  0.47000000000E+01 0. -1.
          5    1    5    5  503    0  0.29422603177E+02 -0.87342155906E+02  0.41503995775E+03  0.42517596158E+03  0.47000000000E+01 0. -1.
         -5    1    5    5    0  503 -0.58074623702E+00  0.39137242147E+02  0.10456523844E+03  0.11174989969E+03  0.47000000000E+01 0. -1.
<mgrwt>
<rscale>  0 0.27570778E+03</rscale>
<asrwt>0</asrwt>
<pdfrwt beam="1">  1        1 0.19677315E+00 0.27570778E+03</pdfrwt>
<pdfrwt beam="2">  1       -1 0.22858382E-02 0.27570778E+03</pdfrwt>
<totfact> 0.56851881E+03</totfact>
</mgrwt>
</event>
<event>
 9    1  0.7997082E-001  0.2774621E+03  0.7818608E-02  0.1097083E+00
         -2   -1    0    0    0  501 -0.00000000000E+00  0.00000000000E+00  0.51118442237E+02  0.51118442237E+02  0.00000000000E+00 0. -1.
          2   -1    0    0  501    0  0.00000000000E+00 -0.00000000000E+00 -0.37650407568E+03  0.37650407568E+03  0.00000000000E+00 0. -1.
         35    2    1    2    0    0  0.00000000000E+00 -0.17763568394E-14 -0.32538563344E+03  0.42762251792E+03  0.27746208278E+03 0.  0.
         25    2    3    3    0    0  0.60356027929E+02 -0.57779728291E+01 -0.16828842757E+03  0.21792390762E+03  0.12447328862E+03 0.  0.
         25    2    3    3    0    0 -0.60356027929E+02  0.57779728291E+01 -0.15709720588E+03  0.20969861030E+03  0.12497095659E+03 0.  0.
          5    1    4    4  502    0  0.51714974941E+02  0.80216140761E+01 -0.18607810681E+03  0.19335443300E+03  0.47000000000E+01 0.  1.
         -5    1    4    4    0  502  0.86410529872E+01 -0.13799586905E+02  0.17789679244E+02  0.24569474619E+02  0.47000000000E+01 0.  1.
          5    1    5    5  503    0  0.13968607291E+02 -0.45930112424E+02 -0.54029637815E+02  0.72429199770E+02  0.47000000000E+01 0.  1.
         -5    1    5    5    0  503 -0.74324635220E+02  0.51708085253E+02 -0.10306756806E+03  0.13726941053E+03  0.47000000000E+01 0.  1.
<mgrwt>
<rscale>  0 0.27746208E+03</rscale>
<asrwt>0</asrwt>
<pdfrwt beam="1">  1        2 0.57923703E-01 0.27746208E+03</pdfrwt>
<pdfrwt beam="2">  1       -2 0.78643758E-02 0.27746208E+03</pdfrwt>
<totfact> 0.82340632E+03</totfact>
</mgrwt>
</event>
<event>
 9    1  0.7997082E-001  0.2863592E+03  0.7818608E-02  0.1092265E+00
         -1   -1    0    0    0  501 -0.00000000000E+00  0.00000000000E+00  0.76882840388E+03  0.76882840388E+03  0.00000000000E+00 0.  1.
          1   -1    0    0  501    0  0.00000000000E+00 -0.00000000000E+00 -0.26664466295E+02  0.26664466295E+02  0.00000000000E+00 0.  1.
         35    2    1    2    0    0  0.00000000000E+00  0.71054273576E-14  0.74216393759E+03  0.79549287018E+03  0.28635920842E+03 0.  0.
         25    2    3    3    0    0  0.58878512928E+02 -0.23513076660E+02  0.45399064267E+03  0.47514008180E+03  0.12502419625E+03 0.  0.
         25    2    3    3    0    0 -0.58878512928E+02  0.23513076660E+02  0.28817329492E+03  0.32035278837E+03  0.12474981785E+03 0.  0.
          5    1    4    4  502    0  0.85815369250E+02  0.18049240229E+02  0.24356519518E+03  0.25891339667E+03  0.47000000000E+01 0.  1.
         -5    1    4    4    0  502 -0.26936856322E+02 -0.41562316889E+02  0.21042544749E+03  0.21622668513E+03  0.47000000000E+01 0.  1.
          5    1    5    5  503    0  0.37723664028E+02  0.84866048486E+01  0.54310962370E+02  0.66834631166E+02  0.47000000000E+01 0.  1.
         -5    1    5    5    0  503 -0.96602176956E+02  0.15026471812E+02  0.23386233255E+03  0.25351815721E+03  0.47000000000E+01 0.  1.
<mgrwt>
<rscale>  0 0.28635921E+03</rscale>
<asrwt>0</asrwt>
<pdfrwt beam="1">  1        1 0.41022262E-02 0.28635921E+03</pdfrwt>
<pdfrwt beam="2">  1       -1 0.11828128E+00 0.28635921E+03</pdfrwt>
<totfact> 0.15031306E+03</totfact>
</mgrwt>
</event>
<event>
 9    1  0.7997082E-001  0.2757648E+03  0.7818608E-02  0.1098025E+00
          1   -1    0    0  501    0  0.00000000000E+00  0.00000000000E+00  0.61057128347E+03  0.61057128347E+03  0.00000000000E+00 0.  1.
         -1   -1    0    0    0  501 -0.00000000000E+00 -0.00000000000E+00 -0.31137314622E+02  0.31137314622E+02  0.00000000000E+00 0.  1.
         35    2    1    2    0    0  0.00000000000E+00  0.00000000000E+00  0.57943396885E+03  0.64170859810E+03  0.27576475593E+03 0.  0.
         25    2    3    3    0    0  0.15117440524E+01  0.55561867476E+02  0.23598093172E+03  0.27223444194E+03  0.12383531304E+03 0.  0.
         25    2    3    3    0    0 -0.15117440524E+01 -0.55561867476E+02  0.34345303714E+03  0.36947415616E+03  0.12434531299E+03 0.  0.
          5    1    4    4  502    0 -0.28530585447E+02  0.21968779605E+02  0.22180386849E+03  0.22475690792E+03  0.47000000000E+01 0. -1.
         -5    1    4    4    0  502  0.30042329499E+02  0.33593087871E+02  0.14177063229E+02  0.47477534016E+02  0.47000000000E+01 0. -1.
          5    1    5    5  503    0  0.21844314906E+02 -0.11663940901E+02  0.30072939492E+01  0.25384157027E+02  0.47000000000E+01 0.  1.
         -5    1    5    5    0  503 -0.23356058959E+02 -0.43897926575E+02  0.34044574319E+03  0.34408999913E+03  0.47000000000E+01 0.  1.
<mgrwt>
<rscale>  0 0.27576476E+03</rscale>
<asrwt>0</asrwt>
<pdfrwt beam="1">  1        1 0.93934035E-01 0.27576476E+03</pdfrwt>
<pdfrwt beam="2">  1       -1 0.47903566E-02 0.27576476E+03</pdfrwt>
<totfact> 0.64196314E+03</totfact>
</mgrwt>
</event>
<event>
 9    1  0.7997082E-001  0.2743301E+03  0.7818608E-02  0.1098827E+00
         -2   -1    0    0    0  501 -0.00000000000E+00  0.00000000000E+00  0.55530629512E+02  0.55530629512E+02  0.00000000000E+00 0. -1.
          2   -1    0    0  501    0  0.00000000000E+00 -0.00000000000E+00 -0.33880845513E+03  0.33880845513E+03  0.00000000000E+00 0. -1.
         35    2    1    2    0    0  0.00000000000E+00  0.00000000000E+00 -0.28327782562E+03  0.39433908464E+03  0.27433006979E+03 0.  0.
         25    2    3    3    0    0 -0.10281961280E+02 -0.87542474067E+01 -0.61741758827E+02  0.13990647105E+03  0.12481754797E+03 0.  0.
         25    2    3    3    0    0  0.10281961280E+02  0.87542474067E+01 -0.22153606679E+03  0.25443261359E+03  0.12440004179E+03 0.  0.
          5    1    4    4  502    0 -0.76192338693E+01  0.47132493821E+01 -0.99211070720E+02  0.99725593495E+02  0.47000000000E+01 0.  1.
         -5    1    4    4    0  502 -0.26627274105E+01 -0.13467496789E+02  0.37469311893E+02  0.40180877551E+02  0.47000000000E+01 0.  1.
          5    1    5    5  503    0 -0.18454711665E+02  0.14824866407E+02 -0.22333359891E+03  0.22463378965E+03  0.47000000000E+01 0. -1.
         -5    1    5    5    0  503  0.28736672944E+02 -0.60706190001E+01  0.17975321263E+01  0.29798823948E+02  0.47000000000E+01 0. -1.
<mgrwt>
<rscale>  0 0.27433007E+03</rscale>
<asrwt>0</asrwt>
<pdfrwt beam="1">  1        2 0.52124377E-01 0.27433007E+03</pdfrwt>
<pdfrwt beam="2">  1       -2 0.85431739E-02 0.27433007E+03</pdfrwt>
<totfact> 0.81031910E+03</totfact>
</mgrwt>
</event>
<event>
 9    1  0.7997082E-001  0.2743217E+03  0.7818608E-02  0.1098831E+00
          2   -1    0    0  501    0  0.00000000000E+00  0.00000000000E+00  0.35952411129E+03  0.35952411129E+03  0.00000000000E+00 0.  1.
         -2   -1    0    0    0  501 -0.00000000000E+00 -0.00000000000E+00 -0.52327777587E+02  0.52327777587E+02  0.00000000000E+00 0.  1.
         35    2    1    2    0    0  0.00000000000E+00  0.35527136788E-14  0.30719633371E+03  0.41185188888E+03  0.27432169242E+03 0.  0.
         25    2    3    3    0    0 -0.44427972623E+02 -0.30908548012E+02  0.13157305956E+03  0.18963880482E+03  0.12538828973E+03 0.  0.
         25    2    3    3    0    0  0.44427972623E+02  0.30908548012E+02  0.17562327415E+03  0.22221308406E+03  0.12492372558E+03 0.  0.
          5    1    4    4  502    0 -0.46349179821E+02  0.39653589586E+02  0.85800553814E+02  0.10537779022E+03  0.47000000000E+01 0. -1.
         -5    1    4    4    0  502  0.19212071983E+01 -0.70562137598E+02  0.45772505741E+02  0.84261014600E+02  0.47000000000E+01 0. -1.
          5    1    5    5  503    0 -0.34253594440E+02  0.59561650599E+01  0.11349644035E+03  0.11879527182E+03  0.47000000000E+01 0.  1.
         -5    1    5    5    0  503  0.78681567063E+02  0.24952382953E+02  0.62126833797E+02  0.10341781224E+03  0.47000000000E+01 0.  1.
<mgrwt>
<rscale>  0 0.27432169E+03</rscale>
<asrwt>0</asrwt>
<pdfrwt beam="1">  1        2 0.55311400E-01 0.27432169E+03</pdfrwt>
<pdfrwt beam="2">  1       -2 0.80504276E-02 0.27432169E+03</pdfrwt>
<totfact> 0.83415564E+03</totfact>
</mgrwt>
</event>
<event>
 9    1  0.7997082E-001  0.2754072E+03  0.7818608E-02  0.1098224E+00
          1   -1    0    0  501    0  0.00000000000E+00  0.00000000000E+00  0.17068299364E+03  0.17068299364E+03  0.00000000000E+00 0.  1.
         -1   -1    0    0    0  501 -0.00000000000E+00 -0.00000000000E+00 -0.11109648880E+03  0.11109648880E+03  0.00000000000E+00 0.  1.
         35    2    1    2    0    0  0.35527136788E-14  0.71054273576E-14  0.59586504841E+02  0.28177948243E+03  0.27540719882E+03 0.  0.
         25    2    3    3    0    0  0.96391810738E+01 -0.41823902410E+02 -0.59592457951E+01  0.13382273646E+03  0.12661303076E+03 0.  0.
         25    2    3    3    0    0 -0.96391810738E+01  0.41823902410E+02  0.65545750636E+02  0.14795674598E+03  0.12551016146E+03 0.  0.
          5    1    4    4  502    0 -0.61077456926E+00 -0.33254663070E+02  0.58699478004E+02  0.67631090331E+02  0.47000000000E+01 0. -1.
         -5    1    4    4    0  502  0.10249955643E+02 -0.85692393394E+01 -0.64658723799E+02  0.66191646126E+02  0.47000000000E+01 0. -1.
          5    1    5    5  503    0 -0.20914439142E+02 -0.27088622606E+02  0.69758656156E+02  0.77843222878E+02  0.47000000000E+01 0. -1.
         -5    1    5    5    0  503  0.11275258068E+02  0.68912525015E+02 -0.42129055204E+01  0.70113523099E+02  0.47000000000E+01 0. -1.
<mgrwt>
<rscale>  0 0.27540720E+03</rscale>
<asrwt>0</asrwt>
<pdfrwt beam="1">  1        1 0.26258922E-01 0.27540720E+03</pdfrwt>
<pdfrwt beam="2">  1       -1 0.17091767E-01 0.27540720E+03</pdfrwt>
<totfact> 0.46479009E+03</totfact>
</mgrwt>
</event>
<event>
 9    1  0.7997082E-001  0.2703941E+03  0.7818608E-02  0.1101054E+00
         -1   -1    0    0    0  501 -0.00000000000E+00  0.00000000000E+00  0.17017053625E+02  0.17017053625E+02  0.00000000000E+00 0. -1.
          1   -1    0    0  501    0  0.00000000000E+00 -0.00000000000E+00 -0.10741129587E+04  0.10741129587E+04  0.00000000000E+00 0. -1.
         35    2    1    2    0    0  0.00000000000E+00  0.00000000000E+00 -0.10570959051E+04  0.10911300123E+04  0.27039406663E+03 0.  0.
         25    2    3    3    0    0 -0.49099159849E+02 -0.12821197756E+02 -0.54007970260E+03  0.55664166189E+03  0.12485489170E+03 0.  0.
         25    2    3    3    0    0  0.49099159849E+02  0.12821197756E+02 -0.51701620247E+03  0.53448835043E+03  0.12568584852E+03 0.  0.
          5    1    4    4  502    0 -0.61030075435E+02 -0.19921066746E+02 -0.53800001846E+03  0.54183727158E+03  0.47000000000E+01 0.  1.
         -5    1    4    4    0  502  0.11930915586E+02  0.70998689903E+01 -0.20796841395E+01  0.14804390313E+02  0.47000000000E+01 0.  1.
          5    1    5    5  503    0  0.85776234465E+02 -0.10762519475E+02 -0.40588987501E+03  0.41502057161E+03  0.47000000000E+01 0.  1.
         -5    1    5    5    0  503 -0.36677074616E+02  0.23583717231E+02 -0.11112632746E+03  0.11946777881E+03  0.47000000000E+01 0.  1.
<mgrwt>
<rscale>  0 0.27039407E+03</rscale>
<asrwt>0</asrwt>
<pdfrwt beam="1">  1        1 0.16524810E+00 0.27039407E+03</pdfrwt>
<pdfrwt beam="2">  1       -1 0.26180089E-02 0.27039407E+03</pdfrwt>
<totfact> 0.64943593E+03</totfact>
</mgrwt>
</event>
<event>
 9    1  0.7997082E-001  0.2745591E+03  0.7818608E-02  0.1098698E+00
         -2   -1    0    0    0  501 -0.00000000000E+00  0.00000000000E+00  0.25555454280E+02  0.25555454280E+02  0.00000000000E+00 0. -1.
          2   -1    0    0  501    0  0.00000000000E+00 -0.00000000000E+00 -0.73744237818E+03  0.73744237818E+03  0.00000000000E+00 0. -1.
         35    2    1    2    0    0  0.00000000000E+00 -0.17763568394E-14 -0.71188692390E+03  0.76299783246E+03  0.27455910096E+03 0.  0.
         25    2    3    3    0    0 -0.29472107853E+02 -0.48296469140E+01 -0.48805283421E+03  0.50479332970E+03  0.12541453703E+03 0.  0.
         25    2    3    3    0    0  0.29472107853E+02  0.48296469140E+01 -0.22383408969E+03  0.25820450276E+03  0.12520357386E+03 0.  0.
          5    1    4    4  502    0 -0.73787236856E+02 -0.99491583731E+01 -0.38854517992E+03  0.39564250140E+03  0.47000000000E+01 0. -1.
         -5    1    4    4    0  502  0.44315129003E+02  0.51195114592E+01 -0.99507654288E+02  0.10915082830E+03  0.47000000000E+01 0. -1.
          5    1    5    5  503    0  0.18358999987E+02 -0.47413868583E+02 -0.34998453312E+02  0.61904034996E+02  0.47000000000E+01 0.  1.
         -5    1    5    5    0  503  0.11113107866E+02  0.52243515497E+02 -0.18883563638E+03  0.19630046776E+03  0.47000000000E+01 0.  1.
<mgrwt>
<rscale>  0 0.27455910E+03</rscale>
<asrwt>0</asrwt>
<pdfrwt beam="1">  1        2 0.11345266E+00 0.27455910E+03</pdfrwt>
<pdfrwt beam="2">  1       -2 0.39316087E-02 0.27455910E+03</pdfrwt>
<totfact> 0.11050838E+04</totfact>
</mgrwt>
</event>
<event>
 9    1  0.7997082E-001  0.2719330E+03  0.7818608E-02  0.1100178E+00
          2   -1    0    0  501    0  0.00000000000E+00  0.00000000000E+00  0.20273085452E+03  0.20273085452E+03  0.00000000000E+00 0. -1.
         -2   -1    0    0    0  501 -0.00000000000E+00 -0.00000000000E+00 -0.91189298695E+02  0.91189298695E+02  0.00000000000E+00 0. -1.
         35    2    1    2    0    0  0.00000000000E+00 -0.17763568394E-14  0.11154155583E+03  0.29392015321E+03  0.27193296562E+03 0.  0.
         25    2    3    3    0    0  0.15958997646E+02 -0.65368637689E+01 -0.84918150712E+01  0.12604806370E+03  0.12457360573E+03 0.  0.
         25    2    3    3    0    0 -0.15958997646E+02  0.65368637689E+01  0.12003337090E+03  0.16787208952E+03  0.11608448697E+03 0.  0.
          5    1    4    4  502    0 -0.24706616214E+02 -0.55552296988E+02 -0.11757182203E+02  0.62103107159E+02  0.47000000000E+01 0. -1.
         -5    1    4    4    0  502  0.40665613860E+02  0.49015433219E+02  0.32653671314E+01  0.63944956539E+02  0.47000000000E+01 0. -1.
          5    1    5    5  503    0  0.26175175887E+02  0.21794202698E+02  0.11784837652E+03  0.12276178946E+03  0.47000000000E+01 0. -1.
         -5    1    5    5    0  503 -0.42134173533E+02 -0.15257338929E+02  0.21849943780E+01  0.45110300054E+02  0.47000000000E+01 0. -1.
<mgrwt>
<rscale>  0 0.27193297E+03</rscale>
<asrwt>0</asrwt>
<pdfrwt beam="1">  1        2 0.31189362E-01 0.27193297E+03</pdfrwt>
<pdfrwt beam="2">  1       -2 0.14029123E-01 0.27193297E+03</pdfrwt>
<totfact> 0.63726291E+03</totfact>
</mgrwt>
</event>
<event>
 9    1  0.7997082E-001  0.2757428E+03  0.7818608E-02  0.1098037E+00
         -3   -1    0    0    0  501 -0.00000000000E+00  0.00000000000E+00  0.20791926792E+02  0.20791926792E+02  0.00000000000E+00 0. -1.
          3   -1    0    0  501    0  0.00000000000E+00 -0.00000000000E+00 -0.91422616004E+03  0.91422616004E+03  0.00000000000E+00 0. -1.
         35    2    1    2    0    0  0.35527136788E-14 -0.71054273576E-14 -0.89343423324E+03  0.93501808683E+03  0.27574280329E+03 0.  0.
         25    2    3    3    0    0  0.27842991291E+02  0.47081506174E+02 -0.37224218521E+03  0.39655984506E+03  0.12531386946E+03 0.  0.
         25    2    3    3    0    0 -0.27842991291E+02 -0.47081506174E+02 -0.52119204804E+03  0.53845824177E+03  0.12371025343E+03 0.  0.
          5    1    4    4  502    0 -0.25410073296E+02  0.22989111855E+02 -0.21013796889E+02  0.40470245224E+02  0.47000000000E+01 0.  1.
         -5    1    4    4    0  502  0.53253064586E+02  0.24092394319E+02 -0.35122838832E+03  0.35608959984E+03  0.47000000000E+01 0.  1.
          5    1    5    5  503    0 -0.17992386937E+02  0.32223379385E+02 -0.31633866576E+03  0.31851893762E+03  0.47000000000E+01 0.  1.
         -5    1    5    5    0  503 -0.98506043539E+01 -0.79304885558E+02 -0.20485338228E+03  0.21993930415E+03  0.47000000000E+01 0.  1.
<mgrwt>
<rscale>  0 0.27574280E+03</rscale>
<asrwt>0</asrwt>
<pdfrwt beam="1">  1        3 0.14065015E+00 0.27574280E+03</pdfrwt>
<pdfrwt beam="2">  1       -3 0.31987586E-02 0.27574280E+03</pdfrwt>
<totfact> 0.47143109E+02</totfact>
</mgrwt>
</event>
<event>
 9    1  0.7997082E-001  0.2779279E+03  0.7818608E-02  0.1096826E+00
          1   -1    0    0  501    0  0.00000000000E+00  0.00000000000E+00  0.68176343371E+02  0.68176343371E+02  0.00000000000E+00 0. -1.
         -1   -1    0    0    0  501 -0.00000000000E+00 -0.00000000000E+00 -0.28325039058E+03  0.28325039058E+03  0.00000000000E+00 0. -1.
         35    2    1    2    0    0  0.00000000000E+00  0.00000000000E+00 -0.21507404721E+03  0.35142673395E+03  0.27792787473E+03 0.  0.
         25    2    3    3    0    0 -0.14626681460E+02 -0.57824428678E+02 -0.99420638597E+02  0.17098992650E+03  0.12568009876E+03 0.  0.
         25    2    3    3    0    0  0.14626681460E+02  0.57824428678E+02 -0.11565340861E+03  0.18043680745E+03  0.12499650474E+03 0.  0.
          5    1    4    4  502    0  0.28879166489E+02  0.16659804421E+02 -0.73424129024E+02  0.80775912644E+02  0.47000000000E+01 0. -1.
         -5    1    4    4    0  502 -0.43505847949E+02 -0.74484233099E+02 -0.25996509573E+02  0.90214013857E+02  0.47000000000E+01 0. -1.
          5    1    5    5  503    0  0.54137903843E+02 -0.28347579463E+01 -0.86628018500E+02  0.10230079215E+03  0.47000000000E+01 0. -1.
         -5    1    5    5    0  503 -0.39511222383E+02  0.60659186624E+02 -0.29025390113E+02  0.78136015302E+02  0.47000000000E+01 0. -1.
<mgrwt>
<rscale>  0 0.27792787E+03</rscale>
<asrwt>0</asrwt>
<pdfrwt beam="1">  1        1 0.10488668E-01 0.27792787E+03</pdfrwt>
<pdfrwt beam="2">  1       -1 0.43576983E-01 0.27792787E+03</pdfrwt>
<totfact> 0.31701517E+03</totfact>
</mgrwt>
</event>
<event>
 9    1  0.7997082E-001  0.2756287E+03  0.7818608E-02  0.1098101E+00
         -2   -1    0    0    0  501 -0.00000000000E+00  0.00000000000E+00  0.33487859926E+02  0.33487859926E+02  0.00000000000E+00 0.  1.
          2   -1    0    0  501    0  0.00000000000E+00 -0.00000000000E+00 -0.56715460833E+03  0.56715460833E+03  0.00000000000E+00 0.  1.
         35    2    1    2    0    0  0.71054273576E-14  0.00000000000E+00 -0.53366674841E+03  0.60064246826E+03  0.27562869285E+03 0.  0.
         25    2    3    3    0    0 -0.29626393028E+02 -0.73187378621E+01 -0.37391870134E+03  0.39532524382E+03  0.12464175103E+03 0.  0.
         25    2    3    3    0    0  0.29626393028E+02  0.73187378621E+01 -0.15974804706E+03  0.20531722444E+03  0.12531734526E+03 0.  0.
          5    1    4    4  502    0 -0.71907192763E+02 -0.32159651788E+02 -0.23937617474E+03  0.25204747689E+03  0.47000000000E+01 0.  1.
         -5    1    4    4    0  502  0.42280799735E+02  0.24840913926E+02 -0.13454252660E+03  0.14327776693E+03  0.47000000000E+01 0.  1.
          5    1    5    5  503    0 -0.54263629861E+01  0.61745834883E+02 -0.60603217604E+02  0.86814938372E+02  0.47000000000E+01 0. -1.
         -5    1    5    5    0  503  0.35052756014E+02 -0.54427097021E+02 -0.99144829458E+02  0.11850228606E+03  0.47000000000E+01 0. -1.
<mgrwt>
<rscale>  0 0.27562869E+03</rscale>
<asrwt>0</asrwt>
<pdfrwt beam="1">  1        2 0.87254555E-01 0.27562869E+03</pdfrwt>
<pdfrwt beam="2">  1       -2 0.51519784E-02 0.27562869E+03</pdfrwt>
<totfact> 0.10028563E+04</totfact>
</mgrwt>
</event>
<event>
 9    1  0.7997082E-001  0.2656559E+03  0.7818608E-02  0.1103792E+00
          2   -1    0    0  501    0  0.00000000000E+00  0.00000000000E+00  0.36171082557E+03  0.36171082557E+03  0.00000000000E+00 0.  1.
         -2   -1    0    0    0  501 -0.00000000000E+00 -0.00000000000E+00 -0.48777261734E+02  0.48777261734E+02  0.00000000000E+00 0.  1.
         35    2    1    2    0    0  0.35527136788E-14  0.71054273576E-14  0.31293356383E+03  0.41048808730E+03  0.26565589480E+03 0.  0.
         25    2    3    3    0    0 -0.20661730784E+02 -0.43581997297E+02  0.14211971948E+03  0.19607704875E+03  0.12618199861E+03 0.  0.
         25    2    3    3    0    0  0.20661730784E+02  0.43581997297E+02  0.17081384435E+03  0.21441103855E+03  0.12028477220E+03 0.  0.
          5    1    4    4  502    0  0.20728960194E+02 -0.72624591609E+02  0.11721168994E+03  0.13951591793E+03  0.47000000000E+01 0. -1.
         -5    1    4    4    0  502 -0.41390690978E+02  0.29042594312E+02  0.24908029542E+02  0.56561130820E+02  0.47000000000E+01 0. -1.
          5    1    5    5  503    0  0.16726332468E+02 -0.36770350232E+02  0.24794951613E+02  0.47630961354E+02  0.47000000000E+01 0. -1.
         -5    1    5    5    0  503  0.39353983161E+01  0.80352347529E+02  0.14601889273E+03  0.16678007719E+03  0.47000000000E+01 0. -1.
<mgrwt>
<rscale>  0 0.26565589E+03</rscale>
<asrwt>0</asrwt>
<pdfrwt beam="1">  1        2 0.55647818E-01 0.26565589E+03</pdfrwt>
<pdfrwt beam="2">  1       -2 0.75041944E-02 0.26565589E+03</pdfrwt>
<totfact> 0.92343090E+03</totfact>
</mgrwt>
</event>
<event>
 9    1  0.7997082E-001  0.2648560E+03  0.7818608E-02  0.1104260E+00
         -2   -1    0    0    0  501 -0.00000000000E+00  0.00000000000E+00  0.10863012770E+02  0.10863012770E+02  0.00000000000E+00 0.  1.
          2   -1    0    0  501    0  0.00000000000E+00 -0.00000000000E+00 -0.16143929653E+04  0.16143929653E+04  0.00000000000E+00 0.  1.
         35    2    1    2    0    0 -0.71054273576E-14  0.00000000000E+00 -0.16035299526E+04  0.16252559781E+04  0.26485597141E+03 0.  0.
         25    2    3    3    0    0 -0.27461824154E+02 -0.32580906127E+02 -0.77591446149E+03  0.78721416926E+03  0.12588577957E+03 0.  0.
         25    2    3    3    0    0  0.27461824154E+02  0.32580906127E+02 -0.82761549107E+03  0.83804180884E+03  0.12470366908E+03 0.  0.
          5    1    4    4  502    0 -0.47986183591E+02 -0.16297961765E+02 -0.11494454589E+03  0.12570853592E+03  0.47000000000E+01 0.  1.
         -5    1    4    4    0  502  0.20524359437E+02 -0.16282944361E+02 -0.66096991560E+03  0.66150563334E+03  0.47000000000E+01 0.  1.
          5    1    5    5  503    0  0.66576567643E+02 -0.70177240617E+01 -0.59690042141E+03  0.60066121141E+03  0.47000000000E+01 0.  1.
         -5    1    5    5    0  503 -0.39114743489E+02  0.39598630188E+02 -0.23071506966E+03  0.23738059743E+03  0.47000000000E+01 0.  1.
<mgrwt>
<rscale>  0 0.26485597E+03</rscale>
<asrwt>0</asrwt>
<pdfrwt beam="1">  1        2 0.24836814E+00 0.26485597E+03</pdfrwt>
<pdfrwt beam="2">  1       -2 0.16712328E-02 0.26485597E+03</pdfrwt>
<totfact> 0.11925755E+04</totfact>
</mgrwt>
</event>
<event>
 9    1  0.7997082E-001  0.2771051E+03  0.7818608E-02  0.1097281E+00
         -2   -1    0    0    0  501 -0.00000000000E+00  0.00000000000E+00  0.10943145631E+03  0.10943145631E+03  0.00000000000E+00 0. -1.
          2   -1    0    0  501    0  0.00000000000E+00 -0.00000000000E+00 -0.17542315401E+03  0.17542315401E+03  0.00000000000E+00 0. -1.
         35    2    1    2    0    0 -0.35527136788E-14 -0.71054273576E-14 -0.65991697709E+02  0.28485461032E+03  0.27710511517E+03 0.  0.
         25    2    3    3    0    0  0.17047105209E+02 -0.53414597701E+02 -0.55909662829E+02  0.14743405570E+03  0.12436714735E+03 0.  0.
         25    2    3    3    0    0 -0.17047105209E+02  0.53414597701E+02 -0.10082034880E+02  0.13742055462E+03  0.12505614084E+03 0.  0.
          5    1    4    4  502    0  0.38805492955E+02 -0.28421783324E+02  0.28863954108E+02  0.56292822789E+02  0.47000000000E+01 0.  1.
         -5    1    4    4    0  502 -0.21758387746E+02 -0.24992814377E+02 -0.84773616938E+02  0.91141232911E+02  0.47000000000E+01 0.  1.
          5    1    5    5  503    0  0.15084423978E+02 -0.24210690893E+02 -0.38910705865E+02  0.48475049574E+02  0.47000000000E+01 0.  1.
         -5    1    5    5    0  503 -0.32131529186E+02  0.77625288594E+02  0.28828670986E+02  0.88945505046E+02  0.47000000000E+01 0.  1.
<mgrwt>
<rscale>  0 0.27710512E+03</rscale>
<asrwt>0</asrwt>
<pdfrwt beam="1">  1        2 0.26988177E-01 0.27710512E+03</pdfrwt>
<pdfrwt beam="2">  1       -2 0.16835609E-01 0.27710512E+03</pdfrwt>
<totfact> 0.55281339E+03</totfact>
</mgrwt>
</event>
<event>
 9    1  0.7997082E-001  0.2912516E+03  0.7818608E-02  0.1089697E+00
          1   -1    0    0  501    0  0.00000000000E+00  0.00000000000E+00  0.83182931174E+02  0.83182931174E+02  0.00000000000E+00 0. -1.
         -1   -1    0    0    0  501 -0.00000000000E+00 -0.00000000000E+00 -0.25494264751E+03  0.25494264751E+03  0.00000000000E+00 0. -1.
         35    2    1    2    0    0 -0.35527136788E-14  0.71054273576E-14 -0.17175971634E+03  0.33812557868E+03  0.29125162112E+03 0.  0.
         25    2    3    3    0    0 -0.14250667648E+02  0.63421451061E+02 -0.13319950497E+03  0.19298926450E+03  0.12360172372E+03 0.  0.
         25    2    3    3    0    0  0.14250667648E+02 -0.63421451061E+02 -0.38560211367E+02  0.14513631418E+03  0.12390438979E+03 0.  0.
          5    1    4    4  502    0  0.11369599956E+02  0.85572791728E+02 -0.43060856905E+02  0.96583113869E+02  0.47000000000E+01 0.  1.
         -5    1    4    4    0  502 -0.25620267604E+02 -0.22151340667E+02 -0.90138648064E+02  0.96406150635E+02  0.47000000000E+01 0.  1.
          5    1    5    5  503    0  0.54059195643E+02 -0.33323928422E+01 -0.47704130543E+02  0.72327557310E+02  0.47000000000E+01 0.  1.
         -5    1    5    5    0  503 -0.39808527995E+02 -0.60089058219E+02  0.91439191757E+01  0.72808756868E+02  0.47000000000E+01 0.  1.
<mgrwt>
<rscale>  0 0.29125162E+03</rscale>
<asrwt>0</asrwt>
<pdfrwt beam="1">  1        1 0.12797374E-01 0.29125162E+03</pdfrwt>
<pdfrwt beam="2">  1       -1 0.39221946E-01 0.29125162E+03</pdfrwt>
<totfact> 0.29376534E+03</totfact>
</mgrwt>
</event>
<event>
 9    1  0.7997082E-001  0.2829910E+03  0.7818608E-02  0.1094066E+00
         -2   -1    0    0    0  501 -0.00000000000E+00  0.00000000000E+00  0.23606547274E+02  0.23606547274E+02  0.00000000000E+00 0.  1.
          2   -1    0    0  501    0  0.00000000000E+00 -0.00000000000E+00 -0.84811092576E+03  0.84811092576E+03  0.00000000000E+00 0.  1.
         35    2    1    2    0    0 -0.35527136788E-14 -0.35527136788E-14 -0.82450437849E+03  0.87171747303E+03  0.28299095860E+03 0.  0.
         25    2    3    3    0    0  0.28039690341E+02 -0.25050575448E+02 -0.26378970492E+03  0.29420798708E+03  0.12473802819E+03 0.  0.
         25    2    3    3    0    0 -0.28039690341E+02  0.25050575448E+02 -0.56071467357E+03  0.57750948595E+03  0.13305076343E+03 0.  0.
          5    1    4    4  502    0  0.38364726180E+02  0.24451197182E+02 -0.22683666351E+03  0.23140154531E+03  0.47000000000E+01 0.  1.
         -5    1    4    4    0  502 -0.10325035839E+02 -0.49501772629E+02 -0.36953041406E+02  0.62806441769E+02  0.47000000000E+01 0.  1.
          5    1    5    5  503    0  0.36125163647E+02  0.73901489731E+01 -0.42147845471E+03  0.42311442841E+03  0.47000000000E+01 0.  1.
         -5    1    5    5    0  503 -0.64164853988E+02  0.17660426474E+02 -0.13923621886E+03  0.15439505754E+03  0.47000000000E+01 0.  1.
<mgrwt>
<rscale>  0 0.28299096E+03</rscale>
<asrwt>0</asrwt>
<pdfrwt beam="1">  1        2 0.13047858E+00 0.28299096E+03</pdfrwt>
<pdfrwt beam="2">  1       -2 0.36317773E-02 0.28299096E+03</pdfrwt>
<totfact> 0.10435797E+04</totfact>
</mgrwt>
</event>
<event>
 9    1  0.7997082E-001  0.2810858E+03  0.7818608E-02  0.1095097E+00
         -1   -1    0    0    0  501 -0.00000000000E+00  0.00000000000E+00  0.26942934046E+02  0.26942934046E+02  0.00000000000E+00 0. -1.
          1   -1    0    0  501    0  0.00000000000E+00 -0.00000000000E+00 -0.73311640825E+03  0.73311640825E+03  0.00000000000E+00 0. -1.
         35    2    1    2    0    0  0.00000000000E+00 -0.71054273576E-14 -0.70617347421E+03  0.76005934230E+03  0.28108580210E+03 0.  0.
         25    2    3    3    0    0 -0.40088785201E+02  0.43608510092E+02 -0.42309365762E+03  0.44487905088E+03  0.12409800136E+03 0.  0.
         25    2    3    3    0    0  0.40088785201E+02 -0.43608510092E+02 -0.28307981658E+03  0.31518029142E+03  0.12528216429E+03 0.  0.
          5    1    4    4  502    0  0.33915586149E+02  0.56335234551E+01 -0.25417499599E+03  0.25653269218E+03  0.47000000000E+01 0.  1.
         -5    1    4    4    0  502 -0.74004371349E+02  0.37974986636E+02 -0.16891866163E+03  0.18834635870E+03  0.47000000000E+01 0.  1.
          5    1    5    5  503    0 -0.45737056959E+01  0.15903207213E+02 -0.21026231642E+03  0.21096483709E+03  0.47000000000E+01 0.  1.
         -5    1    5    5    0  503  0.44662490897E+02 -0.59511717305E+02 -0.72817500165E+02  0.10421545432E+03  0.47000000000E+01 0.  1.
<mgrwt>
<rscale>  0 0.28108580E+03</rscale>
<asrwt>0</asrwt>
<pdfrwt beam="1">  1        1 0.11278713E+00 0.28108580E+03</pdfrwt>
<pdfrwt beam="2">  1       -1 0.41450673E-02 0.28108580E+03</pdfrwt>
<totfact> 0.61272493E+03</totfact>
</mgrwt>
</event>
<event>
 9    1  0.7997082E-001  0.2738746E+03  0.7818608E-02  0.1099082E+00
         -2   -1    0    0    0  501 -0.00000000000E+00  0.00000000000E+00  0.96389986990E+01  0.96389986990E+01  0.00000000000E+00 0.  1.
          2   -1    0    0  501    0  0.00000000000E+00 -0.00000000000E+00 -0.19454127443E+04  0.19454127443E+04  0.00000000000E+00 0.  1.
         35    2    1    2    0    0  0.00000000000E+00  0.00000000000E+00 -0.19357737456E+04  0.19550517430E+04  0.27387464951E+03 0.  0.
         25    2    3    3    0    0 -0.58844585408E+01  0.16886805879E+02 -0.61344806447E+03  0.62675096485E+03  0.12719454810E+03 0.  0.
         25    2    3    3    0    0  0.58844585408E+01 -0.16886805879E+02 -0.13223256812E+04  0.13283007782E+04  0.12457110100E+03 0.  0.
          5    1    4    4  502    0  0.57447404154E+02 -0.78518319749E+00 -0.20231945602E+03  0.21037127427E+03  0.47000000000E+01 0.  1.
         -5    1    4    4    0  502 -0.63331862695E+02  0.17671989077E+02 -0.41112860845E+03  0.41637969057E+03  0.47000000000E+01 0.  1.
          5    1    5    5  503    0  0.42706830444E+02  0.16843563742E+02 -0.10723659158E+04  0.10733584333E+04  0.47000000000E+01 0.  1.
         -5    1    5    5    0  503 -0.36822371903E+02 -0.33730369621E+02 -0.24995976541E+03  0.25494234491E+03  0.47000000000E+01 0.  1.
<mgrwt>
<rscale>  0 0.27387465E+03</rscale>
<asrwt>0</asrwt>
<pdfrwt beam="1">  1        2 0.29929424E+00 0.27387465E+03</pdfrwt>
<pdfrwt beam="2">  1       -2 0.14829230E-02 0.27387465E+03</pdfrwt>
<totfact> 0.95221762E+03</totfact>
</mgrwt>
</event>
<event>
 9    1  0.7997082E-001  0.2771354E+03  0.7818608E-02  0.1097264E+00
         -2   -1    0    0    0  501 -0.00000000000E+00  0.00000000000E+00  0.10892828958E+02  0.10892828958E+02  0.00000000000E+00 0.  1.
          2   -1    0    0  501    0  0.00000000000E+00 -0.00000000000E+00 -0.17627202239E+04  0.17627202239E+04  0.00000000000E+00 0.  1.
         35    2    1    2    0    0  0.00000000000E+00 -0.35527136788E-14 -0.17518273949E+04  0.17736130529E+04  0.27713541744E+03 0.  0.
         25    2    3    3    0    0 -0.42837115031E+02 -0.19292148678E+02 -0.11209457423E+04  0.11287806188E+04  0.12417376033E+03 0.  0.
         25    2    3    3    0    0  0.42837115031E+02  0.19292148678E+02 -0.63088165266E+03  0.64483243409E+03  0.12485993337E+03 0.  0.
          5    1    4    4  502    0 -0.81734622650E+02 -0.16444157371E+02 -0.53074511280E+03  0.53727406751E+03  0.47000000000E+01 0.  1.
         -5    1    4    4    0  502  0.38897507619E+02 -0.28479913075E+01 -0.59020062949E+03  0.59150655127E+03  0.47000000000E+01 0.  1.
          5    1    5    5  503    0  0.95839675148E+00  0.25141297144E+02 -0.56990817843E+03  0.57048262479E+03  0.47000000000E+01 0.  1.
         -5    1    5    5    0  503  0.41878718279E+02 -0.58491484656E+01 -0.60973474232E+02  0.74349809296E+02  0.47000000000E+01 0.  1.
<mgrwt>
<rscale>  0 0.27713542E+03</rscale>
<asrwt>0</asrwt>
<pdfrwt beam="1">  1        2 0.27118804E+00 0.27713542E+03</pdfrwt>
<pdfrwt beam="2">  1       -2 0.16758179E-02 0.27713542E+03</pdfrwt>
<totfact> 0.99302559E+03</totfact>
</mgrwt>
</event>
<event>
 9    1  0.7997082E-001  0.2735860E+03  0.7818608E-02  0.1099245E+00
          3   -1    0    0  501    0  0.00000000000E+00  0.00000000000E+00  0.22546682147E+03  0.22546682147E+03  0.00000000000E+00 0.  1.
         -3   -1    0    0    0  501 -0.00000000000E+00 -0.00000000000E+00 -0.82993695070E+02  0.82993695070E+02  0.00000000000E+00 0.  1.
         35    2    1    2    0    0  0.00000000000E+00  0.71054273576E-14  0.14247312640E+03  0.30846051654E+03  0.27358599840E+03 0.  0.
         25    2    3    3    0    0  0.13844024874E+02  0.53563906851E+02  0.97996210963E+02  0.16224727248E+03  0.11687673387E+03 0.  0.
         25    2    3    3    0    0 -0.13844024874E+02 -0.53563906851E+02  0.44476915441E+02  0.14621324407E+03  0.12782553576E+03 0.  0.
          5    1    4    4  502    0  0.16540327222E+02  0.86614961077E+02  0.43883336709E+02  0.98608169782E+02  0.47000000000E+01 0.  1.
         -5    1    4    4    0  502 -0.26963023483E+01 -0.33051054226E+02  0.54112874253E+02  0.63639102695E+02  0.47000000000E+01 0.  1.
          5    1    5    5  503    0 -0.28389411649E+02 -0.76046403217E+02 -0.13272118392E+02  0.82384787811E+02  0.47000000000E+01 0.  1.
         -5    1    5    5    0  503  0.14545386775E+02  0.22482496366E+02  0.57749033833E+02  0.63828456255E+02  0.47000000000E+01 0.  1.
<mgrwt>
<rscale>  0 0.27358600E+03</rscale>
<asrwt>0</asrwt>
<pdfrwt beam="1">  1        3 0.34687203E-01 0.27358600E+03</pdfrwt>
<pdfrwt beam="2">  1       -3 0.12768261E-01 0.27358600E+03</pdfrwt>
<totfact> 0.10154715E+03</totfact>
</mgrwt>
</event>
<event>
 9    1  0.7997082E-001  0.2781228E+03  0.7818608E-02  0.1096719E+00
         -2   -1    0    0    0  501 -0.00000000000E+00  0.00000000000E+00  0.75902620663E+03  0.75902620663E+03  0.00000000000E+00 0.  1.
          2   -1    0    0  501    0  0.00000000000E+00 -0.00000000000E+00 -0.25477481403E+02  0.25477481403E+02  0.00000000000E+00 0.  1.
         35    2    1    2    0    0  0.00000000000E+00  0.00000000000E+00  0.73354872523E+03  0.78450368804E+03  0.27812282225E+03 0.  0.
         25    2    3    3    0    0 -0.58511953965E+02 -0.14199774836E+02  0.35928630785E+03  0.38543783731E+03  0.12589834416E+03 0.  0.
         25    2    3    3    0    0  0.58511953965E+02  0.14199774836E+02  0.37426241738E+03  0.39906585072E+03  0.12472334901E+03 0.  0.
          5    1    4    4  502    0 -0.71795538921E+02  0.30046584237E+02  0.13076560427E+03  0.15224693722E+03  0.47000000000E+01 0. -1.
         -5    1    4    4    0  502  0.13283584956E+02 -0.44246359073E+02  0.22852070358E+03  0.23319090009E+03  0.47000000000E+01 0. -1.
          5    1    5    5  503    0  0.89550965361E+02 -0.16512876361E+02  0.20814507618E+03  0.22724109052E+03  0.47000000000E+01 0.  1.
         -5    1    5    5    0  503 -0.31039011395E+02  0.30712651196E+02  0.16611734120E+03  0.17182476020E+03  0.47000000000E+01 0.  1.
<mgrwt>
<rscale>  0 0.27812282E+03</rscale>
<asrwt>0</asrwt>
<pdfrwt beam="1">  1        2 0.39196131E-02 0.27812282E+03</pdfrwt>
<pdfrwt beam="2">  1       -2 0.11677325E+00 0.27812282E+03</pdfrwt>
<totfact> 0.12927208E+03</totfact>
</mgrwt>
</event>
<event>
 9    1  0.7997082E-001  0.2756372E+03  0.7818608E-02  0.1098096E+00
          2   -1    0    0  501    0  0.00000000000E+00  0.00000000000E+00  0.11959225207E+04  0.11959225207E+04  0.00000000000E+00 0.  1.
         -2   -1    0    0    0  501 -0.00000000000E+00 -0.00000000000E+00 -0.15882274418E+02  0.15882274418E+02  0.00000000000E+00 0.  1.
         35    2    1    2    0    0  0.00000000000E+00  0.00000000000E+00  0.11800402462E+04  0.12118047951E+04  0.27563722286E+03 0.  0.
         25    2    3    3    0    0  0.35159076350E+02 -0.31354135373E+01  0.80221833061E+03  0.81262368668E+03  0.12472776237E+03 0.  0.
         25    2    3    3    0    0 -0.35159076350E+02  0.31354135373E+01  0.37782191562E+03  0.39918110840E+03  0.12389578648E+03 0.  0.
          5    1    4    4  502    0  0.18158643179E+02  0.31976864185E+02  0.72532983194E+03  0.72627660796E+03  0.47000000000E+01 0.  1.
         -5    1    4    4    0  502  0.17000433171E+02 -0.35112277722E+02  0.76888498673E+02  0.86347078717E+02  0.47000000000E+01 0.  1.
          5    1    5    5  503    0 -0.68475223138E+02  0.37554089221E+02  0.26992676892E+03  0.28103685947E+03  0.47000000000E+01 0.  1.
         -5    1    5    5    0  503  0.33316146788E+02 -0.34418675684E+02  0.10789514670E+03  0.11814424893E+03  0.47000000000E+01 0.  1.
<mgrwt>
<rscale>  0 0.27563722E+03</rscale>
<asrwt>0</asrwt>
<pdfrwt beam="1">  1        2 0.18398801E+00 0.27563722E+03</pdfrwt>
<pdfrwt beam="2">  1       -2 0.24434278E-02 0.27563722E+03</pdfrwt>
<totfact> 0.11535289E+04</totfact>
</mgrwt>
</event>
<event>
 9    1  0.7997082E-001  0.3051633E+03  0.7818608E-02  0.1082688E+00
          2   -1    0    0  501    0  0.00000000000E+00  0.00000000000E+00  0.36610901226E+03  0.36610901226E+03  0.00000000000E+00 0.  1.
         -2   -1    0    0    0  501 -0.00000000000E+00 -0.00000000000E+00 -0.63590789527E+02  0.63590789527E+02  0.00000000000E+00 0.  1.
         35    2    1    2    0    0 -0.14210854715E-13  0.00000000000E+00  0.30251822273E+03  0.42969980179E+03  0.30516330803E+03 0.  0.
         25    2    3    3    0    0  0.87710809112E+02  0.83255804966E+01  0.15024185443E+03  0.21432365103E+03  0.12489800335E+03 0.  0.
         25    2    3    3    0    0 -0.87710809112E+02 -0.83255804966E+01  0.15227636830E+03  0.21537615076E+03  0.12424287765E+03 0.  0.
          5    1    4    4  502    0 -0.29500753695E+01 -0.45814493864E+02  0.34792830787E+02  0.57795344682E+02  0.47000000000E+01 0. -1.
         -5    1    4    4    0  502  0.90660884482E+02  0.54140074360E+02  0.11544902364E+03  0.15652830634E+03  0.47000000000E+01 0. -1.
          5    1    5    5  503    0 -0.74007403792E+02 -0.36377230462E+02  0.16241899752E+03  0.18221531074E+03  0.47000000000E+01 0.  1.
         -5    1    5    5    0  503 -0.13703405320E+02  0.28051649966E+02 -0.10142629223E+02  0.33160840018E+02  0.47000000000E+01 0.  1.
<mgrwt>
<rscale>  0 0.30516331E+03</rscale>
<asrwt>0</asrwt>
<pdfrwt beam="1">  1        2 0.56324462E-01 0.30516331E+03</pdfrwt>
<pdfrwt beam="2">  1       -2 0.97831987E-02 0.30516331E+03</pdfrwt>
<totfact> 0.60365597E+03</totfact>
</mgrwt>
</event>
<event>
 9    1  0.7997082E-001  0.2787084E+03  0.7818608E-02  0.1096396E+00
         -2   -1    0    0    0  501 -0.00000000000E+00  0.00000000000E+00  0.10060314781E+02  0.10060314781E+02  0.00000000000E+00 0.  1.
          2   -1    0    0  501    0  0.00000000000E+00 -0.00000000000E+00 -0.19303167717E+04  0.19303167717E+04  0.00000000000E+00 0.  1.
         35    2    1    2    0    0  0.71054273576E-14  0.00000000000E+00 -0.19202564569E+04  0.19403770864E+04  0.27870840927E+03 0.  0.
         25    2    3    3    0    0 -0.32483452908E+02  0.33547674525E+02 -0.68403059851E+03  0.69689504354E+03  0.12483677678E+03 0.  0.
         25    2    3    3    0    0  0.32483452908E+02 -0.33547674525E+02 -0.12362258584E+04  0.12434820429E+04  0.12574814882E+03 0.  0.
          5    1    4    4  502    0 -0.49351850561E+02  0.16333952370E+02 -0.66154250018E+03  0.66359850263E+03  0.47000000000E+01 0. -1.
         -5    1    4    4    0  502  0.16868397653E+02  0.17213722155E+02 -0.22488098325E+02  0.33296540903E+02  0.47000000000E+01 0. -1.
          5    1    5    5  503    0  0.42027670440E+02 -0.75591369220E+02 -0.95654667267E+03  0.96046031005E+03  0.47000000000E+01 0.  1.
         -5    1    5    5    0  503 -0.95442175324E+01  0.42043694695E+02 -0.27967918571E+03  0.28302173286E+03  0.47000000000E+01 0.  1.
<mgrwt>
<rscale>  0 0.27870841E+03</rscale>
<asrwt>0</asrwt>
<pdfrwt beam="1">  1        2 0.29697179E+00 0.27870841E+03</pdfrwt>
<pdfrwt beam="2">  1       -2 0.15477409E-02 0.27870841E+03</pdfrwt>
<totfact> 0.91108452E+03</totfact>
</mgrwt>
</event>
<event>
 9    1  0.7997082E-001  0.2795269E+03  0.7818608E-02  0.1095948E+00
         -3   -1    0    0    0  501 -0.00000000000E+00  0.00000000000E+00  0.24024629931E+03  0.24024629931E+03  0.00000000000E+00 0. -1.
          3   -1    0    0  501    0  0.00000000000E+00 -0.00000000000E+00 -0.81307477086E+02  0.81307477086E+02  0.00000000000E+00 0. -1.
         35    2    1    2    0    0 -0.71054273576E-14  0.00000000000E+00  0.15893882223E+03  0.32155377640E+03  0.27952688941E+03 0.  0.
         25    2    3    3    0    0 -0.33406288445E+02  0.41715780112E+02  0.62500397384E+02  0.15438277769E+03  0.13065816452E+03 0.  0.
         25    2    3    3    0    0  0.33406288445E+02 -0.41715780112E+02  0.96438424841E+02  0.16717099871E+03  0.12565662181E+03 0.  0.
          5    1    4    4  502    0  0.15986021340E+02 -0.22861153034E+02  0.67097085316E+02  0.72816852817E+02  0.47000000000E+01 0.  1.
         -5    1    4    4    0  502 -0.49392309785E+02  0.64576933146E+02 -0.45966879315E+01  0.81565924873E+02  0.47000000000E+01 0.  1.
          5    1    5    5  503    0 -0.46177111142E+02 -0.92200614991E+01  0.17764717437E+02  0.50547109839E+02  0.47000000000E+01 0. -1.
         -5    1    5    5    0  503  0.79583399587E+02 -0.32495718613E+02  0.78673707404E+02  0.11662388887E+03  0.47000000000E+01 0. -1.
<mgrwt>
<rscale>  0 0.27952689E+03</rscale>
<asrwt>0</asrwt>
<pdfrwt beam="1">  1        3 0.12508843E-01 0.27952689E+03</pdfrwt>
<pdfrwt beam="2">  1       -3 0.36960969E-01 0.27952689E+03</pdfrwt>
<totfact> 0.93309409E+02</totfact>
</mgrwt>
</event>
<event>
 9    1  0.7997082E-001  0.2732732E+03  0.7818608E-02  0.1099421E+00
          2   -1    0    0  501    0  0.00000000000E+00  0.00000000000E+00  0.97226984994E+03  0.97226984994E+03  0.00000000000E+00 0.  1.
         -2   -1    0    0    0  501 -0.00000000000E+00 -0.00000000000E+00 -0.19202038825E+02  0.19202038825E+02  0.00000000000E+00 0.  1.
         35    2    1    2    0    0 -0.35527136788E-14  0.71054273576E-14  0.95306781111E+03  0.99147188876E+03  0.27327322157E+03 0.  0.
         25    2    3    3    0    0 -0.41664559902E+01  0.51442042866E+02  0.54223399989E+03  0.55886367261E+03  0.12508897150E+03 0.  0.
         25    2    3    3    0    0  0.41664559902E+01 -0.51442042866E+02  0.41083381122E+03  0.43260821616E+03  0.12530684384E+03 0.  0.
          5    1    4    4  502    0 -0.30006046162E+02 -0.13477416036E+02  0.38863901039E+03  0.39005688553E+03  0.47000000000E+01 0. -1.
         -5    1    4    4    0  502  0.25839590171E+02  0.64919458901E+02  0.15359498950E+03  0.16880678708E+03  0.47000000000E+01 0. -1.
          5    1    5    5  503    0 -0.48335202279E+02  0.13026227109E+02  0.19172276920E+03  0.19820616691E+03  0.47000000000E+01 0. -1.
         -5    1    5    5    0  503  0.52501658269E+02 -0.64468269975E+02  0.21911104202E+03  0.23440204924E+03  0.47000000000E+01 0. -1.
<mgrwt>
<rscale>  0 0.27327322E+03</rscale>
<asrwt>0</asrwt>
<pdfrwt beam="1">  1        2 0.14957994E+00 0.27327322E+03</pdfrwt>
<pdfrwt beam="2">  1       -2 0.29541606E-02 0.27327322E+03</pdfrwt>
<totfact> 0.11806344E+04</totfact>
</mgrwt>
</event>
<event>
 9    1  0.7997082E-001  0.2737837E+03  0.7818608E-02  0.1099133E+00
          4   -1    0    0  501    0  0.00000000000E+00  0.00000000000E+00  0.15497177803E+02  0.15497177803E+02  0.00000000000E+00 0. -1.
         -4   -1    0    0    0  501 -0.00000000000E+00 -0.00000000000E+00 -0.12092120217E+04  0.12092120217E+04  0.00000000000E+00 0. -1.
         35    2    1    2    0    0  0.00000000000E+00  0.00000000000E+00 -0.11937148439E+04  0.12247091995E+04  0.27378366425E+03 0.  0.
         25    2    3    3    0    0  0.11933856211E+02 -0.27128290712E+02 -0.38457821495E+03  0.40542597936E+03  0.12486576892E+03 0.  0.
         25    2    3    3    0    0 -0.11933856211E+02  0.27128290712E+02 -0.80913662899E+03  0.81928322019E+03  0.12507817323E+03 0.  0.
          5    1    4    4  502    0  0.58856577744E+02  0.19089537644E+02 -0.17365307675E+03  0.18440712637E+03  0.47000000000E+01 0.  1.
         -5    1    4    4    0  502 -0.46922721533E+02 -0.46217828356E+02 -0.21092513819E+03  0.22101885298E+03  0.47000000000E+01 0.  1.
          5    1    5    5  503    0  0.62732068832E+01 -0.17907423660E+02 -0.17783803070E+02  0.26426929416E+02  0.47000000000E+01 0. -1.
         -5    1    5    5    0  503 -0.18207063094E+02  0.45035714372E+02 -0.79135282592E+03  0.79285629077E+03  0.47000000000E+01 0. -1.
<mgrwt>
<rscale>  0 0.27378366E+03</rscale>
<asrwt>0</asrwt>
<pdfrwt beam="1">  1        4 0.23841800E-02 0.27378366E+03</pdfrwt>
<pdfrwt beam="2">  1       -4 0.18603271E+00 0.27378366E+03</pdfrwt>
<totfact> 0.25611812E+02</totfact>
</mgrwt>
</event>
<event>
 9    1  0.7997082E-001  0.2775474E+03  0.7818608E-02  0.1097036E+00
          2   -1    0    0  501    0  0.00000000000E+00  0.00000000000E+00  0.19192604479E+04  0.19192604479E+04  0.00000000000E+00 0. -1.
         -2   -1    0    0    0  501 -0.00000000000E+00 -0.00000000000E+00 -0.10034149032E+02  0.10034149032E+02  0.00000000000E+00 0. -1.
         35    2    1    2    0    0 -0.35527136788E-14  0.00000000000E+00  0.19092262989E+04  0.19292945970E+04  0.27754744002E+03 0.  0.
         25    2    3    3    0    0  0.15939213162E+02  0.34056404354E+02  0.12756250831E+04  0.12822612876E+04  0.12474277512E+03 0.  0.
         25    2    3    3    0    0 -0.15939213162E+02 -0.34056404354E+02  0.63360121581E+03  0.64703330934E+03  0.12564913657E+03 0.  0.
          5    1    4    4  502    0 -0.43080493120E+02  0.22417385920E+02  0.24161420871E+03  0.24649134656E+03  0.47000000000E+01 0. -1.
         -5    1    4    4    0  502  0.59019706283E+02  0.11639018434E+02  0.10340108744E+04  0.10357699411E+04  0.47000000000E+01 0. -1.
          5    1    5    5  503    0 -0.42615391967E+02  0.28288878998E+02  0.14718751362E+03  0.15589286858E+03  0.47000000000E+01 0. -1.
         -5    1    5    5    0  503  0.26676178805E+02 -0.62345283352E+02  0.48641370219E+03  0.49114044076E+03  0.47000000000E+01 0. -1.
<mgrwt>
<rscale>  0 0.27754744E+03</rscale>
<asrwt>0</asrwt>
<pdfrwt beam="1">  1        2 0.29527055E+00 0.27754744E+03</pdfrwt>
<pdfrwt beam="2">  1       -2 0.15437168E-02 0.27754744E+03</pdfrwt>
<totfact> 0.92684076E+03</totfact>
</mgrwt>
</event>
<event>
 9    1  0.7997082E-001  0.2735615E+03  0.7818608E-02  0.1099258E+00
          2   -1    0    0  501    0  0.00000000000E+00  0.00000000000E+00  0.18129486318E+03  0.18129486318E+03  0.00000000000E+00 0. -1.
         -2   -1    0    0    0  501 -0.00000000000E+00 -0.00000000000E+00 -0.10319636660E+03  0.10319636660E+03  0.00000000000E+00 0. -1.
         35    2    1    2    0    0  0.00000000000E+00  0.00000000000E+00  0.78098496580E+02  0.28449122978E+03  0.27356148240E+03 0.  0.
         25    2    3    3    0    0 -0.20221214827E+02  0.49175434121E+01 -0.15468748305E+02  0.12703943698E+03  0.12436501362E+03 0.  0.
         25    2    3    3    0    0  0.20221214827E+02 -0.49175434121E+01  0.93567244885E+02  0.15745179279E+03  0.12491260135E+03 0.  0.
          5    1    4    4  502    0 -0.42431123847E+02  0.54009893360E+02 -0.22656432958E+02  0.72476705265E+02  0.47000000000E+01 0. -1.
         -5    1    4    4    0  502  0.22209909019E+02 -0.49092349948E+02  0.71876846521E+01  0.54562731720E+02  0.47000000000E+01 0. -1.
          5    1    5    5  503    0  0.12486953770E+02 -0.51526599267E+02  0.96153040475E+02  0.10990182728E+03  0.47000000000E+01 0. -1.
         -5    1    5    5    0  503  0.77342610573E+01  0.46609055855E+02 -0.25857955899E+01  0.47549965516E+02  0.47000000000E+01 0. -1.
<mgrwt>
<rscale>  0 0.27356148E+03</rscale>
<asrwt>0</asrwt>
<pdfrwt beam="1">  1        2 0.27891517E-01 0.27356148E+03</pdfrwt>
<pdfrwt beam="2">  1       -2 0.15876364E-01 0.27356148E+03</pdfrwt>
<totfact> 0.58756461E+03</totfact>
</mgrwt>
</event>
<event>
 9    1  0.7997082E-001  0.2747313E+03  0.7818608E-02  0.1098602E+00
         -4   -1    0    0    0  501 -0.00000000000E+00  0.00000000000E+00  0.20764345088E+03  0.20764345088E+03  0.00000000000E+00 0. -1.
          4   -1    0    0  501    0  0.00000000000E+00 -0.00000000000E+00 -0.90873673848E+02  0.90873673848E+02  0.00000000000E+00 0. -1.
         35    2    1    2    0    0  0.00000000000E+00  0.00000000000E+00  0.11676977703E+03  0.29851712473E+03  0.27473131043E+03 0.  0.
         25    2    3    3    0    0 -0.45588651379E+02  0.30262489909E+02  0.45943776402E+02  0.14401514715E+03  0.12504154745E+03 0.  0.
         25    2    3    3    0    0  0.45588651379E+02 -0.30262489909E+02  0.70826000632E+02  0.15450197758E+03  0.12593806129E+03 0.  0.
          5    1    4    4  502    0  0.39254653228E+02  0.25116763476E+01 -0.68448825860E+01  0.40201725532E+02  0.47000000000E+01 0.  1.
         -5    1    4    4    0  502 -0.84843304606E+02  0.27750813561E+02  0.52788658988E+02  0.10381342162E+03  0.47000000000E+01 0.  1.
          5    1    5    5  503    0  0.30607296248E+00  0.41843091060E+02 -0.22950809778E+01  0.42169839303E+02  0.47000000000E+01 0.  1.
         -5    1    5    5    0  503  0.45282578416E+02 -0.72105580969E+02  0.73121081610E+02  0.11233213828E+03  0.47000000000E+01 0.  1.
<mgrwt>
<rscale>  0 0.27473131E+03</rscale>
<asrwt>0</asrwt>
<pdfrwt beam="1">  1        4 0.13980565E-01 0.27473131E+03</pdfrwt>
<pdfrwt beam="2">  1       -4 0.31945146E-01 0.27473131E+03</pdfrwt>
<totfact> 0.75387305E+02</totfact>
</mgrwt>
</event>
<event>
 9    1  0.7997082E-001  0.2775289E+03  0.7818608E-02  0.1097046E+00
         -2   -1    0    0    0  501 -0.00000000000E+00  0.00000000000E+00  0.68797493969E+01  0.68797493969E+01  0.00000000000E+00 0. -1.
          2   -1    0    0  501    0  0.00000000000E+00 -0.00000000000E+00 -0.27988760964E+04  0.27988760964E+04  0.00000000000E+00 0. -1.
         35    2    1    2    0    0 -0.35527136788E-14  0.35527136788E-14 -0.27919963470E+04  0.28057558458E+04  0.27752885354E+03 0.  0.
         25    2    3    3    0    0  0.18931868730E+02  0.13285145039E+02 -0.19252070835E+04  0.19298261129E+04  0.13142146341E+03 0.  0.
         25    2    3    3    0    0 -0.18931868730E+02 -0.13285145039E+02 -0.86678926352E+03  0.87592973288E+03  0.12407400561E+03 0.  0.
          5    1    4    4  502    0  0.68771706898E+01  0.71890730598E+02 -0.93059223160E+03  0.93340214492E+03  0.47000000000E+01 0.  1.
         -5    1    4    4    0  502  0.12054698041E+02 -0.58605585559E+02 -0.99461485187E+03  0.99642396798E+03  0.47000000000E+01 0.  1.
          5    1    5    5  503    0 -0.26580970598E+01 -0.21263426873E+02 -0.85142912273E+03  0.85171171169E+03  0.47000000000E+01 0. -1.
         -5    1    5    5    0  503 -0.16273771671E+02  0.79782818338E+01 -0.15360140788E+02  0.24218021191E+02  0.47000000000E+01 0. -1.
<mgrwt>
<rscale>  0 0.27752885E+03</rscale>
<asrwt>0</asrwt>
<pdfrwt beam="1">  1        2 0.43059716E+00 0.27752885E+03</pdfrwt>
<pdfrwt beam="2">  1       -2 0.10584209E-02 0.27752885E+03</pdfrwt>
<totfact> 0.53557130E+03</totfact>
</mgrwt>
</event>
<event>
 9    1  0.7997082E-001  0.2663474E+03  0.7818608E-02  0.1103388E+00
         -3   -1    0    0    0  501 -0.00000000000E+00  0.00000000000E+00  0.45231027178E+02  0.45231027178E+02  0.00000000000E+00 0.  1.
          3   -1    0    0  501    0  0.00000000000E+00 -0.00000000000E+00 -0.39210333678E+03  0.39210333678E+03  0.00000000000E+00 0.  1.
         35    2    1    2    0    0  0.00000000000E+00  0.00000000000E+00 -0.34687230960E+03  0.43733436396E+03  0.26634741735E+03 0.  0.
         25    2    3    3    0    0  0.12666219185E+02 -0.40536338507E+02 -0.21174629865E+03  0.24926593504E+03  0.12447242076E+03 0.  0.
         25    2    3    3    0    0 -0.12666219185E+02  0.40536338507E+02 -0.13512601095E+03  0.18806842892E+03  0.12372173323E+03 0.  0.
          5    1    4    4  502    0  0.54597484641E+02  0.18601970509E+02 -0.10931083920E+03  0.12368455119E+03  0.47000000000E+01 0. -1.
         -5    1    4    4    0  502 -0.41931265456E+02 -0.59138309016E+02 -0.10243545945E+03  0.12558138385E+03  0.47000000000E+01 0. -1.
          5    1    5    5  503    0 -0.38539666099E+02  0.67701701985E+02 -0.12751347123E+03  0.14950117611E+03  0.47000000000E+01 0.  1.
         -5    1    5    5    0  503  0.25873446913E+02 -0.27165363478E+02 -0.76125397199E+01  0.38567252806E+02  0.47000000000E+01 0.  1.
<mgrwt>
<rscale>  0 0.26634742E+03</rscale>
<asrwt>0</asrwt>
<pdfrwt beam="1">  1        3 0.60323590E-01 0.26634742E+03</pdfrwt>
<pdfrwt beam="2">  1       -3 0.69586196E-02 0.26634742E+03</pdfrwt>
<totfact> 0.92431841E+02</totfact>
</mgrwt>
</event>
<event>
 9    1  0.7997082E-001  0.2745242E+03  0.7818608E-02  0.1098718E+00
          2   -1    0    0  501    0  0.00000000000E+00  0.00000000000E+00  0.17269278018E+04  0.17269278018E+04  0.00000000000E+00 0.  1.
         -2   -1    0    0    0  501 -0.00000000000E+00 -0.00000000000E+00 -0.10910057393E+02  0.10910057393E+02  0.00000000000E+00 0.  1.
         35    2    1    2    0    0 -0.71054273576E-14 -0.26645352591E-14  0.17160177444E+04  0.17378378592E+04  0.27452418058E+03 0.  0.
         25    2    3    3    0    0  0.36461432231E+02 -0.73701962759E+01  0.11233312051E+04  0.11308327361E+04  0.12460306934E+03 0.  0.
         25    2    3    3    0    0 -0.36461432231E+02  0.73701962759E+01  0.59268653933E+03  0.60700512310E+03  0.12567469805E+03 0.  0.
          5    1    4    4  502    0 -0.45554888901E+02  0.37716409350E+00  0.31715661347E+03  0.32044624764E+03  0.47000000000E+01 0.  1.
         -5    1    4    4    0  502  0.82016321132E+02 -0.77473603694E+01  0.80617459158E+03  0.81038648843E+03  0.47000000000E+01 0.  1.
          5    1    5    5  503    0 -0.13654838422E+02  0.50427541220E+02  0.49468708323E+03  0.49746034198E+03  0.47000000000E+01 0.  1.
         -5    1    5    5    0  503 -0.22806593809E+02 -0.43057344945E+02  0.97999456099E+02  0.10954478112E+03  0.47000000000E+01 0.  1.
<mgrwt>
<rscale>  0 0.27452418E+03</rscale>
<asrwt>0</asrwt>
<pdfrwt beam="1">  1        2 0.26568098E+00 0.27452418E+03</pdfrwt>
<pdfrwt beam="2">  1       -2 0.16784717E-02 0.27452418E+03</pdfrwt>
<totfact> 0.10344548E+04</totfact>
</mgrwt>
</event>
<event>
 9    1  0.7997082E-001  0.2728867E+03  0.7818608E-02  0.1099639E+00
         -2   -1    0    0    0  501 -0.00000000000E+00  0.00000000000E+00  0.38088560038E+02  0.38088560038E+02  0.00000000000E+00 0. -1.
          2   -1    0    0  501    0  0.00000000000E+00 -0.00000000000E+00 -0.48877643860E+03  0.48877643860E+03  0.00000000000E+00 0. -1.
         35    2    1    2    0    0  0.71054273576E-14  0.71054273576E-14 -0.45068787856E+03  0.52686499864E+03  0.27288672175E+03 0.  0.
         25    2    3    3    0    0  0.42628848470E+02 -0.29876336843E+02 -0.25262674203E+03  0.28671338745E+03  0.12519776966E+03 0.  0.
         25    2    3    3    0    0 -0.42628848470E+02  0.29876336843E+02 -0.19806113653E+03  0.24015161119E+03  0.12543830487E+03 0.  0.
          5    1    4    4  502    0  0.44458784489E+02  0.43095256403E+02 -0.10582540593E+03  0.12269837482E+03  0.47000000000E+01 0.  1.
         -5    1    4    4    0  502 -0.18299360193E+01 -0.72971593246E+02 -0.14680133610E+03  0.16401501263E+03  0.47000000000E+01 0.  1.
          5    1    5    5  503    0 -0.56349996830E+02  0.62102970659E+02 -0.76670555586E+02  0.11372143686E+03  0.47000000000E+01 0.  1.
         -5    1    5    5    0  503  0.13721148361E+02 -0.32226633816E+02 -0.12139058094E+03  0.12643017433E+03  0.47000000000E+01 0.  1.
<mgrwt>
<rscale>  0 0.27288672E+03</rscale>
<asrwt>0</asrwt>
<pdfrwt beam="1">  1        2 0.75196376E-01 0.27288672E+03</pdfrwt>
<pdfrwt beam="2">  1       -2 0.58597784E-02 0.27288672E+03</pdfrwt>
<totfact> 0.97423405E+03</totfact>
</mgrwt>
</event>
<event>
 9    1  0.7997082E-001  0.2766489E+03  0.7818608E-02  0.1097533E+00
          3   -1    0    0  501    0  0.00000000000E+00  0.00000000000E+00  0.15028009291E+03  0.15028009291E+03  0.00000000000E+00 0. -1.
         -3   -1    0    0    0  501 -0.00000000000E+00 -0.00000000000E+00 -0.12731993189E+03  0.12731993189E+03  0.00000000000E+00 0. -1.
         35    2    1    2    0    0  0.71054273576E-14  0.53290705182E-14  0.22960161021E+02  0.27760002480E+03  0.27664888356E+03 0.  0.
         25    2    3    3    0    0  0.47264756212E+02 -0.12693242770E+02 -0.21834094240E+02  0.13608698012E+03  0.12509141815E+03 0.  0.
         25    2    3    3    0    0 -0.47264756212E+02  0.12693242770E+02  0.44794255261E+02  0.14151304469E+03  0.12499736365E+03 0.  0.
          5    1    4    4  502    0 -0.29375994261E+02 -0.11947342814E+02 -0.45566994954E+02  0.55714711417E+02  0.47000000000E+01 0.  1.
         -5    1    4    4    0  502  0.76640750474E+02 -0.74589995611E+00  0.23732900714E+02  0.80372268702E+02  0.47000000000E+01 0.  1.
          5    1    5    5  503    0  0.83842925706E+00  0.62943838484E+02  0.31451571824E+02  0.70526031626E+02  0.47000000000E+01 0.  1.
         -5    1    5    5    0  503 -0.48103185470E+02 -0.50250595714E+02  0.13342683436E+02  0.70987013060E+02  0.47000000000E+01 0.  1.
<mgrwt>
<rscale>  0 0.27664888E+03</rscale>
<asrwt>0</asrwt>
<pdfrwt beam="1">  1        3 0.23120014E-01 0.27664888E+03</pdfrwt>
<pdfrwt beam="2">  1       -3 0.19587682E-01 0.27664888E+03</pdfrwt>
<totfact> 0.10259460E+03</totfact>
</mgrwt>
</event>
<event>
 9    1  0.7997082E-001  0.2760065E+03  0.7818608E-02  0.1097890E+00
          2   -1    0    0  501    0  0.00000000000E+00  0.00000000000E+00  0.98661933736E+03  0.98661933736E+03  0.00000000000E+00 0.  1.
         -2   -1    0    0    0  501 -0.00000000000E+00 -0.00000000000E+00 -0.19303187065E+02  0.19303187065E+02  0.00000000000E+00 0.  1.
         35    2    1    2    0    0  0.14210854715E-13 -0.17763568394E-14  0.96731615030E+03  0.10059225244E+04  0.27600650449E+03 0.  0.
         25    2    3    3    0    0 -0.57625515010E+02  0.39570037282E+00  0.43649223164E+03  0.45755046035E+03  0.12452348742E+03 0.  0.
         25    2    3    3    0    0  0.57625515010E+02 -0.39570037282E+00  0.53082391865E+03  0.54837206408E+03  0.12496812190E+03 0.  0.
          5    1    4    4  502    0  0.29890666013E+02 -0.10611352544E+02  0.23980551573E+03  0.24193971996E+03  0.47000000000E+01 0.  1.
         -5    1    4    4    0  502 -0.87516181023E+02  0.11007052917E+02  0.19668671591E+03  0.21561074039E+03  0.47000000000E+01 0.  1.
          5    1    5    5  503    0  0.77862998713E+02 -0.14919535864E+02  0.50828377414E+03  0.51445089578E+03  0.47000000000E+01 0.  1.
         -5    1    5    5    0  503 -0.20237483703E+02  0.14523835491E+02  0.22540144517E+02  0.33921168300E+02  0.47000000000E+01 0.  1.
<mgrwt>
<rscale>  0 0.27600650E+03</rscale>
<asrwt>0</asrwt>
<pdfrwt beam="1">  1        2 0.15178755E+00 0.27600650E+03</pdfrwt>
<pdfrwt beam="2">  1       -2 0.29697218E-02 0.27600650E+03</pdfrwt>
<totfact> 0.11481061E+04</totfact>
</mgrwt>
</event>
<event>
 9    1  0.7997082E-001  0.2772714E+03  0.7818608E-02  0.1097189E+00
         -2   -1    0    0    0  501 -0.00000000000E+00  0.00000000000E+00  0.78444607720E+01  0.78444607720E+01  0.00000000000E+00 0. -1.
          2   -1    0    0  501    0  0.00000000000E+00 -0.00000000000E+00 -0.24501179623E+04  0.24501179623E+04  0.00000000000E+00 0. -1.
         35    2    1    2    0    0  0.71054273576E-14 -0.71054273576E-14 -0.24422735015E+04  0.24579624231E+04  0.27727137784E+03 0.  0.
         25    2    3    3    0    0 -0.57662454924E+02 -0.13036671861E+02 -0.13579162989E+04  0.13649438579E+04  0.12506057267E+03 0.  0.
         25    2    3    3    0    0  0.57662454924E+02  0.13036671861E+02 -0.10843572026E+04  0.10930185652E+04  0.12395211750E+03 0.  0.
          5    1    4    4  502    0  0.22538265651E+02  0.34985276109E+02 -0.30249417773E+03  0.30537969894E+03  0.47000000000E+01 0. -1.
         -5    1    4    4    0  502 -0.80200720575E+02 -0.48021947970E+02 -0.10554221212E+04  0.10595641590E+04  0.47000000000E+01 0. -1.
          5    1    5    5  503    0  0.37297805800E+02 -0.51764547650E+02 -0.67637078230E+03  0.67938959358E+03  0.47000000000E+01 0.  1.
         -5    1    5    5    0  503  0.20364649124E+02  0.64801219511E+02 -0.40798642030E+03  0.41362897158E+03  0.47000000000E+01 0.  1.
<mgrwt>
<rscale>  0 0.27727138E+03</rscale>
<asrwt>0</asrwt>
<pdfrwt beam="1">  1        2 0.37694100E+00 0.27727138E+03</pdfrwt>
<pdfrwt beam="2">  1       -2 0.12068409E-02 0.27727138E+03</pdfrwt>
<totfact> 0.69242373E+03</totfact>
</mgrwt>
</event>
<event>
 9    1  0.7997082E-001  0.2797133E+03  0.7818608E-02  0.1095846E+00
          1   -1    0    0  501    0  0.00000000000E+00  0.00000000000E+00  0.19748397818E+04  0.19748397818E+04  0.00000000000E+00 0.  1.
         -1   -1    0    0    0  501 -0.00000000000E+00 -0.00000000000E+00 -0.99045411793E+01  0.99045411793E+01  0.00000000000E+00 0.  1.
         35    2    1    2    0    0 -0.71054273576E-14  0.00000000000E+00  0.19649352406E+04  0.19847443230E+04  0.27971329565E+03 0.  0.
         25    2    3    3    0    0 -0.57664616295E+02  0.22255732941E+02  0.10884806176E+04  0.10973010792E+04  0.12433454054E+03 0.  0.
         25    2    3    3    0    0  0.57664616295E+02 -0.22255732941E+02  0.87645462303E+03  0.88744324375E+03  0.12474886387E+03 0.  0.
          5    1    4    4  502    0 -0.65415029816E+02 -0.38954109097E+02  0.65488940588E+03  0.65931689852E+03  0.47000000000E+01 0.  1.
         -5    1    4    4    0  502  0.77504135211E+01  0.61209842038E+02  0.43359121170E+03  0.43798418069E+03  0.47000000000E+01 0.  1.
          5    1    5    5  503    0  0.82289104543E+02 -0.53648443355E+02  0.57994434043E+03  0.58822375011E+03  0.47000000000E+01 0.  1.
         -5    1    5    5    0  503 -0.24624488248E+02  0.31392710414E+02  0.29651028260E+03  0.29921949364E+03  0.47000000000E+01 0.  1.
<mgrwt>
<rscale>  0 0.27971330E+03</rscale>
<asrwt>0</asrwt>
<pdfrwt beam="1">  1        1 0.30382119E+00 0.27971330E+03</pdfrwt>
<pdfrwt beam="2">  1       -1 0.15237771E-02 0.27971330E+03</pdfrwt>
<totfact> 0.35733570E+03</totfact>
</mgrwt>
</event>
<event>
 9    1  0.7997082E-001  0.2663245E+03  0.7818608E-02  0.1103402E+00
         -4   -1    0    0    0  501 -0.00000000000E+00  0.00000000000E+00  0.85131680697E+03  0.85131680697E+03  0.00000000000E+00 0.  1.
          4   -1    0    0  501    0  0.00000000000E+00 -0.00000000000E+00 -0.20829128422E+02  0.20829128422E+02  0.00000000000E+00 0.  1.
         35    2    1    2    0    0  0.00000000000E+00  0.00000000000E+00  0.83048767854E+03  0.87214593539E+03  0.26632451709E+03 0.  0.
         25    2    3    3    0    0  0.10309116582E+02  0.41862316552E+02  0.35159552693E+03  0.37566977995E+03  0.12509851147E+03 0.  0.
         25    2    3    3    0    0 -0.10309116582E+02 -0.41862316552E+02  0.47889215161E+03  0.49647615544E+03  0.12366142737E+03 0.  0.
          5    1    4    4  502    0  0.21695026397E+02  0.84515446245E+02  0.24872232112E+03  0.26362552579E+03  0.47000000000E+01 0.  1.
         -5    1    4    4    0  502 -0.11385909815E+02 -0.42653129693E+02  0.10287320581E+03  0.11204425415E+03  0.47000000000E+01 0.  1.
          5    1    5    5  503    0  0.21261607956E+02 -0.74725212285E+02  0.21539714736E+03  0.22902823934E+03  0.47000000000E+01 0. -1.
         -5    1    5    5    0  503 -0.31570724537E+02  0.32862895733E+02  0.26349500425E+03  0.26744791610E+03  0.47000000000E+01 0. -1.
<mgrwt>
<rscale>  0 0.26632452E+03</rscale>
<asrwt>0</asrwt>
<pdfrwt beam="1">  1        4 0.32044820E-02 0.26632452E+03</pdfrwt>
<pdfrwt beam="2">  1       -4 0.13097179E+00 0.26632452E+03</pdfrwt>
<totfact> 0.40442581E+02</totfact>
</mgrwt>
</event>
<event>
 9    1  0.7997082E-001  0.2691782E+03  0.7818608E-02  0.1101751E+00
         -2   -1    0    0    0  501 -0.00000000000E+00  0.00000000000E+00  0.77146601898E+02  0.77146601898E+02  0.00000000000E+00 0.  1.
          2   -1    0    0  501    0  0.00000000000E+00 -0.00000000000E+00 -0.23480258779E+03  0.23480258779E+03  0.00000000000E+00 0.  1.
         35    2    1    2    0    0 -0.13322676296E-14 -0.71054273576E-14 -0.15765598589E+03  0.31194918969E+03  0.26917816973E+03 0.  0.
         25    2    3    3    0    0  0.27547077917E+01  0.23130729918E+02 -0.27010348452E+02  0.12945057847E+03  0.12443984194E+03 0.  0.
         25    2    3    3    0    0 -0.27547077917E+01 -0.23130729918E+02 -0.13064563744E+03  0.18249861122E+03  0.12527905425E+03 0.  0.
          5    1    4    4  502    0 -0.24790519135E+01 -0.34425674257E+02  0.31580602534E+02  0.47018051883E+02  0.47000000000E+01 0. -1.
         -5    1    4    4    0  502  0.52337597052E+01  0.57556404175E+02 -0.58590950986E+02  0.82432526588E+02  0.47000000000E+01 0. -1.
          5    1    5    5  503    0  0.21303998468E+02  0.46954894494E+02 -0.67214897957E+02  0.84844298424E+02  0.47000000000E+01 0. -1.
         -5    1    5    5    0  503 -0.24058706259E+02 -0.70085624411E+02 -0.63430739484E+02  0.97654312795E+02  0.47000000000E+01 0. -1.
<mgrwt>
<rscale>  0 0.26917817E+03</rscale>
<asrwt>0</asrwt>
<pdfrwt beam="1">  1        2 0.36123475E-01 0.26917817E+03</pdfrwt>
<pdfrwt beam="2">  1       -2 0.11868708E-01 0.26917817E+03</pdfrwt>
<totfact> 0.71255829E+03</totfact>
</mgrwt>
</event>
<event>
 9    1  0.7997082E-001  0.2733276E+03  0.7818608E-02  0.1099390E+00
          1   -1    0    0  501    0  0.00000000000E+00  0.00000000000E+00  0.23605410359E+02  0.23605410359E+02  0.00000000000E+00 0.  1.
         -1   -1    0    0    0  501 -0.00000000000E+00 -0.00000000000E+00 -0.79121639307E+03  0.79121639307E+03  0.00000000000E+00 0.  1.
         35    2    1    2    0    0 -0.35527136788E-14 -0.35527136788E-14 -0.76761098271E+03  0.81482180343E+03  0.27332755179E+03 0.  0.
         25    2    3    3    0    0  0.16349966968E+02 -0.20224891135E+02 -0.52911921150E+03  0.54425692083E+03  0.12478817354E+03 0.  0.
         25    2    3    3    0    0 -0.16349966968E+02  0.20224891135E+02 -0.23849177121E+03  0.27056488259E+03  0.12510261035E+03 0.  0.
          5    1    4    4  502    0  0.70157843713E+02 -0.86402611217E+01 -0.33628736106E+03  0.34366852686E+03  0.47000000000E+01 0.  1.
         -5    1    4    4    0  502 -0.53807876745E+02 -0.11584630013E+02 -0.19283185044E+03  0.20058839397E+03  0.47000000000E+01 0.  1.
          5    1    5    5  503    0  0.20788011883E+02  0.41436357718E+02 -0.21797078567E+03  0.22289564057E+03  0.47000000000E+01 0. -1.
         -5    1    5    5    0  503 -0.37137978852E+02 -0.21211466582E+02 -0.20520985540E+02  0.47669242026E+02  0.47000000000E+01 0. -1.
<mgrwt>
<rscale>  0 0.27332755E+03</rscale>
<asrwt>0</asrwt>
<pdfrwt beam="1">  1        1 0.36316023E-02 0.27332755E+03</pdfrwt>
<pdfrwt beam="2">  1       -1 0.12172558E+00 0.27332755E+03</pdfrwt>
<totfact> 0.16629370E+03</totfact>
</mgrwt>
</event>
<event>
 9    1  0.7997082E-001  0.2813009E+03  0.7818608E-02  0.1094981E+00
         -1   -1    0    0    0  501 -0.00000000000E+00  0.00000000000E+00  0.29991770499E+02  0.29991770499E+02  0.00000000000E+00 0. -1.
          1   -1    0    0  501    0  0.00000000000E+00 -0.00000000000E+00 -0.65959904255E+03  0.65959904255E+03  0.00000000000E+00 0. -1.
         35    2    1    2    0    0  0.00000000000E+00 -0.14210854715E-13 -0.62960727205E+03  0.68959081305E+03  0.28130085748E+03 0.  0.
         25    2    3    3    0    0  0.62543762884E+02 -0.22560862583E+02 -0.32898536379E+03  0.35851046569E+03  0.12600662532E+03 0.  0.
         25    2    3    3    0    0 -0.62543762884E+02  0.22560862583E+02 -0.30062190826E+03  0.33108034736E+03  0.12173721651E+03 0.  0.
          5    1    4    4  502    0  0.67879476986E+02 -0.18227114942E+02 -0.33856630341E+03  0.34581654518E+03  0.47000000000E+01 0. -1.
         -5    1    4    4    0  502 -0.53357141020E+01 -0.43337476410E+01  0.95809396281E+01  0.12693920504E+02  0.47000000000E+01 0. -1.
          5    1    5    5  503    0 -0.27135771541E+02  0.69079652167E+02 -0.12000323427E+03  0.14117795393E+03  0.47000000000E+01 0.  1.
         -5    1    5    5    0  503 -0.35407991343E+02 -0.46518789584E+02 -0.18061867399E+03  0.18990239343E+03  0.47000000000E+01 0.  1.
<mgrwt>
<rscale>  0 0.28130086E+03</rscale>
<asrwt>0</asrwt>
<pdfrwt beam="1">  1        1 0.10147678E+00 0.28130086E+03</pdfrwt>
<pdfrwt beam="2">  1       -1 0.46141183E-02 0.28130086E+03</pdfrwt>
<totfact> 0.60910852E+03</totfact>
</mgrwt>
</event>
<event>
 9    1  0.7997082E-001  0.2738358E+03  0.7818608E-02  0.1099104E+00
          1   -1    0    0  501    0  0.00000000000E+00  0.00000000000E+00  0.33103284256E+03  0.33103284256E+03  0.00000000000E+00 0.  1.
         -1   -1    0    0    0  501 -0.00000000000E+00 -0.00000000000E+00 -0.56630349774E+02  0.56630349774E+02  0.00000000000E+00 0.  1.
         35    2    1    2    0    0  0.00000000000E+00  0.35527136788E-14  0.27440249278E+03  0.38766319233E+03  0.27383575852E+03 0.  0.
         25    2    3    3    0    0  0.39587186891E+02  0.19147850662E+02  0.89237282907E+02  0.15858578486E+03  0.12350049776E+03 0.  0.
         25    2    3    3    0    0 -0.39587186891E+02 -0.19147850662E+02  0.18516520987E+03  0.22907740747E+03  0.12750105143E+03 0.  0.
          5    1    4    4  502    0  0.52069132739E+02  0.62553811165E+02  0.37465039622E+02  0.89721196321E+02  0.47000000000E+01 0. -1.
         -5    1    4    4    0  502 -0.12481945847E+02 -0.43405960503E+02  0.51772243285E+02  0.68864588535E+02  0.47000000000E+01 0. -1.
          5    1    5    5  503    0  0.39464699354E+02 -0.36226048442E+02  0.77836993489E+02  0.94606958709E+02  0.47000000000E+01 0.  1.
         -5    1    5    5    0  503 -0.79051886245E+02  0.17078197780E+02  0.10732821639E+03  0.13447044876E+03  0.47000000000E+01 0.  1.
<mgrwt>
<rscale>  0 0.27383576E+03</rscale>
<asrwt>0</asrwt>
<pdfrwt beam="1">  1        1 0.50928129E-01 0.27383576E+03</pdfrwt>
<pdfrwt beam="2">  1       -1 0.87123617E-02 0.27383576E+03</pdfrwt>
<totfact> 0.57958636E+03</totfact>
</mgrwt>
</event>
<event>
 9    1  0.7997082E-001  0.2752527E+03  0.7818608E-02  0.1098310E+00
          2   -1    0    0  501    0  0.00000000000E+00  0.00000000000E+00  0.53480342556E+03  0.53480342556E+03  0.00000000000E+00 0. -1.
         -2   -1    0    0    0  501 -0.00000000000E+00 -0.00000000000E+00 -0.35416769470E+02  0.35416769470E+02  0.00000000000E+00 0. -1.
         35    2    1    2    0    0  0.00000000000E+00  0.71054273576E-14  0.49938665609E+03  0.57022019503E+03  0.27525268126E+03 0.  0.
         25    2    3    3    0    0  0.39053660221E+02 -0.29627735311E+02  0.30864647317E+03  0.33660528454E+03  0.12504991444E+03 0.  0.
         25    2    3    3    0    0 -0.39053660221E+02  0.29627735311E+02  0.19074018292E+03  0.23361491050E+03  0.12566271503E+03 0.  0.
          5    1    4    4  502    0  0.20913394316E+02  0.20231782696E+02  0.70037158462E+01  0.30295826916E+02  0.47000000000E+01 0. -1.
         -5    1    4    4    0  502  0.18140265905E+02 -0.49859518007E+02  0.30164275732E+03  0.30630945762E+03  0.47000000000E+01 0. -1.
          5    1    5    5  503    0 -0.61925188830E+01 -0.38910998763E+02  0.15603786827E+02  0.42637791666E+02  0.47000000000E+01 0.  1.
         -5    1    5    5    0  503 -0.32861141338E+02  0.68538734074E+02  0.17513639610E+03  0.19097711883E+03  0.47000000000E+01 0.  1.
<mgrwt>
<rscale>  0 0.27525268E+03</rscale>
<asrwt>0</asrwt>
<pdfrwt beam="1">  1        2 0.82277444E-01 0.27525268E+03</pdfrwt>
<pdfrwt beam="2">  1       -2 0.54487341E-02 0.27525268E+03</pdfrwt>
<totfact> 0.98447271E+03</totfact>
</mgrwt>
</event>
<event>
 9    1  0.7997082E-001  0.2743782E+03  0.7818608E-02  0.1098800E+00
         -4   -1    0    0    0  501 -0.00000000000E+00  0.00000000000E+00  0.10855736442E+03  0.10855736442E+03  0.00000000000E+00 0.  1.
          4   -1    0    0  501    0  0.00000000000E+00 -0.00000000000E+00 -0.17337241318E+03  0.17337241318E+03  0.00000000000E+00 0.  1.
         35    2    1    2    0    0  0.71054273576E-14 -0.71054273576E-14 -0.64815048754E+02  0.28192977760E+03  0.27437822245E+03 0.  0.
         25    2    3    3    0    0 -0.17718756187E+02  0.47396765304E+02 -0.19073871807E+02  0.13746474090E+03  0.12638170249E+03 0.  0.
         25    2    3    3    0    0  0.17718756187E+02 -0.47396765304E+02 -0.45741176947E+02  0.14446503670E+03  0.12734788525E+03 0.  0.
          5    1    4    4  502    0  0.10679784132E+02  0.47049504445E+02 -0.66315414101E+02  0.82143397818E+02  0.47000000000E+01 0.  1.
         -5    1    4    4    0  502 -0.28398540319E+02  0.34726085912E+00  0.47241542294E+02  0.55321343085E+02  0.47000000000E+01 0.  1.
          5    1    5    5  503    0  0.69970989184E+02 -0.79083559984E+01 -0.15917897831E+02  0.72346049604E+02  0.47000000000E+01 0.  1.
         -5    1    5    5    0  503 -0.52252232997E+02 -0.39488409306E+02 -0.29823279116E+02  0.72118987097E+02  0.47000000000E+01 0.  1.
<mgrwt>
<rscale>  0 0.27437822E+03</rscale>
<asrwt>0</asrwt>
<pdfrwt beam="1">  1        4 0.26672679E-01 0.27437822E+03</pdfrwt>
<pdfrwt beam="2">  1       -4 0.16701133E-01 0.27437822E+03</pdfrwt>
<totfact> 0.77594035E+02</totfact>
</mgrwt>
</event>
<event>
 9    1  0.7997082E-001  0.2690054E+03  0.7818608E-02  0.1101850E+00
          2   -1    0    0  501    0  0.00000000000E+00  0.00000000000E+00  0.39769927029E+04  0.39769927029E+04  0.00000000000E+00 0. -1.
         -2   -1    0    0    0  501 -0.00000000000E+00 -0.00000000000E+00 -0.45489088983E+01  0.45489088983E+01  0.00000000000E+00 0. -1.
         35    2    1    2    0    0  0.35527136788E-14  0.71054273576E-14  0.39724437940E+04  0.39815416118E+04  0.26900540883E+03 0.  0.
         25    2    3    3    0    0  0.31094140937E+02 -0.24603745530E+02  0.16032273641E+04  0.16085785176E+04  0.12495869874E+03 0.  0.
         25    2    3    3    0    0 -0.31094140937E+02  0.24603745530E+02  0.23692164299E+04  0.23729630942E+04  0.12726022480E+03 0.  0.
          5    1    4    4  502    0 -0.49670799975E+01 -0.13266868717E+02  0.20318453564E+02  0.25211331668E+02  0.47000000000E+01 0. -1.
         -5    1    4    4    0  502  0.36061220934E+02 -0.11336876812E+02  0.15829089106E+04  0.15833671859E+04  0.47000000000E+01 0. -1.
          5    1    5    5  503    0  0.33488709782E+01 -0.47068833824E+02  0.56403094157E+03  0.56602092108E+03  0.47000000000E+01 0. -1.
         -5    1    5    5    0  503 -0.34443011915E+02  0.71672579354E+02  0.18051854883E+04  0.18069421731E+04  0.47000000000E+01 0. -1.
<mgrwt>
<rscale>  0 0.26900541E+03</rscale>
<asrwt>0</asrwt>
<pdfrwt beam="1">  1        2 0.61184225E+00 0.26900541E+03</pdfrwt>
<pdfrwt beam="2">  1       -2 0.69983532E-03 0.26900541E+03</pdfrwt>
<totfact> 0.16679046E+03</totfact>
</mgrwt>
</event>
<event>
 9    1  0.7997082E-001  0.2683898E+03  0.7818608E-02  0.1102205E+00
         -1   -1    0    0    0  501 -0.00000000000E+00  0.00000000000E+00  0.10261670618E+04  0.10261670618E+04  0.00000000000E+00 0. -1.
          1   -1    0    0  501    0  0.00000000000E+00 -0.00000000000E+00 -0.17549058021E+02  0.17549058021E+02  0.00000000000E+00 0. -1.
         35    2    1    2    0    0  0.00000000000E+00  0.35527136788E-14  0.10086180038E+04  0.10437161198E+04  0.26838975618E+03 0.  0.
         25    2    3    3    0    0 -0.40620587509E+02 -0.88188247808E+01  0.40490355406E+03  0.42557430944E+03  0.12425297166E+03 0.  0.
         25    2    3    3    0    0  0.40620587509E+02  0.88188247808E+01  0.60371444969E+03  0.61814181035E+03  0.12609661826E+03 0.  0.
          5    1    4    4  502    0  0.12512145081E+02 -0.46716926344E+02  0.75860703487E+02  0.90088630332E+02  0.47000000000E+01 0.  1.
         -5    1    4    4    0  502 -0.53132732590E+02  0.37898101563E+02  0.32904285057E+03  0.33548567911E+03  0.47000000000E+01 0.  1.
          5    1    5    5  503    0 -0.26752529775E+02  0.40110319839E+02  0.36198525697E+03  0.36521220116E+03  0.47000000000E+01 0. -1.
         -5    1    5    5    0  503  0.67373117284E+02 -0.31291495058E+02  0.24172919272E+03  0.25292960920E+03  0.47000000000E+01 0. -1.
<mgrwt>
<rscale>  0 0.26838976E+03</rscale>
<asrwt>0</asrwt>
<pdfrwt beam="1">  1        1 0.26998559E-02 0.26838976E+03</pdfrwt>
<pdfrwt beam="2">  1       -1 0.15787181E+00 0.26838976E+03</pdfrwt>
<totfact> 0.13038214E+03</totfact>
</mgrwt>
</event>
<event>
 9    1  0.7997082E-001  0.2662908E+03  0.7818608E-02  0.1103421E+00
         -2   -1    0    0    0  501 -0.00000000000E+00  0.00000000000E+00  0.30412073416E+02  0.30412073416E+02  0.00000000000E+00 0. -1.
          2   -1    0    0  501    0  0.00000000000E+00 -0.00000000000E+00 -0.58291640671E+03  0.58291640671E+03  0.00000000000E+00 0. -1.
         35    2    1    2    0    0 -0.35527136788E-14  0.35527136788E-14 -0.55250433329E+03  0.61332848013E+03  0.26629079260E+03 0.  0.
         25    2    3    3    0    0 -0.28124682468E+02 -0.26030908185E+02 -0.21932755113E+03  0.25536486255E+03  0.12505211870E+03 0.  0.
         25    2    3    3    0    0  0.28124682468E+02  0.26030908185E+02 -0.33317678216E+03  0.35796361758E+03  0.12515021932E+03 0.  0.
          5    1    4    4  502    0 -0.50169750294E+01 -0.59722922425E+02 -0.42010672200E+02  0.73341557661E+02  0.47000000000E+01 0.  1.
         -5    1    4    4    0  502 -0.23107707439E+02  0.33692014240E+02 -0.17731687893E+03  0.18202330489E+03  0.47000000000E+01 0.  1.
          5    1    5    5  503    0  0.19622844810E+02 -0.30367965452E+02 -0.27106482599E+03  0.27350594007E+03  0.47000000000E+01 0. -1.
         -5    1    5    5    0  503  0.85018376579E+01  0.56398873637E+02 -0.62111956165E+02  0.84457677506E+02  0.47000000000E+01 0. -1.
<mgrwt>
<rscale>  0 0.26629079E+03</rscale>
<asrwt>0</asrwt>
<pdfrwt beam="1">  1        2 0.89679447E-01 0.26629079E+03</pdfrwt>
<pdfrwt beam="2">  1       -2 0.46787805E-02 0.26629079E+03</pdfrwt>
<totfact> 0.11232574E+04</totfact>
</mgrwt>
</event>
<event>
 9    1  0.7997082E-001  0.2762619E+03  0.7818608E-02  0.1097748E+00
          1   -1    0    0  501    0  0.00000000000E+00  0.00000000000E+00  0.40714033403E+02  0.40714033403E+02  0.00000000000E+00 0. -1.
         -1   -1    0    0    0  501 -0.00000000000E+00 -0.00000000000E+00 -0.46863847767E+03  0.46863847767E+03  0.00000000000E+00 0. -1.
         35    2    1    2    0    0  0.00000000000E+00 -0.35527136788E-14 -0.42792444427E+03  0.50935251108E+03  0.27626192379E+03 0.  0.
         25    2    3    3    0    0  0.54040843918E+02  0.16027485939E+01 -0.24067901824E+03  0.27788856316E+03  0.12795578181E+03 0.  0.
         25    2    3    3    0    0 -0.54040843918E+02 -0.16027485939E+01 -0.18724542603E+03  0.23146394792E+03  0.12486684108E+03 0.  0.
          5    1    4    4  502    0  0.11303494387E+01 -0.31473715639E+02 -0.28555502420E+01  0.31970558850E+02  0.47000000000E+01 0.  1.
         -5    1    4    4    0  502  0.52910494479E+02  0.33076464233E+02 -0.23782346800E+03  0.24591800431E+03  0.47000000000E+01 0.  1.
          5    1    5    5  503    0  0.94279624331E+01  0.28267121734E+02 -0.14780691015E+03  0.15085386748E+03  0.47000000000E+01 0.  1.
         -5    1    5    5    0  503 -0.63468806351E+02 -0.29869870328E+02 -0.39438515885E+02  0.80610080438E+02  0.47000000000E+01 0.  1.
<mgrwt>
<rscale>  0 0.27626192E+03</rscale>
<asrwt>0</asrwt>
<pdfrwt beam="1">  1        1 0.62636977E-02 0.27626192E+03</pdfrwt>
<pdfrwt beam="2">  1       -1 0.72098225E-01 0.27626192E+03</pdfrwt>
<totfact> 0.24541633E+03</totfact>
</mgrwt>
</event>
<event>
 9    1  0.7997082E-001  0.2757382E+03  0.7818608E-02  0.1098040E+00
          1   -1    0    0  501    0  0.00000000000E+00  0.00000000000E+00  0.64246150072E+03  0.64246150072E+03  0.00000000000E+00 0. -1.
         -1   -1    0    0    0  501 -0.00000000000E+00 -0.00000000000E+00 -0.29586030201E+02  0.29586030201E+02  0.00000000000E+00 0. -1.
         35    2    1    2    0    0  0.71054273576E-14  0.71054273576E-14  0.61287547052E+03  0.67204753093E+03  0.27573817555E+03 0.  0.
         25    2    3    3    0    0  0.27563187749E+02  0.29574892721E+02  0.20596308137E+03  0.24437624218E+03  0.12515811301E+03 0.  0.
         25    2    3    3    0    0 -0.27563187749E+02 -0.29574892721E+02  0.40691238915E+03  0.42767128875E+03  0.12526226558E+03 0.  0.
          5    1    4    4  502    0 -0.23498175162E+01  0.68109835792E+02  0.61828170827E+02  0.92137311018E+02  0.47000000000E+01 0. -1.
         -5    1    4    4    0  502  0.29913005265E+02 -0.38534943071E+02  0.14413491055E+03  0.15223893116E+03  0.47000000000E+01 0. -1.
          5    1    5    5  503    0  0.31354941870E+02 -0.52782360701E+02  0.13400138622E+03  0.14747057839E+03  0.47000000000E+01 0. -1.
         -5    1    5    5    0  503 -0.58918129619E+02  0.23207467981E+02  0.27291100293E+03  0.28020071036E+03  0.47000000000E+01 0. -1.
<mgrwt>
<rscale>  0 0.27573818E+03</rscale>
<asrwt>0</asrwt>
<pdfrwt beam="1">  1        1 0.98840221E-01 0.27573818E+03</pdfrwt>
<pdfrwt beam="2">  1       -1 0.45516974E-02 0.27573818E+03</pdfrwt>
<totfact> 0.64503728E+03</totfact>
</mgrwt>
</event>
<event>
 9    1  0.7997082E-001  0.2760092E+03  0.7818608E-02  0.1097889E+00
         -1   -1    0    0    0  501 -0.00000000000E+00  0.00000000000E+00  0.82509635696E+02  0.82509635696E+02  0.00000000000E+00 0.  1.
          1   -1    0    0  501    0  0.00000000000E+00 -0.00000000000E+00 -0.23082472754E+03  0.23082472754E+03  0.00000000000E+00 0.  1.
         35    2    1    2    0    0  0.00000000000E+00 -0.35527136788E-14 -0.14831509184E+03  0.31333436324E+03  0.27600916057E+03 0.  0.
         25    2    3    3    0    0 -0.29365585281E+02  0.22706192654E+02 -0.11663456126E+03  0.17932346374E+03  0.13105485487E+03 0.  0.
         25    2    3    3    0    0  0.29365585281E+02 -0.22706192654E+02 -0.31680530588E+02  0.13401089950E+03  0.12480928003E+03 0.  0.
          5    1    4    4  502    0 -0.78194471137E+02  0.28348747089E+02 -0.52840512547E+02  0.98652098529E+02  0.47000000000E+01 0. -1.
         -5    1    4    4    0  502  0.48828885856E+02 -0.56425544351E+01 -0.63794048708E+02  0.80671365212E+02  0.47000000000E+01 0. -1.
          5    1    5    5  503    0  0.65249057330E+02  0.21224949730E+02  0.19425586200E+00  0.68775473164E+02  0.47000000000E+01 0.  1.
         -5    1    5    5    0  503 -0.35883472050E+02 -0.43931142384E+02 -0.31874786450E+02  0.65235426332E+02  0.47000000000E+01 0.  1.
<mgrwt>
<rscale>  0 0.27600916E+03</rscale>
<asrwt>0</asrwt>
<pdfrwt beam="1">  1        1 0.35511497E-01 0.27600916E+03</pdfrwt>
<pdfrwt beam="2">  1       -1 0.12693790E-01 0.27600916E+03</pdfrwt>
<totfact> 0.50892314E+03</totfact>
</mgrwt>
</event>
<event>
 9    1  0.7997082E-001  0.2752103E+03  0.7818608E-02  0.1098334E+00
          2   -1    0    0  501    0  0.00000000000E+00  0.00000000000E+00  0.44919567530E+03  0.44919567530E+03  0.00000000000E+00 0.  1.
         -2   -1    0    0    0  501 -0.00000000000E+00 -0.00000000000E+00 -0.42153527187E+02  0.42153527187E+02  0.00000000000E+00 0.  1.
         35    2    1    2    0    0  0.88817841970E-15 -0.71054273576E-14  0.40704214811E+03  0.49134920249E+03  0.27521033492E+03 0.  0.
         25    2    3    3    0    0  0.59906413233E+01 -0.49194950943E+02  0.15448156959E+03  0.20447004668E+03  0.12444843778E+03 0.  0.
         25    2    3    3    0    0 -0.59906413233E+01  0.49194950943E+02  0.25256057853E+03  0.28687915581E+03  0.12671532358E+03 0.  0.
          5    1    4    4  502    0  0.63188845296E+02 -0.11910740476E+02  0.62253989529E+02  0.89623351426E+02  0.47000000000E+01 0. -1.
         -5    1    4    4    0  502 -0.57198203973E+02 -0.37284210467E+02  0.92227580059E+02  0.11484669526E+03  0.47000000000E+01 0. -1.
          5    1    5    5  503    0 -0.71351183353E+01 -0.38502780422E+02  0.13167679873E+03  0.13745633248E+03  0.47000000000E+01 0. -1.
         -5    1    5    5    0  503  0.11444770120E+01  0.87697731365E+02  0.12088377979E+03  0.14942282333E+03  0.47000000000E+01 0. -1.
<mgrwt>
<rscale>  0 0.27521033E+03</rscale>
<asrwt>0</asrwt>
<pdfrwt beam="1">  1        2 0.69107024E-01 0.27521033E+03</pdfrwt>
<pdfrwt beam="2">  1       -2 0.64851583E-02 0.27521033E+03</pdfrwt>
<totfact> 0.91568876E+03</totfact>
</mgrwt>
</event>
<event>
 9    1  0.7997082E-001  0.2772764E+03  0.7818608E-02  0.1097186E+00
          1   -1    0    0  501    0  0.00000000000E+00  0.00000000000E+00  0.34225505004E+04  0.34225505004E+04  0.00000000000E+00 0.  1.
         -1   -1    0    0    0  501 -0.00000000000E+00 -0.00000000000E+00 -0.56158559745E+01  0.56158559745E+01  0.00000000000E+00 0.  1.
         35    2    1    2    0    0 -0.35527136788E-14  0.00000000000E+00  0.34169346444E+04  0.34281663563E+04  0.27727640127E+03 0.  0.
         25    2    3    3    0    0  0.13976756672E+02 -0.22818609619E+02  0.23256174805E+04  0.23293489550E+04  0.12904979744E+03 0.  0.
         25    2    3    3    0    0 -0.13976756672E+02  0.22818609619E+02  0.10913171639E+04  0.10988174013E+04  0.12534149533E+03 0.  0.
          5    1    4    4  502    0 -0.30795084819E+02  0.29510880736E+02  0.15696522472E+04  0.15702386750E+04  0.47000000000E+01 0.  1.
         -5    1    4    4    0  502  0.44771841492E+02 -0.52329490355E+02  0.75596523327E+03  0.75911028004E+03  0.47000000000E+01 0.  1.
          5    1    5    5  503    0  0.18950601134E+02 -0.40669680447E+02  0.22121719032E+03  0.22577042208E+03  0.47000000000E+01 0.  1.
         -5    1    5    5    0  503 -0.32927357806E+02  0.63488290067E+02  0.87009997361E+03  0.87304697923E+03  0.47000000000E+01 0.  1.
<mgrwt>
<rscale>  0 0.27727640E+03</rscale>
<asrwt>0</asrwt>
<pdfrwt beam="1">  1        1 0.52654457E+00 0.27727640E+03</pdfrwt>
<pdfrwt beam="2">  1       -1 0.86398058E-03 0.27727640E+03</pdfrwt>
<totfact> 0.83325819E+02</totfact>
</mgrwt>
</event>
<event>
 9    1  0.7997082E-001  0.2738258E+03  0.7818608E-02  0.1099110E+00
         -2   -1    0    0    0  501 -0.00000000000E+00  0.00000000000E+00  0.83979335426E+02  0.83979335426E+02  0.00000000000E+00 0. -1.
          2   -1    0    0  501    0  0.00000000000E+00 -0.00000000000E+00 -0.22321131419E+03  0.22321131419E+03  0.00000000000E+00 0. -1.
         35    2    1    2    0    0  0.00000000000E+00  0.35527136788E-14 -0.13923197876E+03  0.30719064961E+03  0.27382576814E+03 0.  0.
         25    2    3    3    0    0 -0.11054396533E+02 -0.21714008650E+02 -0.13582686769E+02  0.12819432343E+03  0.12512232944E+03 0.  0.
         25    2    3    3    0    0  0.11054396533E+02  0.21714008650E+02 -0.12564929199E+03  0.17899632619E+03  0.12513289878E+03 0.  0.
          5    1    4    4  502    0 -0.31765398168E+02 -0.54907263016E+02 -0.44900762068E+02  0.77858952517E+02  0.47000000000E+01 0.  1.
         -5    1    4    4    0  502  0.20711001635E+02  0.33193254366E+02  0.31318075299E+02  0.50335370909E+02  0.47000000000E+01 0.  1.
          5    1    5    5  503    0  0.66122577550E+00  0.43791471666E+02 -0.14238077787E+03  0.14903860613E+03  0.47000000000E+01 0.  1.
         -5    1    5    5    0  503  0.10393170758E+02 -0.22077463016E+02  0.16731485874E+02  0.29957720060E+02  0.47000000000E+01 0.  1.
<mgrwt>
<rscale>  0 0.27382577E+03</rscale>
<asrwt>0</asrwt>
<pdfrwt beam="1">  1        2 0.34340202E-01 0.27382577E+03</pdfrwt>
<pdfrwt beam="2">  1       -2 0.12919898E-01 0.27382577E+03</pdfrwt>
<totfact> 0.65658108E+03</totfact>
</mgrwt>
</event>
<event>
 9    1  0.7997082E-001  0.2704749E+03  0.7818608E-02  0.1101008E+00
         -4   -1    0    0    0  501 -0.00000000000E+00  0.00000000000E+00  0.24621859122E+02  0.24621859122E+02  0.00000000000E+00 0. -1.
          4   -1    0    0  501    0  0.00000000000E+00 -0.00000000000E+00 -0.74280217328E+03  0.74280217328E+03  0.00000000000E+00 0. -1.
         35    2    1    2    0    0 -0.71054273576E-14 -0.35527136788E-14 -0.71818031415E+03  0.76742403240E+03  0.27047491910E+03 0.  0.
         25    2    3    3    0    0 -0.14705322347E+02  0.27065646400E+02 -0.24512772698E+03  0.27686122576E+03  0.12496295481E+03 0.  0.
         25    2    3    3    0    0  0.14705322347E+02 -0.27065646400E+02 -0.47305258717E+03  0.49056280664E+03  0.12619160551E+03 0.  0.
          5    1    4    4  502    0 -0.48528341253E+02  0.38904215674E+02 -0.54477880146E+02  0.82815863983E+02  0.47000000000E+01 0. -1.
         -5    1    4    4    0  502  0.33823018906E+02 -0.11838569275E+02 -0.19064984683E+03  0.19404536178E+03  0.47000000000E+01 0. -1.
          5    1    5    5  503    0 -0.49396468587E+02  0.13277544156E+01 -0.29500061135E+03  0.29914749663E+03  0.47000000000E+01 0.  1.
         -5    1    5    5    0  503  0.64101790935E+02 -0.28393400815E+02 -0.17805197582E+03  0.19141531001E+03  0.47000000000E+01 0.  1.
<mgrwt>
<rscale>  0 0.27047492E+03</rscale>
<asrwt>0</asrwt>
<pdfrwt beam="1">  1        4 0.11427724E+00 0.27047492E+03</pdfrwt>
<pdfrwt beam="2">  1       -4 0.37879788E-02 0.27047492E+03</pdfrwt>
<totfact> 0.43365075E+02</totfact>
</mgrwt>
</event>
<event>
 9    1  0.7997082E-001  0.2763630E+03  0.7818608E-02  0.1097692E+00
         -1   -1    0    0    0  501 -0.00000000000E+00  0.00000000000E+00  0.14149742628E+04  0.14149742628E+04  0.00000000000E+00 0.  1.
          1   -1    0    0  501    0  0.00000000000E+00 -0.00000000000E+00 -0.13494323458E+02  0.13494323458E+02  0.00000000000E+00 0.  1.
         35    2    1    2    0    0 -0.14210854715E-13 -0.71054273576E-14  0.14014799393E+04  0.14284685863E+04  0.27636295256E+03 0.  0.
         25    2    3    3    0    0  0.42475194940E+02  0.21400181077E+02  0.51554798856E+03  0.53266873584E+03  0.12523635134E+03 0.  0.
         25    2    3    3    0    0 -0.42475194940E+02 -0.21400181077E+02  0.88593195079E+03  0.89579985043E+03  0.12377334389E+03 0.  0.
          5    1    4    4  502    0  0.15002116600E+02 -0.61946802884E+01  0.47823606949E+03  0.47853449795E+03  0.47000000000E+01 0. -1.
         -5    1    4    4    0  502  0.27473078340E+02  0.27594861366E+02  0.37311919071E+02  0.54134237891E+02  0.47000000000E+01 0. -1.
          5    1    5    5  503    0 -0.47114872870E+01  0.15454012007E+02  0.13002784799E+02  0.21264689325E+02  0.47000000000E+01 0.  1.
         -5    1    5    5    0  503 -0.37763707653E+02 -0.36854193084E+02  0.87292916599E+03  0.87453516110E+03  0.47000000000E+01 0.  1.
<mgrwt>
<rscale>  0 0.27636295E+03</rscale>
<asrwt>0</asrwt>
<pdfrwt beam="1">  1        1 0.20760509E-02 0.27636295E+03</pdfrwt>
<pdfrwt beam="2">  1       -1 0.21768823E+00 0.27636295E+03</pdfrwt>
<totfact> 0.73243862E+02</totfact>
</mgrwt>
</event>
<event>
 9    1  0.7997082E-001  0.2986081E+03  0.7818608E-02  0.1085938E+00
          1   -1    0    0  501    0  0.00000000000E+00  0.00000000000E+00  0.15331942777E+04  0.15331942777E+04  0.00000000000E+00 0. -1.
         -1   -1    0    0    0  501 -0.00000000000E+00 -0.00000000000E+00 -0.14539384026E+02  0.14539384026E+02  0.00000000000E+00 0. -1.
         35    2    1    2    0    0  0.00000000000E+00  0.35527136788E-14  0.15186548936E+04  0.15477336617E+04  0.29860810698E+03 0.  0.
         25    2    3    3    0    0 -0.37672780984E+02  0.24162562320E+02  0.40921122015E+03  0.43037124423E+03  0.12554886428E+03 0.  0.
         25    2    3    3    0    0  0.37672780984E+02 -0.24162562320E+02  0.11094436735E+04  0.11173624175E+04  0.12502175591E+03 0.  0.
          5    1    4    4  502    0 -0.55251950185E+02  0.26711786858E+02  0.81426089534E+02  0.10207152205E+03  0.47000000000E+01 0.  1.
         -5    1    4    4    0  502  0.17579169200E+02 -0.25492245377E+01  0.32778513061E+03  0.32829972218E+03  0.47000000000E+01 0.  1.
          5    1    5    5  503    0  0.55843078222E+02 -0.19253307824E+02  0.22396363715E+03  0.23166989449E+03  0.47000000000E+01 0. -1.
         -5    1    5    5    0  503 -0.18170297238E+02 -0.49092544963E+01  0.88548003634E+03  0.88569252296E+03  0.47000000000E+01 0. -1.
<mgrwt>
<rscale>  0 0.29860811E+03</rscale>
<asrwt>0</asrwt>
<pdfrwt beam="1">  1        1 0.23587591E+00 0.29860811E+03</pdfrwt>
<pdfrwt beam="2">  1       -1 0.22368295E-02 0.29860811E+03</pdfrwt>
<totfact> 0.39607736E+03</totfact>
</mgrwt>
</event>
<event>
 9    1  0.7997082E-001  0.2707776E+03  0.7818608E-02  0.1100835E+00
         -1   -1    0    0    0  501 -0.00000000000E+00  0.00000000000E+00  0.16683292723E+02  0.16683292723E+02  0.00000000000E+00 0. -1.
          1   -1    0    0  501    0  0.00000000000E+00 -0.00000000000E+00 -0.10987119403E+04  0.10987119403E+04  0.00000000000E+00 0. -1.
         35    2    1    2    0    0 -0.71054273576E-14  0.00000000000E+00 -0.10820286476E+04  0.11153952330E+04  0.27077764249E+03 0.  0.
         25    2    3    3    0    0 -0.35855266550E+02 -0.23759588221E+02 -0.42640276622E+03  0.44664916728E+03  0.12580159543E+03 0.  0.
         25    2    3    3    0    0  0.35855266550E+02  0.23759588221E+02 -0.65562588136E+03  0.66874606576E+03  0.12460291321E+03 0.  0.
          5    1    4    4  502    0  0.44556744426E+02 -0.11145156554E+02 -0.21864220618E+03  0.22346369350E+03  0.47000000000E+01 0.  1.
         -5    1    4    4    0  502 -0.80412010976E+02 -0.12614431666E+02 -0.20776056004E+03  0.22318547377E+03  0.47000000000E+01 0.  1.
          5    1    5    5  503    0  0.42712605397E+02 -0.19397692252E+02 -0.57491144373E+03  0.57684130856E+03  0.47000000000E+01 0.  1.
         -5    1    5    5    0  503 -0.68573388473E+01  0.43157280472E+02 -0.80714437629E+02  0.91904757198E+02  0.47000000000E+01 0.  1.
<mgrwt>
<rscale>  0 0.27077764E+03</rscale>
<asrwt>0</asrwt>
<pdfrwt beam="1">  1        1 0.16903262E+00 0.27077764E+03</pdfrwt>
<pdfrwt beam="2">  1       -1 0.25666602E-02 0.27077764E+03</pdfrwt>
<totfact> 0.64178307E+03</totfact>
</mgrwt>
</event>
<event>
 9    1  0.7997082E-001  0.2729755E+03  0.7818608E-02  0.1099589E+00
          2   -1    0    0  501    0  0.00000000000E+00  0.00000000000E+00  0.17861812227E+03  0.17861812227E+03  0.00000000000E+00 0. -1.
         -2   -1    0    0    0  501 -0.00000000000E+00 -0.00000000000E+00 -0.10429462864E+03  0.10429462864E+03  0.00000000000E+00 0. -1.
         35    2    1    2    0    0  0.71054273576E-14  0.00000000000E+00  0.74323493627E+02  0.28291275091E+03  0.27297553539E+03 0.  0.
         25    2    3    3    0    0  0.16670889776E+02 -0.41127591448E+02  0.15809097028E+02  0.13809841021E+03  0.12981466023E+03 0.  0.
         25    2    3    3    0    0 -0.16670889776E+02  0.41127591448E+02  0.58514396599E+02  0.14481434070E+03  0.12481130284E+03 0.  0.
          5    1    4    4  502    0 -0.32323223059E+02  0.39108744521E+01 -0.39523602704E+02  0.51422668723E+02  0.47000000000E+01 0. -1.
         -5    1    4    4    0  502  0.48994112835E+02 -0.45038465900E+02  0.55332699732E+02  0.86675741489E+02  0.47000000000E+01 0. -1.
          5    1    5    5  503    0 -0.51937943966E+02  0.20845608898E+01  0.73280554206E+02  0.89966799667E+02  0.47000000000E+01 0.  1.
         -5    1    5    5    0  503  0.35267054190E+02  0.39043030558E+02 -0.14766157607E+02  0.54847541029E+02  0.47000000000E+01 0.  1.
<mgrwt>
<rscale>  0 0.27297554E+03</rscale>
<asrwt>0</asrwt>
<pdfrwt beam="1">  1        2 0.27479711E-01 0.27297554E+03</pdfrwt>
<pdfrwt beam="2">  1       -2 0.16045327E-01 0.27297554E+03</pdfrwt>
<totfact> 0.58683133E+03</totfact>
</mgrwt>
</event>
<event>
 9    1  0.7997082E-001  0.2765361E+03  0.7818608E-02  0.1097596E+00
         -1   -1    0    0    0  501 -0.00000000000E+00  0.00000000000E+00  0.10664186254E+03  0.10664186254E+03  0.00000000000E+00 0. -1.
          1   -1    0    0  501    0  0.00000000000E+00 -0.00000000000E+00 -0.17927349044E+03  0.17927349044E+03  0.00000000000E+00 0. -1.
         35    2    1    2    0    0  0.00000000000E+00 -0.71054273576E-14 -0.72631627902E+02  0.28591535298E+03  0.27653613814E+03 0.  0.
         25    2    3    3    0    0  0.11824820904E+02 -0.23067640917E+02 -0.90660765429E+02  0.15714916066E+03  0.12571611616E+03 0.  0.
         25    2    3    3    0    0 -0.11824820904E+02  0.23067640917E+02  0.18029137527E+02  0.12876619232E+03  0.12483485105E+03 0.  0.
          5    1    4    4  502    0 -0.30214480160E+02 -0.50272500962E+02 -0.66255638078E+01  0.59213404396E+02  0.47000000000E+01 0.  1.
         -5    1    4    4    0  502  0.42039301063E+02  0.27204860045E+02 -0.84035201621E+02  0.97935756267E+02  0.47000000000E+01 0.  1.
          5    1    5    5  503    0  0.44888228431E+02 -0.21608147791E+02  0.25265350573E+02  0.56056159717E+02  0.47000000000E+01 0.  1.
         -5    1    5    5    0  503 -0.56713049335E+02  0.44675788709E+02 -0.72362130466E+01  0.72710032601E+02  0.47000000000E+01 0.  1.
<mgrwt>
<rscale>  0 0.27653614E+03</rscale>
<asrwt>0</asrwt>
<pdfrwt beam="1">  1        1 0.27580537E-01 0.27653614E+03</pdfrwt>
<pdfrwt beam="2">  1       -1 0.16406441E-01 0.27653614E+03</pdfrwt>
<totfact> 0.46635013E+03</totfact>
</mgrwt>
</event>
<event>
 9    1  0.7997082E-001  0.2786510E+03  0.7818608E-02  0.1096428E+00
          1   -1    0    0  501    0  0.00000000000E+00  0.00000000000E+00  0.11523133799E+04  0.11523133799E+04  0.00000000000E+00 0. -1.
         -1   -1    0    0    0  501 -0.00000000000E+00 -0.00000000000E+00 -0.16845755254E+02  0.16845755254E+02  0.00000000000E+00 0. -1.
         35    2    1    2    0    0 -0.71054273576E-14  0.00000000000E+00  0.11354676247E+04  0.11691591352E+04  0.27865095854E+03 0.  0.
         25    2    3    3    0    0 -0.48544476312E+02 -0.18522494838E+02  0.44840345432E+03  0.46890357972E+03  0.12690650193E+03 0.  0.
         25    2    3    3    0    0  0.48544476312E+02  0.18522494838E+02  0.68706417033E+03  0.70025555544E+03  0.12490404228E+03 0.  0.
          5    1    4    4  502    0 -0.38349229940E+02 -0.72142234506E+02  0.24842891217E+03  0.26156104419E+03  0.47000000000E+01 0.  1.
         -5    1    4    4    0  502 -0.10195246372E+02  0.53619739668E+02  0.19997454215E+03  0.20734253553E+03  0.47000000000E+01 0.  1.
          5    1    5    5  503    0 -0.15125860147E+02  0.59965572950E+01  0.52972154686E+03  0.52999222405E+03  0.47000000000E+01 0. -1.
         -5    1    5    5    0  503  0.63670336459E+02  0.12525937543E+02  0.15734262348E+03  0.17026333140E+03  0.47000000000E+01 0. -1.
<mgrwt>
<rscale>  0 0.27865096E+03</rscale>
<asrwt>0</asrwt>
<pdfrwt beam="1">  1        1 0.17727892E+00 0.27865096E+03</pdfrwt>
<pdfrwt beam="2">  1       -1 0.25916556E-02 0.27865096E+03</pdfrwt>
<totfact> 0.57956909E+03</totfact>
</mgrwt>
</event>
<event>
 9    1  0.7997082E-001  0.2693836E+03  0.7818608E-02  0.1101633E+00
          2   -1    0    0  501    0  0.00000000000E+00  0.00000000000E+00  0.14349622197E+02  0.14349622197E+02  0.00000000000E+00 0.  1.
         -2   -1    0    0    0  501 -0.00000000000E+00 -0.00000000000E+00 -0.12642761507E+04  0.12642761507E+04  0.00000000000E+00 0.  1.
         35    2    1    2    0    0 -0.71054273576E-14  0.35527136788E-14 -0.12499265285E+04  0.12786257729E+04  0.26938363065E+03 0.  0.
         25    2    3    3    0    0 -0.32913591858E+02  0.46157168048E+01 -0.43800603066E+03  0.45657390193E+03  0.12452243036E+03 0.  0.
         25    2    3    3    0    0  0.32913591858E+02 -0.46157168048E+01 -0.81192049786E+03  0.82205187098E+03  0.12429712131E+03 0.  0.
          5    1    4    4  502    0  0.16245594841E+02  0.35827431254E+02 -0.34130061492E+03  0.34359238048E+03  0.47000000000E+01 0.  1.
         -5    1    4    4    0  502 -0.49159186699E+02 -0.31211714449E+02 -0.96705415739E+02  0.11298152145E+03  0.47000000000E+01 0.  1.
          5    1    5    5  503    0  0.76018880874E+02  0.19757658522E+02 -0.47279877978E+03  0.47930158718E+03  0.47000000000E+01 0. -1.
         -5    1    5    5    0  503 -0.43105289016E+02 -0.24373375327E+02 -0.33912171809E+03  0.34275028380E+03  0.47000000000E+01 0. -1.
<mgrwt>
<rscale>  0 0.26938363E+03</rscale>
<asrwt>0</asrwt>
<pdfrwt beam="1">  1        2 0.22076339E-02 0.26938363E+03</pdfrwt>
<pdfrwt beam="2">  1       -2 0.19450405E+00 0.26938363E+03</pdfrwt>
<totfact> 0.74648061E+02</totfact>
</mgrwt>
</event>
<event>
 9    1  0.7997082E-001  0.2725399E+03  0.7818608E-02  0.1099835E+00
         -1   -1    0    0    0  501 -0.00000000000E+00  0.00000000000E+00  0.19573059655E+02  0.19573059655E+02  0.00000000000E+00 0. -1.
          1   -1    0    0  501    0  0.00000000000E+00 -0.00000000000E+00 -0.94872740707E+03  0.94872740707E+03  0.00000000000E+00 0. -1.
         35    2    1    2    0    0  0.71054273576E-14 -0.71054273576E-14 -0.92915434742E+03  0.96830046673E+03  0.27253989165E+03 0.  0.
         25    2    3    3    0    0 -0.52645594828E+02 -0.17843899272E+02 -0.40230686531E+03  0.42388733699E+03  0.12140715459E+03 0.  0.
         25    2    3    3    0    0  0.52645594828E+02  0.17843899272E+02 -0.52684748211E+03  0.54441312974E+03  0.12540902295E+03 0.  0.
          5    1    4    4  502    0 -0.58397723821E+02  0.42556018139E+02 -0.20532116430E+03  0.21771582244E+03  0.47000000000E+01 0. -1.
         -5    1    4    4    0  502  0.57521289935E+01 -0.60399917410E+02 -0.19698570101E+03  0.20617151455E+03  0.47000000000E+01 0. -1.
          5    1    5    5  503    0  0.10925306570E+02 -0.52506299486E+02 -0.17187807383E+03  0.18011228740E+03  0.47000000000E+01 0. -1.
         -5    1    5    5    0  503  0.41720288258E+02  0.70350198757E+02 -0.35496940828E+03  0.36430084234E+03  0.47000000000E+01 0. -1.
<mgrwt>
<rscale>  0 0.27253989E+03</rscale>
<asrwt>0</asrwt>
<pdfrwt beam="1">  1        1 0.14595806E+00 0.27253989E+03</pdfrwt>
<pdfrwt beam="2">  1       -1 0.30112400E-02 0.27253989E+03</pdfrwt>
<totfact> 0.65548279E+03</totfact>
</mgrwt>
</event>
<event>
 9    1  0.7997082E-001  0.2687951E+03  0.7818608E-02  0.1101971E+00
          1   -1    0    0  501    0  0.00000000000E+00  0.00000000000E+00  0.89034813414E+03  0.89034813414E+03  0.00000000000E+00 0.  1.
         -1   -1    0    0    0  501 -0.00000000000E+00 -0.00000000000E+00 -0.20287230554E+02  0.20287230554E+02  0.00000000000E+00 0.  1.
         35    2    1    2    0    0  0.00000000000E+00 -0.71054273576E-14  0.87006090358E+03  0.91063536469E+03  0.26879507340E+03 0.  0.
         25    2    3    3    0    0  0.39677064971E+02 -0.24127285077E+02  0.57822090234E+03  0.59342194828E+03  0.12511515266E+03 0.  0.
         25    2    3    3    0    0 -0.39677064971E+02  0.24127285077E+02  0.29184000124E+03  0.31721341641E+03  0.11531422227E+03 0.  0.
          5    1    4    4  502    0 -0.10682642348E+02  0.45736023692E+02  0.20256220020E+03  0.20798903255E+03  0.47000000000E+01 0.  1.
         -5    1    4    4    0  502  0.50359707319E+02 -0.69863308769E+02  0.37565870214E+03  0.38543291573E+03  0.47000000000E+01 0.  1.
          5    1    5    5  503    0 -0.35580071357E+02 -0.42594484186E+02  0.15808796379E+03  0.16761302413E+03  0.47000000000E+01 0. -1.
         -5    1    5    5    0  503 -0.40969936134E+01  0.66721769263E+02  0.13375203745E+03  0.14960039229E+03  0.47000000000E+01 0. -1.
<mgrwt>
<rscale>  0 0.26879507E+03</rscale>
<asrwt>0</asrwt>
<pdfrwt beam="1">  1        1 0.13697661E+00 0.26879507E+03</pdfrwt>
<pdfrwt beam="2">  1       -1 0.31211131E-02 0.26879507E+03</pdfrwt>
<totfact> 0.68996966E+03</totfact>
</mgrwt>
</event>
<event>
 9    1  0.7997082E-001  0.3217071E+03  0.7818608E-02  0.1074866E+00
          1   -1    0    0  501    0  0.00000000000E+00  0.00000000000E+00  0.23648549057E+04  0.23648549057E+04  0.00000000000E+00 0. -1.
         -1   -1    0    0    0  501 -0.00000000000E+00 -0.00000000000E+00 -0.10940993396E+02  0.10940993396E+02  0.00000000000E+00 0. -1.
         35    2    1    2    0    0  0.14210854715E-13 -0.14210854715E-13  0.23539139123E+04  0.23757958991E+04  0.32170708358E+03 0.  0.
         25    2    3    3    0    0 -0.55972789261E+02 -0.84793682251E+02  0.11884196694E+04  0.11992104931E+04  0.12426413156E+03 0.  0.
         25    2    3    3    0    0  0.55972789261E+02  0.84793682251E+02  0.11654942429E+04  0.11765854060E+04  0.12511381114E+03 0.  0.
          5    1    4    4  502    0 -0.41306989677E+02  0.23743722634E+02  0.47663663935E+03  0.47903507985E+03  0.47000000000E+01 0.  1.
         -5    1    4    4    0  502 -0.14665799585E+02 -0.10853740488E+03  0.71178303007E+03  0.72017541323E+03  0.47000000000E+01 0.  1.
          5    1    5    5  503    0  0.87251267141E+02  0.70113757602E+02  0.10495184076E+04  0.10554807912E+04  0.47000000000E+01 0. -1.
         -5    1    5    5    0  503 -0.31278477880E+02  0.14679924649E+02  0.11597583531E+03  0.12110461487E+03  0.47000000000E+01 0. -1.
<mgrwt>
<rscale>  0 0.32170708E+03</rscale>
<asrwt>0</asrwt>
<pdfrwt beam="1">  1        1 0.36382342E+00 0.32170708E+03</pdfrwt>
<pdfrwt beam="2">  1       -1 0.16832316E-02 0.32170708E+03</pdfrwt>
<totfact> 0.17133973E+03</totfact>
</mgrwt>
</event>
<event>
 9    1  0.7997082E-001  0.2786035E+03  0.7818608E-02  0.1096454E+00
          1   -1    0    0  501    0  0.00000000000E+00  0.00000000000E+00  0.82735718503E+03  0.82735718503E+03  0.00000000000E+00 0.  1.
         -1   -1    0    0    0  501 -0.00000000000E+00 -0.00000000000E+00 -0.23454176373E+02  0.23454176373E+02  0.00000000000E+00 0.  1.
         35    2    1    2    0    0  0.00000000000E+00  0.00000000000E+00  0.80390300866E+03  0.85081136140E+03  0.27860352720E+03 0.  0.
         25    2    3    3    0    0  0.29950109337E+02  0.33009654743E+02  0.53487505021E+03  0.55098170831E+03  0.12451055058E+03 0.  0.
         25    2    3    3    0    0 -0.29950109337E+02 -0.33009654743E+02  0.26902795845E+03  0.29982965309E+03  0.12464000999E+03 0.  0.
          5    1    4    4  502    0  0.33477571738E+02  0.48610246664E+02  0.53043564110E+03  0.53373004716E+03  0.47000000000E+01 0. -1.
         -5    1    4    4    0  502 -0.35274624006E+01 -0.15600591920E+02  0.44394091022E+01  0.17251661150E+02  0.47000000000E+01 0. -1.
          5    1    5    5  503    0 -0.20518004573E+01 -0.71730090175E+02  0.21910881289E+03  0.23060827741E+03  0.47000000000E+01 0. -1.
         -5    1    5    5    0  503 -0.27898308880E+02  0.38720435431E+02  0.49919145558E+02  0.69221375684E+02  0.47000000000E+01 0. -1.
<mgrwt>
<rscale>  0 0.27860353E+03</rscale>
<asrwt>0</asrwt>
<pdfrwt beam="1">  1        1 0.12728570E+00 0.27860353E+03</pdfrwt>
<pdfrwt beam="2">  1       -1 0.36083355E-02 0.27860353E+03</pdfrwt>
<totfact> 0.62613650E+03</totfact>
</mgrwt>
</event>
<event>
 9    1  0.7997082E-001  0.2784404E+03  0.7818608E-02  0.1096544E+00
         -3   -1    0    0    0  501 -0.00000000000E+00  0.00000000000E+00  0.19262149959E+02  0.19262149959E+02  0.00000000000E+00 0.  1.
          3   -1    0    0  501    0  0.00000000000E+00 -0.00000000000E+00 -0.10062356662E+04  0.10062356662E+04  0.00000000000E+00 0.  1.
         35    2    1    2    0    0  0.00000000000E+00  0.00000000000E+00 -0.98697351623E+03  0.10254978161E+04  0.27844038713E+03 0.  0.
         25    2    3    3    0    0  0.61592982854E+02 -0.37139021678E+01 -0.50630937173E+03  0.52507656309E+03  0.12469454118E+03 0.  0.
         25    2    3    3    0    0 -0.61592982854E+02  0.37139021678E+01 -0.48066414450E+03  0.50042125305E+03  0.12480353399E+03 0.  0.
          5    1    4    4  502    0 -0.34783687934E+02  0.39903223532E+01 -0.22070791513E+03  0.22351711661E+03  0.47000000000E+01 0. -1.
         -5    1    4    4    0  502  0.96376670788E+02 -0.77042245210E+01 -0.28560145661E+03  0.30155944648E+03  0.47000000000E+01 0. -1.
          5    1    5    5  503    0 -0.65344259642E+02  0.74926503015E+01 -0.10056431446E+03  0.12025507648E+03  0.47000000000E+01 0.  1.
         -5    1    5    5    0  503  0.37512767880E+01 -0.37787481337E+01 -0.38009983004E+03  0.38016617657E+03  0.47000000000E+01 0.  1.
<mgrwt>
<rscale>  0 0.27844039E+03</rscale>
<asrwt>0</asrwt>
<pdfrwt beam="1">  1        3 0.15480547E+00 0.27844039E+03</pdfrwt>
<pdfrwt beam="2">  1       -3 0.29634081E-02 0.27844039E+03</pdfrwt>
<totfact> 0.41777952E+02</totfact>
</mgrwt>
</event>
<event>
 9    1  0.7997082E-001  0.2743204E+03  0.7818608E-02  0.1098832E+00
         -1   -1    0    0    0  501 -0.00000000000E+00  0.00000000000E+00  0.11800878680E+02  0.11800878680E+02  0.00000000000E+00 0.  1.
          1   -1    0    0  501    0  0.00000000000E+00 -0.00000000000E+00 -0.15941969045E+04  0.15941969045E+04  0.00000000000E+00 0.  1.
         35    2    1    2    0    0  0.00000000000E+00 -0.14210854715E-13 -0.15823960258E+04  0.16059977831E+04  0.27432042769E+03 0.  0.
         25    2    3    3    0    0  0.26183783560E+02  0.39196127600E+02 -0.61218693702E+03  0.62662656764E+03  0.12516422200E+03 0.  0.
         25    2    3    3    0    0 -0.26183783560E+02 -0.39196127600E+02 -0.97020908875E+03  0.97937121550E+03  0.12506148451E+03 0.  0.
          5    1    4    4  502    0  0.13961048923E+01  0.40172304355E+02 -0.59431924307E+03  0.59569557312E+03  0.47000000000E+01 0. -1.
         -5    1    4    4    0  502  0.24787678668E+02 -0.97617675473E+00 -0.17867693945E+02  0.30930994515E+02  0.47000000000E+01 0. -1.
          5    1    5    5  503    0 -0.71056356144E+02 -0.46519854885E+02 -0.52820674366E+03  0.53501173510E+03  0.47000000000E+01 0.  1.
         -5    1    5    5    0  503  0.44872572584E+02  0.73237272847E+01 -0.44200234510E+03  0.44435948040E+03  0.47000000000E+01 0.  1.
<mgrwt>
<rscale>  0 0.27432043E+03</rscale>
<asrwt>0</asrwt>
<pdfrwt beam="1">  1        1 0.24526115E+00 0.27432043E+03</pdfrwt>
<pdfrwt beam="2">  1       -1 0.18155191E-02 0.27432043E+03</pdfrwt>
<totfact> 0.48988748E+03</totfact>
</mgrwt>
</event>
<event>
 9    1  0.7997082E-001  0.2771108E+03  0.7818608E-02  0.1097278E+00
         -2   -1    0    0    0  501 -0.00000000000E+00  0.00000000000E+00  0.16205522162E+02  0.16205522162E+02  0.00000000000E+00 0. -1.
          2   -1    0    0  501    0  0.00000000000E+00 -0.00000000000E+00 -0.11846330611E+04  0.11846330611E+04  0.00000000000E+00 0. -1.
         35    2    1    2    0    0  0.17763568394E-14  0.71054273576E-14 -0.11684275390E+04  0.12008385833E+04  0.27711078886E+03 0.  0.
         25    2    3    3    0    0 -0.43248801948E+01  0.55462722431E+02 -0.49033405242E+03  0.50912406844E+03  0.12523983366E+03 0.  0.
         25    2    3    3    0    0  0.43248801948E+01 -0.55462722431E+02 -0.67809348654E+03  0.69171451484E+03  0.12475325803E+03 0.  0.
          5    1    4    4  502    0 -0.19707244557E+02  0.21597489960E+00 -0.40895898008E+03  0.40946057139E+03  0.47000000000E+01 0. -1.
         -5    1    4    4    0  502  0.15382364362E+02  0.55246747531E+02 -0.81375072332E+02  0.99663497045E+02  0.47000000000E+01 0. -1.
          5    1    5    5  503    0 -0.92883075202E+01  0.16369798828E+02 -0.48187295382E+03  0.48226328555E+03  0.47000000000E+01 0.  1.
         -5    1    5    5    0  503  0.13613187715E+02 -0.71832521259E+02 -0.19622053272E+03  0.20945122929E+03  0.47000000000E+01 0.  1.
<mgrwt>
<rscale>  0 0.27711079E+03</rscale>
<asrwt>0</asrwt>
<pdfrwt beam="1">  1        2 0.18225131E+00 0.27711079E+03</pdfrwt>
<pdfrwt beam="2">  1       -2 0.24931564E-02 0.27711079E+03</pdfrwt>
<totfact> 0.11365289E+04</totfact>
</mgrwt>
</event>
<event>
 9    1  0.7997082E-001  0.2749246E+03  0.7818608E-02  0.1098494E+00
          2   -1    0    0  501    0  0.00000000000E+00  0.00000000000E+00  0.25140178696E+04  0.25140178696E+04  0.00000000000E+00 0.  1.
         -2   -1    0    0    0  501 -0.00000000000E+00 -0.00000000000E+00 -0.75162080370E+01  0.75162080370E+01  0.00000000000E+00 0.  1.
         35    2    1    2    0    0  0.71054273576E-14  0.00000000000E+00  0.25065016616E+04  0.25215340777E+04  0.27492458105E+03 0.  0.
         25    2    3    3    0    0  0.41708722228E+02  0.17499448555E+02  0.97133135355E+03  0.98030311984E+03  0.12435336812E+03 0.  0.
         25    2    3    3    0    0 -0.41708722228E+02 -0.17499448555E+02  0.15351703081E+04  0.15412309578E+04  0.12883765936E+03 0.  0.
          5    1    4    4  502    0  0.40083391212E+02  0.95417767001E+01  0.96992890751E+03  0.97081506961E+03  0.47000000000E+01 0. -1.
         -5    1    4    4    0  502  0.16253310153E+01  0.79576718550E+01  0.14024460405E+01  0.94880502295E+01  0.47000000000E+01 0. -1.
          5    1    5    5  503    0  0.37941930113E+02 -0.38252918311E+02  0.59539106235E+03  0.59784235626E+03  0.47000000000E+01 0. -1.
         -5    1    5    5    0  503 -0.79650652341E+02  0.20753469756E+02  0.93977924571E+03  0.94338860158E+03  0.47000000000E+01 0. -1.
<mgrwt>
<rscale>  0 0.27492458E+03</rscale>
<asrwt>0</asrwt>
<pdfrwt beam="1">  1        2 0.38677131E+00 0.27492458E+03</pdfrwt>
<pdfrwt beam="2">  1       -2 0.11563417E-02 0.27492458E+03</pdfrwt>
<totfact> 0.67996168E+03</totfact>
</mgrwt>
</event>
<event>
 9    1  0.7997082E-001  0.3259563E+03  0.7818608E-02  0.1072940E+00
          2   -1    0    0  501    0  0.00000000000E+00  0.00000000000E+00  0.19140918558E+04  0.19140918558E+04  0.00000000000E+00 0. -1.
         -2   -1    0    0    0  501 -0.00000000000E+00 -0.00000000000E+00 -0.13877013426E+02  0.13877013426E+02  0.00000000000E+00 0. -1.
         35    2    1    2    0    0  0.00000000000E+00  0.00000000000E+00  0.19002148424E+04  0.19279688693E+04  0.32595630616E+03 0.  0.
         25    2    3    3    0    0 -0.69138926191E+02 -0.80654249057E+02  0.91496663820E+03  0.92915272595E+03  0.12196532340E+03 0.  0.
         25    2    3    3    0    0  0.69138926191E+02  0.80654249057E+02  0.98524820421E+03  0.99881614331E+03  0.12503745534E+03 0.  0.
          5    1    4    4  502    0  0.34328915028E+02 -0.90457577562E+01  0.19752970034E+03  0.20074952716E+03  0.47000000000E+01 0. -1.
         -5    1    4    4    0  502 -0.10346784122E+03 -0.71608491300E+02  0.71743693786E+03  0.72840319878E+03  0.47000000000E+01 0. -1.
          5    1    5    5  503    0  0.72456683690E+01  0.32811115422E+02  0.50806643628E+02  0.61093977134E+02  0.47000000000E+01 0.  1.
         -5    1    5    5    0  503  0.61893257822E+02  0.47843133635E+02  0.93444156058E+03  0.93772216618E+03  0.47000000000E+01 0.  1.
<mgrwt>
<rscale>  0 0.32595631E+03</rscale>
<asrwt>0</asrwt>
<pdfrwt beam="1">  1        2 0.29447546E+00 0.32595631E+03</pdfrwt>
<pdfrwt beam="2">  1       -2 0.21349267E-02 0.32595631E+03</pdfrwt>
<totfact> 0.57908497E+03</totfact>
</mgrwt>
</event>
<event>
 9    1  0.7997082E-001  0.2776526E+03  0.7818608E-02  0.1096978E+00
         -2   -1    0    0    0  501 -0.00000000000E+00  0.00000000000E+00  0.20798886549E+03  0.20798886549E+03  0.00000000000E+00 0. -1.
          2   -1    0    0  501    0  0.00000000000E+00 -0.00000000000E+00 -0.92662399909E+02  0.92662399909E+02  0.00000000000E+00 0. -1.
         35    2    1    2    0    0  0.71054273576E-14  0.00000000000E+00  0.11532646558E+03  0.30065126540E+03  0.27765264220E+03 0.  0.
         25    2    3    3    0    0 -0.54207129879E+02 -0.14766227891E+02  0.85132831931E+02  0.16135476177E+03  0.12502522008E+03 0.  0.
         25    2    3    3    0    0  0.54207129879E+02  0.14766227891E+02  0.30193633645E+02  0.13929650363E+03  0.12383620632E+03 0.  0.
          5    1    4    4  502    0 -0.38144491004E+02  0.21324869153E+02 -0.20485662136E+02  0.48492314767E+02  0.47000000000E+01 0. -1.
         -5    1    4    4    0  502 -0.16062638875E+02 -0.36091097043E+02  0.10561849407E+03  0.11286244700E+03  0.47000000000E+01 0. -1.
          5    1    5    5  503    0  0.27347564881E+02  0.57346900251E+02 -0.21255814127E+02  0.67159927841E+02  0.47000000000E+01 0. -1.
         -5    1    5    5    0  503  0.26859564997E+02 -0.42580672360E+02  0.51449447772E+02  0.72136575789E+02  0.47000000000E+01 0. -1.
<mgrwt>
<rscale>  0 0.27765264E+03</rscale>
<asrwt>0</asrwt>
<pdfrwt beam="1">  1        2 0.14255754E-01 0.27765264E+03</pdfrwt>
<pdfrwt beam="2">  1       -2 0.31998287E-01 0.27765264E+03</pdfrwt>
<totfact> 0.37441253E+03</totfact>
</mgrwt>
</event>
<event>
 9    1  0.7997082E-001  0.2915241E+03  0.7818608E-02  0.1089556E+00
          1   -1    0    0  501    0  0.00000000000E+00  0.00000000000E+00  0.43303184360E+03  0.43303184360E+03  0.00000000000E+00 0.  1.
         -1   -1    0    0    0  501 -0.00000000000E+00 -0.00000000000E+00 -0.49064682606E+02  0.49064682606E+02  0.00000000000E+00 0.  1.
         35    2    1    2    0    0  0.14210854715E-13 -0.35527136788E-14  0.38396716100E+03  0.48209652621E+03  0.29152406394E+03 0.  0.
         25    2    3    3    0    0  0.35588161509E+02 -0.72426760777E+01  0.82486853545E+02  0.15490353633E+03  0.12598432825E+03 0.  0.
         25    2    3    3    0    0 -0.35588161509E+02  0.72426760777E+01  0.30148030745E+03  0.32719298988E+03  0.12184376573E+03 0.  0.
          5    1    4    4  502    0 -0.24567723898E+02 -0.25332097947E+02  0.84694529916E+02  0.91872420462E+02  0.47000000000E+01 0.  1.
         -5    1    4    4    0  502  0.60155885407E+02  0.18089421869E+02 -0.22076763710E+01  0.63031115869E+02  0.47000000000E+01 0.  1.
          5    1    5    5  503    0 -0.58883216228E+02 -0.30339173281E+02  0.94554567069E+02  0.11554373519E+03  0.47000000000E+01 0. -1.
         -5    1    5    5    0  503  0.23295054719E+02  0.37581849358E+02  0.20692574038E+03  0.21164925469E+03  0.47000000000E+01 0. -1.
<mgrwt>
<rscale>  0 0.29152406E+03</rscale>
<asrwt>0</asrwt>
<pdfrwt beam="1">  1        1 0.66620281E-01 0.29152406E+03</pdfrwt>
<pdfrwt beam="2">  1       -1 0.75484130E-02 0.29152406E+03</pdfrwt>
<totfact> 0.51291207E+03</totfact>
</mgrwt>
</event>
<event>
 9    1  0.7997082E-001  0.2741241E+03  0.7818608E-02  0.1098942E+00
          1   -1    0    0  501    0  0.00000000000E+00  0.00000000000E+00  0.25792446433E+03  0.25792446433E+03  0.00000000000E+00 0.  1.
         -1   -1    0    0    0  501 -0.00000000000E+00 -0.00000000000E+00 -0.72835296461E+02  0.72835296461E+02  0.00000000000E+00 0.  1.
         35    2    1    2    0    0  0.00000000000E+00  0.00000000000E+00  0.18508916787E+03  0.33075976079E+03  0.27412409470E+03 0.  0.
         25    2    3    3    0    0 -0.33219020197E+02  0.45870390877E+02  0.95489941691E+02  0.16687815743E+03  0.12458890159E+03 0.  0.
         25    2    3    3    0    0  0.33219020197E+02 -0.45870390877E+02  0.89599226180E+02  0.16388160336E+03  0.12498624935E+03 0.  0.
          5    1    4    4  502    0  0.15585002807E+02 -0.79652693319E+01 -0.22092609382E+02  0.28574660406E+02  0.47000000000E+01 0. -1.
         -5    1    4    4    0  502 -0.48804023004E+02  0.53835660209E+02  0.11758255107E+03  0.13830349702E+03  0.47000000000E+01 0. -1.
          5    1    5    5  503    0  0.12386245442E+02  0.43421209070E+02  0.28624652569E+02  0.53668251397E+02  0.47000000000E+01 0. -1.
         -5    1    5    5    0  503  0.20832774755E+02 -0.89291599947E+02  0.60974573611E+02  0.11021335197E+03  0.47000000000E+01 0. -1.
<mgrwt>
<rscale>  0 0.27412409E+03</rscale>
<asrwt>0</asrwt>
<pdfrwt beam="1">  1        1 0.39680686E-01 0.27412409E+03</pdfrwt>
<pdfrwt beam="2">  1       -1 0.11205430E-01 0.27412409E+03</pdfrwt>
<totfact> 0.53776942E+03</totfact>
</mgrwt>
</event>
<event>
 9    1  0.7997082E-001  0.2755818E+03  0.7818608E-02  0.1098127E+00
          2   -1    0    0  501    0  0.00000000000E+00  0.00000000000E+00  0.13392543973E+04  0.13392543973E+04  0.00000000000E+00 0. -1.
         -2   -1    0    0    0  501 -0.00000000000E+00 -0.00000000000E+00 -0.14176795431E+02  0.14176795431E+02  0.00000000000E+00 0. -1.
         35    2    1    2    0    0 -0.35527136788E-14  0.00000000000E+00  0.13250776019E+04  0.13534311928E+04  0.27558182539E+03 0.  0.
         25    2    3    3    0    0  0.31122074085E+02  0.14097303644E+02  0.42272480499E+03  0.44215184756E+03  0.12503870635E+03 0.  0.
         25    2    3    3    0    0 -0.31122074085E+02 -0.14097303644E+02  0.90235279692E+03  0.91127934520E+03  0.12256491106E+03 0.  0.
          5    1    4    4  502    0  0.31853562854E+02  0.66549236506E+02  0.29207009508E+03  0.30128139801E+03  0.47000000000E+01 0.  1.
         -5    1    4    4    0  502 -0.73148876911E+00 -0.52451932862E+02  0.13065470990E+03  0.14087044955E+03  0.47000000000E+01 0.  1.
          5    1    5    5  503    0  0.42791814408E+02  0.17356848395E+02  0.29797083291E+03  0.30156443231E+03  0.47000000000E+01 0.  1.
         -5    1    5    5    0  503 -0.73913888493E+02 -0.31454152038E+02  0.60438196400E+03  0.60971491289E+03  0.47000000000E+01 0.  1.
<mgrwt>
<rscale>  0 0.27558183E+03</rscale>
<asrwt>0</asrwt>
<pdfrwt beam="1">  1        2 0.20603904E+00 0.27558183E+03</pdfrwt>
<pdfrwt beam="2">  1       -2 0.21810465E-02 0.27558183E+03</pdfrwt>
<totfact> 0.11345918E+04</totfact>
</mgrwt>
</event>
<event>
 8    1  0.7997082E-001  0.1052557E+04  0.7818608E-02  0.9252708E-01
         -1   -1    0    0    0  501 -0.00000000000E+00  0.00000000000E+00  0.16744511563E+03  0.16744511563E+03  0.00000000000E+00 0. -1.
          1   -1    0    0  501    0  0.00000000000E+00 -0.00000000000E+00 -0.16540901439E+04  0.16540901439E+04  0.00000000000E+00 0. -1.
         25    2    1    2    0    0  0.15513628186E+03 -0.42287020561E+03 -0.11616684415E+04  0.12521920906E+04  0.12499994782E+03 0.  0.
         25    2    1    2    0    0 -0.15513628186E+03  0.42287020561E+03 -0.32497658675E+03  0.56934316895E+03  0.12512148238E+03 0.  0.
          5    1    3    3  502    0  0.79413108209E+02 -0.32160450473E+03 -0.71642600246E+03  0.78931882419E+03  0.47000000000E+01 0.  1.
         -5    1    3    3    0  502  0.75723173654E+02 -0.10126570088E+03 -0.44524243907E+03  0.46287326640E+03  0.47000000000E+01 0.  1.
          5    1    4    4  503    0 -0.33822886217E+02  0.26831443569E+03 -0.20075977368E+03  0.33684299126E+03  0.47000000000E+01 0. -1.
         -5    1    4    4    0  503 -0.12131339565E+03  0.15455576992E+03 -0.12421681307E+03  0.23250017769E+03  0.47000000000E+01 0. -1.
<mgrwt>
<rscale>  0 0.10525575E+04</rscale>
<asrwt>0</asrwt>
<pdfrwt beam="1">  1        1 0.25447541E+00 0.10525575E+04</pdfrwt>
<pdfrwt beam="2">  1       -1 0.25760787E-01 0.10525575E+04</pdfrwt>
<totfact> 0.68160995E+01</totfact>
</mgrwt>
</event>
<event>
 9    1  0.7997082E-001  0.2833883E+03  0.7818608E-02  0.1093853E+00
         -2   -1    0    0    0  501 -0.00000000000E+00  0.00000000000E+00  0.15862811721E+02  0.15862811721E+02  0.00000000000E+00 0. -1.
          2   -1    0    0  501    0  0.00000000000E+00 -0.00000000000E+00 -0.12656790595E+04  0.12656790595E+04  0.00000000000E+00 0. -1.
         35    2    1    2    0    0  0.00000000000E+00  0.71054273576E-14 -0.12498162478E+04  0.12815418712E+04  0.28338827513E+03 0.  0.
         25    2    3    3    0    0 -0.38726424764E+00 -0.35989428709E+02 -0.88135410689E+03  0.89086624679E+03  0.12474862321E+03 0.  0.
         25    2    3    3    0    0  0.38726424764E+00  0.35989428709E+02 -0.36846214091E+03  0.39067562444E+03  0.12477061073E+03 0.  0.
          5    1    4    4  502    0 -0.29388911734E+02 -0.47670488295E+02 -0.81926875278E+03  0.82119398614E+03  0.47000000000E+01 0.  1.
         -5    1    4    4    0  502  0.29001647487E+02  0.11681059586E+02 -0.62085354109E+02  0.69672260656E+02  0.47000000000E+01 0.  1.
          5    1    5    5  503    0 -0.14271380562E+02  0.22620233162E+02 -0.36927357979E+03  0.37027073066E+03  0.47000000000E+01 0. -1.
         -5    1    5    5    0  503  0.14658644809E+02  0.13369195547E+02  0.81143888749E+00  0.20404893783E+02  0.47000000000E+01 0. -1.
<mgrwt>
<rscale>  0 0.28338828E+03</rscale>
<asrwt>0</asrwt>
<pdfrwt beam="1">  1        2 0.19471984E+00 0.28338828E+03</pdfrwt>
<pdfrwt beam="2">  1       -2 0.24404328E-02 0.28338828E+03</pdfrwt>
<totfact> 0.10563096E+04</totfact>
</mgrwt>
</event>
<event>
 9    1  0.7997082E-001  0.2729133E+03  0.7818608E-02  0.1099624E+00
          2   -1    0    0  501    0  0.00000000000E+00  0.00000000000E+00  0.12835633888E+04  0.12835633888E+04  0.00000000000E+00 0.  1.
         -2   -1    0    0    0  501 -0.00000000000E+00 -0.00000000000E+00 -0.14506813686E+02  0.14506813686E+02  0.00000000000E+00 0.  1.
         35    2    1    2    0    0  0.44408920985E-15  0.71054273576E-14  0.12690565751E+04  0.12980702025E+04  0.27291328246E+03 0.  0.
         25    2    3    3    0    0  0.11304719348E+01  0.54897680221E+01  0.37279231470E+03  0.39310770702E+03  0.12461197334E+03 0.  0.
         25    2    3    3    0    0 -0.11304719348E+01 -0.54897680221E+01  0.89626426045E+03  0.90496249550E+03  0.12504430490E+03 0.  0.
          5    1    4    4  502    0  0.38921618420E+01  0.59794141182E+02  0.27123087056E+03  0.27781066104E+03  0.47000000000E+01 0. -1.
         -5    1    4    4    0  502 -0.27616899072E+01 -0.54304373160E+02  0.10156144414E+03  0.11529704598E+03  0.47000000000E+01 0. -1.
          5    1    5    5  503    0  0.42200651179E+01  0.52873383785E+02  0.22885103666E+03  0.23496444548E+03  0.47000000000E+01 0. -1.
         -5    1    5    5    0  503 -0.53505370526E+01 -0.58363151807E+02  0.66741322379E+03  0.66999805002E+03  0.47000000000E+01 0. -1.
<mgrwt>
<rscale>  0 0.27291328E+03</rscale>
<asrwt>0</asrwt>
<pdfrwt beam="1">  1        2 0.19747120E+00 0.27291328E+03</pdfrwt>
<pdfrwt beam="2">  1       -2 0.22318185E-02 0.27291328E+03</pdfrwt>
<totfact> 0.11769475E+04</totfact>
</mgrwt>
</event>
<event>
 9    1  0.7997082E-001  0.2745353E+03  0.7818608E-02  0.1098712E+00
          2   -1    0    0  501    0  0.00000000000E+00  0.00000000000E+00  0.41969335568E+03  0.41969335568E+03  0.00000000000E+00 0.  1.
         -2   -1    0    0    0  501 -0.00000000000E+00 -0.00000000000E+00 -0.44895668932E+02  0.44895668932E+02  0.00000000000E+00 0.  1.
         35    2    1    2    0    0  0.35527136788E-14 -0.71054273576E-14  0.37479768675E+03  0.46458902461E+03  0.27453534526E+03 0.  0.
         25    2    3    3    0    0  0.26289587880E+01  0.47145298153E+02  0.14329405604E+03  0.19702643386E+03  0.12671479228E+03 0.  0.
         25    2    3    3    0    0 -0.26289587880E+01 -0.47145298153E+02  0.23150363071E+03  0.26756259075E+03  0.12556360290E+03 0.  0.
          5    1    4    4  502    0 -0.30857577717E+02 -0.28889728607E+02  0.86159829033E+02  0.96085444582E+02  0.47000000000E+01 0. -1.
         -5    1    4    4    0  502  0.33486536505E+02  0.76035026760E+02  0.57134227007E+02  0.10094098928E+03  0.47000000000E+01 0. -1.
          5    1    5    5  503    0 -0.38131711758E+02 -0.54516690498E+02  0.52544431516E+02  0.84906444206E+02  0.47000000000E+01 0.  1.
         -5    1    5    5    0  503  0.35502752970E+02  0.73713923449E+01  0.17895919920E+03  0.18265614654E+03  0.47000000000E+01 0.  1.
<mgrwt>
<rscale>  0 0.27453535E+03</rscale>
<asrwt>0</asrwt>
<pdfrwt beam="1">  1        2 0.64568206E-01 0.27453535E+03</pdfrwt>
<pdfrwt beam="2">  1       -2 0.69070263E-02 0.27453535E+03</pdfrwt>
<totfact> 0.89491632E+03</totfact>
</mgrwt>
</event>
<event>
 9    1  0.7997082E-001  0.2765873E+03  0.7818608E-02  0.1097568E+00
          2   -1    0    0  501    0  0.00000000000E+00  0.00000000000E+00  0.10853057643E+03  0.10853057643E+03  0.00000000000E+00 0. -1.
         -2   -1    0    0    0  501 -0.00000000000E+00 -0.00000000000E+00 -0.17621887295E+03  0.17621887295E+03  0.00000000000E+00 0. -1.
         35    2    1    2    0    0 -0.14210854715E-13  0.00000000000E+00 -0.67688296525E+02  0.28474944938E+03  0.27658731612E+03 0.  0.
         25    2    3    3    0    0  0.49063912975E+02 -0.95050875261E+01 -0.64770121536E+02  0.14976829400E+03  0.12545022518E+03 0.  0.
         25    2    3    3    0    0 -0.49063912975E+02  0.95050875261E+01 -0.29181749889E+01  0.13498115539E+03  0.12535462624E+03 0.  0.
          5    1    4    4  502    0 -0.38866787201E+02 -0.14965016188E+02 -0.29035209886E+01  0.42013084759E+02  0.47000000000E+01 0. -1.
         -5    1    4    4    0  502  0.87930700176E+02  0.54599286623E+01 -0.61866600547E+02  0.10775520924E+03  0.47000000000E+01 0. -1.
          5    1    5    5  503    0 -0.58546815164E+02  0.51508201244E+02  0.26642897747E+02  0.82539435191E+02  0.47000000000E+01 0.  1.
         -5    1    5    5    0  503  0.94829021891E+01 -0.42003113718E+02 -0.29561072736E+02  0.52441720197E+02  0.47000000000E+01 0.  1.
<mgrwt>
<rscale>  0 0.27658732E+03</rscale>
<asrwt>0</asrwt>
<pdfrwt beam="1">  1        2 0.16697012E-01 0.27658732E+03</pdfrwt>
<pdfrwt beam="2">  1       -2 0.27110595E-01 0.27658732E+03</pdfrwt>
<totfact> 0.41933352E+03</totfact>
</mgrwt>
</event>
<event>
 9    1  0.7997082E-001  0.2750062E+03  0.7818608E-02  0.1098448E+00
          2   -1    0    0  501    0  0.00000000000E+00  0.00000000000E+00  0.35899381937E+02  0.35899381937E+02  0.00000000000E+00 0.  1.
         -2   -1    0    0    0  501 -0.00000000000E+00 -0.00000000000E+00 -0.52666935244E+03  0.52666935244E+03  0.00000000000E+00 0.  1.
         35    2    1    2    0    0 -0.71054273576E-14  0.00000000000E+00 -0.49076997050E+03  0.56256873438E+03  0.27500621257E+03 0.  0.
         25    2    3    3    0    0 -0.28877127264E+02  0.39167123875E+02 -0.18301221831E+03  0.22695345521E+03  0.12508575741E+03 0.  0.
         25    2    3    3    0    0  0.28877127264E+02 -0.39167123875E+02 -0.30775775219E+03  0.33561527917E+03  0.12471900219E+03 0.  0.
          5    1    4    4  502    0 -0.17301534328E+02  0.38640893624E+01  0.16067021750E+02  0.24382646793E+02  0.47000000000E+01 0. -1.
         -5    1    4    4    0  502 -0.11575592935E+02  0.35303034513E+02 -0.19907924006E+03  0.20257080842E+03  0.47000000000E+01 0. -1.
          5    1    5    5  503    0  0.77475974351E+02 -0.34010750912E+02 -0.19859302886E+03  0.21591789850E+03  0.47000000000E+01 0.  1.
         -5    1    5    5    0  503 -0.48598847088E+02 -0.51563729638E+01 -0.10916472333E+03  0.11969738067E+03  0.47000000000E+01 0.  1.
<mgrwt>
<rscale>  0 0.27500621E+03</rscale>
<asrwt>0</asrwt>
<pdfrwt beam="1">  1        2 0.55229817E-02 0.27500621E+03</pdfrwt>
<pdfrwt beam="2">  1       -2 0.81026056E-01 0.27500621E+03</pdfrwt>
<totfact> 0.19044241E+03</totfact>
</mgrwt>
</event>
<event>
 9    1  0.7997082E-001  0.2741337E+03  0.7818608E-02  0.1098937E+00
          1   -1    0    0  501    0  0.00000000000E+00  0.00000000000E+00  0.15902928517E+03  0.15902928517E+03  0.00000000000E+00 0.  1.
         -1   -1    0    0    0  501 -0.00000000000E+00 -0.00000000000E+00 -0.11813747924E+03  0.11813747924E+03  0.00000000000E+00 0.  1.
         35    2    1    2    0    0  0.00000000000E+00  0.00000000000E+00  0.40891805931E+02  0.27716676440E+03  0.27413368180E+03 0.  0.
         25    2    3    3    0    0  0.99984710934E+01 -0.45524333846E+02 -0.76362010536E+01  0.13504108836E+03  0.12651225072E+03 0.  0.
         25    2    3    3    0    0 -0.99984710934E+01  0.45524333846E+02  0.48528006984E+02  0.14212567604E+03  0.12518908072E+03 0.  0.
          5    1    4    4  502    0 -0.54424316480E+02 -0.12155737626E+02 -0.23382750338E+02  0.60651555585E+02  0.47000000000E+01 0. -1.
         -5    1    4    4    0  502  0.64422787573E+02 -0.33368596220E+02  0.15746549284E+02  0.74389532777E+02  0.47000000000E+01 0. -1.
          5    1    5    5  503    0 -0.53414323290E+01  0.88698946691E+02  0.24596814398E+02  0.92320784886E+02  0.47000000000E+01 0.  1.
         -5    1    5    5    0  503 -0.46570387644E+01 -0.43174612845E+02  0.23931192586E+02  0.49804891155E+02  0.47000000000E+01 0.  1.
<mgrwt>
<rscale>  0 0.27413368E+03</rscale>
<asrwt>0</asrwt>
<pdfrwt beam="1">  1        1 0.24466044E-01 0.27413368E+03</pdfrwt>
<pdfrwt beam="2">  1       -1 0.18174997E-01 0.27413368E+03</pdfrwt>
<totfact> 0.46064755E+03</totfact>
</mgrwt>
</event>
<event>
 9    1  0.7997082E-001  0.2783198E+03  0.7818608E-02  0.1096610E+00
          1   -1    0    0  501    0  0.00000000000E+00  0.00000000000E+00  0.20710422904E+02  0.20710422904E+02  0.00000000000E+00 0. -1.
         -1   -1    0    0    0  501 -0.00000000000E+00 -0.00000000000E+00 -0.93505942156E+03  0.93505942156E+03  0.00000000000E+00 0. -1.
         35    2    1    2    0    0 -0.14210854715E-13  0.00000000000E+00 -0.91434899865E+03  0.95576984446E+03  0.27831978773E+03 0.  0.
         25    2    3    3    0    0  0.51319698293E+02 -0.18533768458E+02 -0.55580472085E+03  0.57226434140E+03  0.12486143003E+03 0.  0.
         25    2    3    3    0    0 -0.51319698293E+02  0.18533768458E+02 -0.35854427780E+03  0.38350550306E+03  0.12468063093E+03 0.  0.
          5    1    4    4  502    0  0.57687573673E+02 -0.23439990401E+02 -0.55895632691E+03  0.56243360025E+03  0.47000000000E+01 0. -1.
         -5    1    4    4    0  502 -0.63678753803E+01  0.49062219434E+01  0.31516060592E+01  0.98307411404E+01  0.47000000000E+01 0. -1.
          5    1    5    5  503    0  0.33683772055E+02 -0.23040084014E+02 -0.97520147371E+02  0.10581923792E+03  0.47000000000E+01 0.  1.
         -5    1    5    5    0  503 -0.85003470348E+02  0.41573852472E+02 -0.26102413043E+03  0.27768626514E+03  0.47000000000E+01 0.  1.
<mgrwt>
<rscale>  0 0.27831979E+03</rscale>
<asrwt>0</asrwt>
<pdfrwt beam="1">  1        1 0.31862193E-02 0.27831979E+03</pdfrwt>
<pdfrwt beam="2">  1       -1 0.14385528E+00 0.27831979E+03</pdfrwt>
<totfact> 0.13199658E+03</totfact>
</mgrwt>
</event>
<event>
 9    1  0.7997082E-001  0.2787205E+03  0.7818608E-02  0.1096390E+00
         -2   -1    0    0    0  501 -0.00000000000E+00  0.00000000000E+00  0.14107150217E+03  0.14107150217E+03  0.00000000000E+00 0.  1.
          2   -1    0    0  501    0  0.00000000000E+00 -0.00000000000E+00 -0.13766976915E+03  0.13766976915E+03  0.00000000000E+00 0.  1.
         35    2    1    2    0    0  0.00000000000E+00 -0.53290705182E-14  0.34017330191E+01  0.27874127132E+03  0.27872051332E+03 0.  0.
         25    2    3    3    0    0  0.42114521928E+02  0.73635107960E+01 -0.40252668721E+02  0.13809437838E+03  0.12498770241E+03 0.  0.
         25    2    3    3    0    0 -0.42114521928E+02 -0.73635107960E+01  0.43654401740E+02  0.14064689293E+03  0.12668065145E+03 0.  0.
          5    1    4    4  502    0  0.43385967425E+02 -0.12554290379E+02  0.36744366876E+02  0.58413961289E+02  0.47000000000E+01 0. -1.
         -5    1    4    4    0  502 -0.12714454978E+01  0.19917801175E+02 -0.76997035598E+02  0.79680417093E+02  0.47000000000E+01 0. -1.
          5    1    5    5  503    0 -0.22778170659E+02  0.30204316847E+02 -0.34669815204E+02  0.51528942363E+02  0.47000000000E+01 0. -1.
         -5    1    5    5    0  503 -0.19336351269E+02 -0.37567827643E+02  0.78324216944E+02  0.89117950572E+02  0.47000000000E+01 0. -1.
<mgrwt>
<rscale>  0 0.27872051E+03</rscale>
<asrwt>0</asrwt>
<pdfrwt beam="1">  1        2 0.21179964E-01 0.27872051E+03</pdfrwt>
<pdfrwt beam="2">  1       -2 0.21703308E-01 0.27872051E+03</pdfrwt>
<totfact> 0.47125594E+03</totfact>
</mgrwt>
</event>
<event>
 9    1  0.7997082E-001  0.2614168E+03  0.7818608E-02  0.1106295E+00
          1   -1    0    0  501    0  0.00000000000E+00  0.00000000000E+00  0.32120240365E+03  0.32120240365E+03  0.00000000000E+00 0.  1.
         -1   -1    0    0    0  501 -0.00000000000E+00 -0.00000000000E+00 -0.53189773705E+02  0.53189773705E+02  0.00000000000E+00 0.  1.
         35    2    1    2    0    0  0.00000000000E+00  0.00000000000E+00  0.26801262995E+03  0.37439217736E+03  0.26141677960E+03 0.  0.
         25    2    3    3    0    0 -0.29180501597E+02  0.29878710448E+02  0.15174582924E+03  0.20049505504E+03  0.12420640641E+03 0.  0.
         25    2    3    3    0    0  0.29180501597E+02 -0.29878710448E+02  0.11626680071E+03  0.17389712232E+03  0.12238464443E+03 0.  0.
          5    1    4    4  502    0 -0.27541447859E+02  0.61220297507E+02  0.28244100563E+02  0.72981335926E+02  0.47000000000E+01 0. -1.
         -5    1    4    4    0  502 -0.16390537385E+01 -0.31341587059E+02  0.12350172867E+03  0.12751371911E+03  0.47000000000E+01 0. -1.
          5    1    5    5  503    0  0.20113613207E+02 -0.53503056045E+02  0.26621204891E+01  0.57413511719E+02  0.47000000000E+01 0.  1.
         -5    1    5    5    0  503  0.90668883908E+01  0.23624345597E+02  0.11360468022E+03  0.11648361060E+03  0.47000000000E+01 0.  1.
<mgrwt>
<rscale>  0 0.26141678E+03</rscale>
<asrwt>0</asrwt>
<pdfrwt beam="1">  1        1 0.49415753E-01 0.26141678E+03</pdfrwt>
<pdfrwt beam="2">  1       -1 0.81830423E-02 0.26141678E+03</pdfrwt>
<totfact> 0.66160463E+03</totfact>
</mgrwt>
</event>
<event>
 9    1  0.7997082E-001  0.2758298E+03  0.7818608E-02  0.1097989E+00
          1   -1    0    0  501    0  0.00000000000E+00  0.00000000000E+00  0.85722668387E+03  0.85722668387E+03  0.00000000000E+00 0. -1.
         -1   -1    0    0    0  501 -0.00000000000E+00 -0.00000000000E+00 -0.22188435179E+02  0.22188435179E+02  0.00000000000E+00 0. -1.
         35    2    1    2    0    0  0.00000000000E+00 -0.14210854715E-13  0.83503824869E+03  0.87941511904E+03  0.27582979323E+03 0.  0.
         25    2    3    3    0    0 -0.21949070406E+02  0.38666767684E+02  0.30485467368E+03  0.33263344031E+03  0.12542628486E+03 0.  0.
         25    2    3    3    0    0  0.21949070406E+02 -0.38666767684E+02  0.53018357501E+03  0.54678167873E+03  0.12609004868E+03 0.  0.
          5    1    4    4  502    0  0.47752300057E+01  0.54280251354E+02  0.29468472674E+03  0.29971707773E+03  0.47000000000E+01 0. -1.
         -5    1    4    4    0  502 -0.26724300411E+02 -0.15613483670E+02  0.10169946939E+02  0.32916362581E+02  0.47000000000E+01 0. -1.
          5    1    5    5  503    0 -0.49421969970E+01  0.19675552928E+02  0.40911225097E+03  0.40964188822E+03  0.47000000000E+01 0.  1.
         -5    1    5    5    0  503  0.26891267403E+02 -0.58342320613E+02  0.12107132404E+03  0.13713979051E+03  0.47000000000E+01 0.  1.
<mgrwt>
<rscale>  0 0.27582979E+03</rscale>
<asrwt>0</asrwt>
<pdfrwt beam="1">  1        1 0.13188100E+00 0.27582979E+03</pdfrwt>
<pdfrwt beam="2">  1       -1 0.34136061E-02 0.27582979E+03</pdfrwt>
<totfact> 0.64266873E+03</totfact>
</mgrwt>
</event>
<event>
 9    1  0.7997082E-001  0.2749211E+03  0.7818608E-02  0.1098496E+00
          2   -1    0    0  501    0  0.00000000000E+00  0.00000000000E+00  0.64347754021E+02  0.64347754021E+02  0.00000000000E+00 0. -1.
         -2   -1    0    0    0  501 -0.00000000000E+00 -0.00000000000E+00 -0.29364514634E+03  0.29364514634E+03  0.00000000000E+00 0. -1.
         35    2    1    2    0    0  0.00000000000E+00  0.00000000000E+00 -0.22929739232E+03  0.35799290037E+03  0.27492112066E+03 0.  0.
         25    2    3    3    0    0 -0.67370695583E+02  0.10002975945E+01 -0.11852961369E+03  0.17790504157E+03  0.11428527147E+03 0.  0.
         25    2    3    3    0    0  0.67370695583E+02 -0.10002975945E+01 -0.11076777863E+03  0.18008785879E+03  0.12498929908E+03 0.  0.
          5    1    4    4  502    0 -0.26640481690E+02 -0.43330692646E+02 -0.76532933535E+01  0.51651980495E+02  0.47000000000E+01 0.  1.
         -5    1    4    4    0  502 -0.40730213892E+02  0.44330990241E+02 -0.11087632034E+03  0.12625306108E+03  0.47000000000E+01 0.  1.
          5    1    5    5  503    0  0.77333544114E+02  0.36724410403E+02 -0.11165617804E+03  0.14077766676E+03  0.47000000000E+01 0. -1.
         -5    1    5    5    0  503 -0.99628485313E+01 -0.37724707997E+02  0.88839940311E+00  0.39310192035E+02  0.47000000000E+01 0. -1.
<mgrwt>
<rscale>  0 0.27492112E+03</rscale>
<asrwt>0</asrwt>
<pdfrwt beam="1">  1        2 0.98996544E-02 0.27492112E+03</pdfrwt>
<pdfrwt beam="2">  1       -2 0.45176177E-01 0.27492112E+03</pdfrwt>
<totfact> 0.30382073E+03</totfact>
</mgrwt>
</event>
<event>
 9    1  0.7997082E-001  0.2782677E+03  0.7818608E-02  0.1096639E+00
         -3   -1    0    0    0  501 -0.00000000000E+00  0.00000000000E+00  0.61435573231E+02  0.61435573231E+02  0.00000000000E+00 0.  1.
          3   -1    0    0  501    0  0.00000000000E+00 -0.00000000000E+00 -0.31509795708E+03  0.31509795708E+03  0.00000000000E+00 0.  1.
         35    2    1    2    0    0  0.71054273576E-14  0.71054273576E-14 -0.25366238385E+03  0.37653353031E+03  0.27826766695E+03 0.  0.
         25    2    3    3    0    0  0.80076414338E+01  0.47157331512E+02 -0.17339208951E+03  0.21956338151E+03  0.12591793183E+03 0.  0.
         25    2    3    3    0    0 -0.80076414338E+01 -0.47157331512E+02 -0.80270294338E+02  0.15697014881E+03  0.12612839183E+03 0.  0.
          5    1    4    4  502    0 -0.51335155069E+02  0.79866119808E+01 -0.11895280689E+03  0.12988819956E+03  0.47000000000E+01 0.  1.
         -5    1    4    4    0  502  0.59342796502E+02  0.39170719531E+02 -0.54439282622E+02  0.89675181950E+02  0.47000000000E+01 0.  1.
          5    1    5    5  503    0  0.37512178158E+01  0.20764081919E+02 -0.85010434766E+02  0.87715920745E+02  0.47000000000E+01 0.  1.
         -5    1    5    5    0  503 -0.11758859250E+02 -0.67921413431E+02  0.47401404278E+01  0.69254228062E+02  0.47000000000E+01 0.  1.
<mgrwt>
<rscale>  0 0.27826767E+03</rscale>
<asrwt>0</asrwt>
<pdfrwt beam="1">  1        3 0.48476609E-01 0.27826767E+03</pdfrwt>
<pdfrwt beam="2">  1       -3 0.94516266E-02 0.27826767E+03</pdfrwt>
<totfact> 0.87721498E+02</totfact>
</mgrwt>
</event>
<event>
 9    1  0.7997082E-001  0.2741311E+03  0.7818608E-02  0.1098938E+00
         -2   -1    0    0    0  501 -0.00000000000E+00  0.00000000000E+00  0.82224065510E+02  0.82224065510E+02  0.00000000000E+00 0.  1.
          2   -1    0    0  501    0  0.00000000000E+00 -0.00000000000E+00 -0.22848499420E+03  0.22848499420E+03  0.00000000000E+00 0.  1.
         35    2    1    2    0    0 -0.71054273576E-14  0.00000000000E+00 -0.14626092869E+03  0.31070905971E+03  0.27413110098E+03 0.  0.
         25    2    3    3    0    0 -0.61515762605E+01  0.46626824631E+02 -0.34684021259E+02  0.13784914509E+03  0.12484992112E+03 0.  0.
         25    2    3    3    0    0  0.61515762605E+01 -0.46626824631E+02 -0.11157690743E+03  0.17285991462E+03  0.12336628853E+03 0.  0.
          5    1    4    4  502    0 -0.58070734985E+02  0.52988838685E+02 -0.32760321614E+02  0.85295697190E+02  0.47000000000E+01 0. -1.
         -5    1    4    4    0  502  0.51919158725E+02 -0.63620140535E+01 -0.19236996449E+01  0.52553447896E+02  0.47000000000E+01 0. -1.
          5    1    5    5  503    0 -0.33701207118E+02  0.25708580572E+02 -0.13885827668E+02  0.44850960817E+02  0.47000000000E+01 0.  1.
         -5    1    5    5    0  503  0.39852783378E+02 -0.72335405203E+02 -0.97691079762E+02  0.12800895380E+03  0.47000000000E+01 0.  1.
<mgrwt>
<rscale>  0 0.27413110E+03</rscale>
<asrwt>0</asrwt>
<pdfrwt beam="1">  1        2 0.35151537E-01 0.27413110E+03</pdfrwt>
<pdfrwt beam="2">  1       -2 0.12649856E-01 0.27413110E+03</pdfrwt>
<totfact> 0.66250879E+03</totfact>
</mgrwt>
</event>
<event>
 9    1  0.7997082E-001  0.2757011E+03  0.7818608E-02  0.1098060E+00
         -2   -1    0    0    0  501 -0.00000000000E+00  0.00000000000E+00  0.67886123327E+03  0.67886123327E+03  0.00000000000E+00 0.  1.
          2   -1    0    0  501    0  0.00000000000E+00 -0.00000000000E+00 -0.27992126020E+02  0.27992126020E+02  0.00000000000E+00 0.  1.
         35    2    1    2    0    0  0.35527136788E-14 -0.71054273576E-14  0.65086910725E+03  0.70685335929E+03  0.27570106414E+03 0.  0.
         25    2    3    3    0    0 -0.18236935672E+02 -0.53798284031E+02  0.35310090103E+03  0.37907636270E+03  0.12566543384E+03 0.  0.
         25    2    3    3    0    0  0.18236935672E+02  0.53798284031E+02  0.29776820623E+03  0.32777699660E+03  0.12467964417E+03 0.  0.
          5    1    4    4  502    0 -0.36520690722E+02 -0.78063510217E+02  0.32864994789E+03  0.33979486565E+03  0.47000000000E+01 0. -1.
         -5    1    4    4    0  502  0.18283755050E+02  0.24265226187E+02  0.24450953141E+02  0.39281497045E+02  0.47000000000E+01 0. -1.
          5    1    5    5  503    0 -0.21625868631E+02  0.88929483140E+01 -0.13009204667E+00  0.23850988401E+02  0.47000000000E+01 0.  1.
         -5    1    5    5    0  503  0.39862804303E+02  0.44905335717E+02  0.29789829827E+03  0.30392600819E+03  0.47000000000E+01 0.  1.
<mgrwt>
<rscale>  0 0.27570106E+03</rscale>
<asrwt>0</asrwt>
<pdfrwt beam="1">  1        2 0.43064814E-02 0.27570106E+03</pdfrwt>
<pdfrwt beam="2">  1       -2 0.10444018E+00 0.27570106E+03</pdfrwt>
<totfact> 0.14853407E+03</totfact>
</mgrwt>
</event>
<event>
 9    1  0.7997082E-001  0.2786698E+03  0.7818608E-02  0.1096418E+00
          2   -1    0    0  501    0  0.00000000000E+00  0.00000000000E+00  0.80884885087E+03  0.80884885087E+03  0.00000000000E+00 0.  1.
         -2   -1    0    0    0  501 -0.00000000000E+00 -0.00000000000E+00 -0.24002269059E+02  0.24002269059E+02  0.00000000000E+00 0.  1.
         35    2    1    2    0    0  0.14210854715E-13  0.00000000000E+00  0.78484658181E+03  0.83285111993E+03  0.27866975255E+03 0.  0.
         25    2    3    3    0    0 -0.46512382733E+02 -0.26451313747E+02  0.32235200427E+03  0.35089995559E+03  0.12789405942E+03 0.  0.
         25    2    3    3    0    0  0.46512382733E+02  0.26451313747E+02  0.46249457754E+03  0.48195116433E+03  0.12454965596E+03 0.  0.
          5    1    4    4  502    0 -0.55930440576E+02 -0.49438345182E+02  0.89322865478E+02  0.11650334096E+03  0.47000000000E+01 0.  1.
         -5    1    4    4    0  502  0.94180578431E+01  0.22987031434E+02  0.23302913879E+03  0.23439661464E+03  0.47000000000E+01 0.  1.
          5    1    5    5  503    0  0.36360647599E+02 -0.68652576593E+01  0.29561971075E+02  0.47594417639E+02  0.47000000000E+01 0. -1.
         -5    1    5    5    0  503  0.10151735135E+02  0.33316571406E+02  0.43293260647E+03  0.43435674669E+03  0.47000000000E+01 0. -1.
<mgrwt>
<rscale>  0 0.27866975E+03</rscale>
<asrwt>0</asrwt>
<pdfrwt beam="1">  1        2 0.12443826E+00 0.27866975E+03</pdfrwt>
<pdfrwt beam="2">  1       -2 0.36926574E-02 0.27866975E+03</pdfrwt>
<totfact> 0.10816322E+04</totfact>
</mgrwt>
</event>
<event>
 9    1  0.7997082E-001  0.2736279E+03  0.7818608E-02  0.1099221E+00
          2   -1    0    0  501    0  0.00000000000E+00  0.00000000000E+00  0.50882719148E+03  0.50882719148E+03  0.00000000000E+00 0. -1.
         -2   -1    0    0    0  501 -0.00000000000E+00 -0.00000000000E+00 -0.36786671646E+02  0.36786671646E+02  0.00000000000E+00 0. -1.
         35    2    1    2    0    0  0.00000000000E+00 -0.17763568394E-14  0.47204051983E+03  0.54561386312E+03  0.27362791391E+03 0.  0.
         25    2    3    3    0    0 -0.52401059756E+02  0.13145500397E+02  0.20561899019E+03  0.24616578236E+03  0.12409572126E+03 0.  0.
         25    2    3    3    0    0  0.52401059756E+02 -0.13145500397E+02  0.26642152964E+03  0.29944808076E+03  0.12557884524E+03 0.  0.
          5    1    4    4  502    0  0.26956352723E+02 -0.29887378111E+02  0.95190639820E+02  0.10345650406E+03  0.47000000000E+01 0. -1.
         -5    1    4    4    0  502 -0.79357412480E+02  0.43032878507E+02  0.11042835037E+03  0.14270927830E+03  0.47000000000E+01 0. -1.
          5    1    5    5  503    0 -0.33183822400E+02 -0.19366701824E+02  0.33547607034E+02  0.51222720997E+02  0.47000000000E+01 0. -1.
         -5    1    5    5    0  503  0.85584882156E+02  0.62212014273E+01  0.23287392261E+03  0.24822535977E+03  0.47000000000E+01 0. -1.
<mgrwt>
<rscale>  0 0.27362791E+03</rscale>
<asrwt>0</asrwt>
<pdfrwt beam="1">  1        2 0.78281101E-01 0.27362791E+03</pdfrwt>
<pdfrwt beam="2">  1       -2 0.56594883E-02 0.27362791E+03</pdfrwt>
<totfact> 0.98243301E+03</totfact>
</mgrwt>
</event>
<event>
 9    1  0.7997082E-001  0.2751985E+03  0.7818608E-02  0.1098341E+00
         -4   -1    0    0    0  501 -0.00000000000E+00  0.00000000000E+00  0.45613734413E+03  0.45613734413E+03  0.00000000000E+00 0. -1.
          4   -1    0    0  501    0  0.00000000000E+00 -0.00000000000E+00 -0.41508454203E+02  0.41508454203E+02  0.00000000000E+00 0. -1.
         35    2    1    2    0    0  0.44408920985E-15  0.00000000000E+00  0.41462888993E+03  0.49764579833E+03  0.27519851787E+03 0.  0.
         25    2    3    3    0    0  0.22897178645E+01  0.36515279590E+02  0.12299355495E+03  0.17819438403E+03  0.12364147964E+03 0.  0.
         25    2    3    3    0    0 -0.22897178645E+01 -0.36515279590E+02  0.29163533498E+03  0.31945141431E+03  0.12513764039E+03 0.  0.
          5    1    4    4  502    0  0.70709531353E-01 -0.91719722487E+01  0.13109902167E+03  0.13150351158E+03  0.47000000000E+01 0. -1.
         -5    1    4    4    0  502  0.22190083332E+01  0.45687251839E+02 -0.81054667261E+01  0.46690872442E+02  0.47000000000E+01 0. -1.
          5    1    5    5  503    0 -0.90448533721E+01  0.21682953789E+02  0.21458838795E+01  0.24055242156E+02  0.47000000000E+01 0. -1.
         -5    1    5    5    0  503  0.67551355076E+01 -0.58198233379E+02  0.28948945110E+03  0.29539617215E+03  0.47000000000E+01 0. -1.
<mgrwt>
<rscale>  0 0.27519852E+03</rscale>
<asrwt>0</asrwt>
<pdfrwt beam="1">  1        4 0.63859164E-02 0.27519852E+03</pdfrwt>
<pdfrwt beam="2">  1       -4 0.70174972E-01 0.27519852E+03</pdfrwt>
<totfact> 0.56940304E+02</totfact>
</mgrwt>
</event>
<event>
 9    1  0.7997082E-001  0.2755409E+03  0.7818608E-02  0.1098150E+00
          2   -1    0    0  501    0  0.00000000000E+00  0.00000000000E+00  0.67696571057E+03  0.67696571057E+03  0.00000000000E+00 0.  1.
         -2   -1    0    0    0  501 -0.00000000000E+00 -0.00000000000E+00 -0.28037909762E+02  0.28037909762E+02  0.00000000000E+00 0.  1.
         35    2    1    2    0    0  0.00000000000E+00  0.00000000000E+00  0.64892780081E+03  0.70500362033E+03  0.27554094799E+03 0.  0.
         25    2    3    3    0    0 -0.34849638662E+02 -0.37267820249E+02  0.24781377061E+03  0.28205764086E+03  0.12466539262E+03 0.  0.
         25    2    3    3    0    0  0.34849638662E+02  0.37267820249E+02  0.40111403019E+03  0.42294597948E+03  0.12404615510E+03 0.  0.
          5    1    4    4  502    0 -0.40585787363E+02 -0.41639329213E+02  0.32905191003E+02  0.66976723331E+02  0.47000000000E+01 0.  1.
         -5    1    4    4    0  502  0.57361487013E+01  0.43715089644E+01  0.21490857961E+03  0.21508091752E+03  0.47000000000E+01 0.  1.
          5    1    5    5  503    0  0.38147380860E+02 -0.38041649728E+02  0.22332189092E+03  0.22977629717E+03  0.47000000000E+01 0.  1.
         -5    1    5    5    0  503 -0.32977421985E+01  0.75309469977E+02  0.17779213928E+03  0.19316968230E+03  0.47000000000E+01 0.  1.
<mgrwt>
<rscale>  0 0.27554095E+03</rscale>
<asrwt>0</asrwt>
<pdfrwt beam="1">  1        2 0.10414856E+00 0.27554095E+03</pdfrwt>
<pdfrwt beam="2">  1       -2 0.43135251E-02 0.27554095E+03</pdfrwt>
<totfact> 0.10667302E+04</totfact>
</mgrwt>
</event>
<event>
 9    1  0.7997082E-001  0.3011171E+03  0.7818608E-02  0.1084684E+00
          2   -1    0    0  501    0  0.00000000000E+00  0.00000000000E+00  0.14530473025E+04  0.14530473025E+04  0.00000000000E+00 0.  1.
         -2   -1    0    0    0  501 -0.00000000000E+00 -0.00000000000E+00 -0.15600229943E+02  0.15600229943E+02  0.00000000000E+00 0.  1.
         35    2    1    2    0    0 -0.71054273576E-14  0.00000000000E+00  0.14374470726E+04  0.14686475324E+04  0.30111706719E+03 0.  0.
         25    2    3    3    0    0 -0.21857626464E+02 -0.99915457357E+00  0.32586277889E+03  0.34990942410E+03  0.12558383760E+03 0.  0.
         25    2    3    3    0    0  0.21857626464E+02  0.99915457357E+00  0.11115842937E+04  0.11187381083E+04  0.12440481895E+03 0.  0.
          5    1    4    4  502    0 -0.63531504182E+02 -0.34771463892E+02  0.20887249800E+03  0.22112240309E+03  0.47000000000E+01 0. -1.
         -5    1    4    4    0  502  0.41673877718E+02  0.33772309318E+02  0.11699028089E+03  0.12878702102E+03  0.47000000000E+01 0. -1.
          5    1    5    5  503    0 -0.42521416726E+01  0.56350858476E+02  0.73500132904E+03  0.73718555578E+03  0.47000000000E+01 0. -1.
         -5    1    5    5    0  503  0.26109768137E+02 -0.55351703903E+02  0.37658296463E+03  0.38155255256E+03  0.47000000000E+01 0. -1.
<mgrwt>
<rscale>  0 0.30111707E+03</rscale>
<asrwt>0</asrwt>
<pdfrwt beam="1">  1        2 0.22354563E+00 0.30111707E+03</pdfrwt>
<pdfrwt beam="2">  1       -2 0.24000365E-02 0.30111707E+03</pdfrwt>
<totfact> 0.85543110E+03</totfact>
</mgrwt>
</event>
<event>
 9    1  0.7997082E-001  0.2760943E+03  0.7818608E-02  0.1097841E+00
         -2   -1    0    0    0  501 -0.00000000000E+00  0.00000000000E+00  0.19330078964E+03  0.19330078964E+03  0.00000000000E+00 0. -1.
          2   -1    0    0  501    0  0.00000000000E+00 -0.00000000000E+00 -0.98587353147E+02  0.98587353147E+02  0.00000000000E+00 0. -1.
         35    2    1    2    0    0  0.71054273576E-14  0.00000000000E+00  0.94713436494E+02  0.29188814279E+03  0.27609428253E+03 0.  0.
         25    2    3    3    0    0 -0.42448232260E+02 -0.23435429207E+02  0.77848795636E+02  0.15415296629E+03  0.12390169600E+03 0.  0.
         25    2    3    3    0    0  0.42448232260E+02  0.23435429207E+02  0.16864640857E+02  0.13773517649E+03  0.12781037113E+03 0.  0.
          5    1    4    4  502    0  0.29671738242E+02  0.28290211294E+01  0.70765306956E+02  0.76930059661E+02  0.47000000000E+01 0.  1.
         -5    1    4    4    0  502 -0.72119970502E+02 -0.26264450337E+02  0.70834886801E+01  0.77222906631E+02  0.47000000000E+01 0.  1.
          5    1    5    5  503    0 -0.40880098232E+02  0.22230754517E+02  0.26426187893E+02  0.53719850004E+02  0.47000000000E+01 0. -1.
         -5    1    5    5    0  503  0.83328330492E+02  0.12046746902E+01 -0.95615470355E+01  0.84015326491E+02  0.47000000000E+01 0. -1.
<mgrwt>
<rscale>  0 0.27609428E+03</rscale>
<asrwt>0</asrwt>
<pdfrwt beam="1">  1        2 0.15167285E-01 0.27609428E+03</pdfrwt>
<pdfrwt beam="2">  1       -2 0.29738583E-01 0.27609428E+03</pdfrwt>
<totfact> 0.39748686E+03</totfact>
</mgrwt>
</event>
<event>
 9    1  0.7997082E-001  0.2778857E+03  0.7818608E-02  0.1096849E+00
         -2   -1    0    0    0  501 -0.00000000000E+00  0.00000000000E+00  0.16523860965E+03  0.16523860965E+03  0.00000000000E+00 0.  1.
          2   -1    0    0  501    0  0.00000000000E+00 -0.00000000000E+00 -0.11683177111E+03  0.11683177111E+03  0.00000000000E+00 0.  1.
         35    2    1    2    0    0 -0.14210854715E-13  0.35527136788E-14  0.48406838546E+02  0.28207038076E+03  0.27788572774E+03 0.  0.
         25    2    3    3    0    0 -0.45750009059E+02  0.31081295124E+02  0.45206303860E+02  0.14482494316E+03  0.12598231629E+03 0.  0.
         25    2    3    3    0    0  0.45750009059E+02 -0.31081295124E+02  0.32005346857E+01  0.13724543759E+03  0.12556654205E+03 0.  0.
          5    1    4    4  502    0 -0.36226790017E+02 -0.45036066978E+02  0.33822469748E+02  0.67131789069E+02  0.47000000000E+01 0.  1.
         -5    1    4    4    0  502 -0.95232190422E+01  0.76117362101E+02  0.11383834112E+02  0.77693154095E+02  0.47000000000E+01 0.  1.
          5    1    5    5  503    0 -0.43319654622E+02 -0.17431511372E+02 -0.57030016832E+00  0.46934691940E+02  0.47000000000E+01 0.  1.
         -5    1    5    5    0  503  0.89069663681E+02 -0.13649783752E+02  0.37708348540E+01  0.90310745652E+02  0.47000000000E+01 0.  1.
<mgrwt>
<rscale>  0 0.27788573E+03</rscale>
<asrwt>0</asrwt>
<pdfrwt beam="1">  1        2 0.17974119E-01 0.27788573E+03</pdfrwt>
<pdfrwt beam="2">  1       -2 0.25421325E-01 0.27788573E+03</pdfrwt>
<totfact> 0.43150844E+03</totfact>
</mgrwt>
</event>
<event>
 9    1  0.7997082E-001  0.2699130E+03  0.7818608E-02  0.1101329E+00
          2   -1    0    0  501    0  0.00000000000E+00  0.00000000000E+00  0.65414620911E+03  0.65414620911E+03  0.00000000000E+00 0.  1.
         -2   -1    0    0    0  501 -0.00000000000E+00 -0.00000000000E+00 -0.27842784866E+02  0.27842784866E+02  0.00000000000E+00 0.  1.
         35    2    1    2    0    0  0.17763568394E-14  0.14210854715E-13  0.62630342425E+03  0.68198899398E+03  0.26991296502E+03 0.  0.
         25    2    3    3    0    0 -0.10296379552E+01  0.46708659327E+02  0.26690492095E+03  0.29861151186E+03  0.12549039478E+03 0.  0.
         25    2    3    3    0    0  0.10296379552E+01 -0.46708659327E+02  0.35939850330E+03  0.38337748211E+03  0.12501300176E+03 0.  0.
          5    1    4    4  502    0 -0.14969973463E+02  0.20430072969E+02 -0.39729854792E+01  0.26064585181E+02  0.47000000000E+01 0.  1.
         -5    1    4    4    0  502  0.13940335508E+02  0.26278586358E+02  0.27087790642E+03  0.27254692668E+03  0.47000000000E+01 0.  1.
          5    1    5    5  503    0  0.31049951499E+02 -0.25382610860E+01  0.30631448577E+03  0.30793050588E+03  0.47000000000E+01 0.  1.
         -5    1    5    5    0  503 -0.30020313544E+02 -0.44170398241E+02  0.53084017527E+02  0.75446976234E+02  0.47000000000E+01 0.  1.
<mgrwt>
<rscale>  0 0.26991297E+03</rscale>
<asrwt>0</asrwt>
<pdfrwt beam="1">  1        2 0.10063787E+00 0.26991297E+03</pdfrwt>
<pdfrwt beam="2">  1       -2 0.42835059E-02 0.26991297E+03</pdfrwt>
<totfact> 0.11222282E+04</totfact>
</mgrwt>
</event>
<event>
 9    1  0.7997082E-001  0.2742549E+03  0.7818608E-02  0.1098869E+00
          4   -1    0    0  501    0  0.00000000000E+00  0.00000000000E+00  0.62761766826E+02  0.62761766826E+02  0.00000000000E+00 0.  1.
         -4   -1    0    0    0  501 -0.00000000000E+00 -0.00000000000E+00 -0.29960813107E+03  0.29960813107E+03  0.00000000000E+00 0.  1.
         35    2    1    2    0    0 -0.71054273576E-14  0.00000000000E+00 -0.23684636424E+03  0.36236989789E+03  0.27425488627E+03 0.  0.
         25    2    3    3    0    0 -0.16900435034E+02 -0.36170982367E+02 -0.11726021799E+03  0.17720752405E+03  0.12672246520E+03 0.  0.
         25    2    3    3    0    0  0.16900435034E+02  0.36170982367E+02 -0.11958614625E+03  0.18516237385E+03  0.13561081684E+03 0.  0.
          5    1    4    4  502    0 -0.72149355305E+02 -0.19232550779E+02 -0.63236599718E+02  0.97961104651E+02  0.47000000000E+01 0.  1.
         -5    1    4    4    0  502  0.55248920271E+02 -0.16938431588E+02 -0.54023618273E+02  0.79246419396E+02  0.47000000000E+01 0.  1.
          5    1    5    5  503    0 -0.40308422909E+02  0.22408266483E+02 -0.11725696595E+03  0.12608800668E+03  0.47000000000E+01 0. -1.
         -5    1    5    5    0  503  0.57208857943E+02  0.13762715884E+02 -0.23291803007E+01  0.59074367169E+02  0.47000000000E+01 0. -1.
<mgrwt>
<rscale>  0 0.27425489E+03</rscale>
<asrwt>0</asrwt>
<pdfrwt beam="1">  1        4 0.96556565E-02 0.27425489E+03</pdfrwt>
<pdfrwt beam="2">  1       -4 0.46093558E-01 0.27425489E+03</pdfrwt>
<totfact> 0.69083895E+02</totfact>
</mgrwt>
</event>
<event>
 9    1  0.7997082E-001  0.2731571E+03  0.7818608E-02  0.1099486E+00
         -2   -1    0    0    0  501 -0.00000000000E+00  0.00000000000E+00  0.83720111632E+02  0.83720111632E+02  0.00000000000E+00 0. -1.
          2   -1    0    0  501    0  0.00000000000E+00 -0.00000000000E+00 -0.22281020876E+03  0.22281020876E+03  0.00000000000E+00 0. -1.
         35    2    1    2    0    0  0.00000000000E+00 -0.71054273576E-14 -0.13909009713E+03  0.30653032039E+03  0.27315706507E+03 0.  0.
         25    2    3    3    0    0 -0.19606936338E+02 -0.41150779496E+02 -0.31558778747E+02  0.13650821039E+03  0.12474260051E+03 0.  0.
         25    2    3    3    0    0  0.19606936338E+02  0.41150779496E+02 -0.10753131838E+03  0.17002211000E+03  0.12355854827E+03 0.  0.
          5    1    4    4  502    0  0.21079293860E+02  0.25337940689E+02 -0.46310605303E+02  0.57036041514E+02  0.47000000000E+01 0.  1.
         -5    1    4    4    0  502 -0.40686230198E+02 -0.66488720184E+02  0.14751826557E+02  0.79472168878E+02  0.47000000000E+01 0.  1.
          5    1    5    5  503    0  0.56268701959E+02  0.10280094582E+02 -0.60712327434E+01  0.57713057723E+02  0.47000000000E+01 0.  1.
         -5    1    5    5    0  503 -0.36661765621E+02  0.30870684914E+02 -0.10146008564E+03  0.11230905227E+03  0.47000000000E+01 0.  1.
<mgrwt>
<rscale>  0 0.27315707E+03</rscale>
<asrwt>0</asrwt>
<pdfrwt beam="1">  1        2 0.34278493E-01 0.27315707E+03</pdfrwt>
<pdfrwt beam="2">  1       -2 0.12880017E-01 0.27315707E+03</pdfrwt>
<totfact> 0.66112034E+03</totfact>
</mgrwt>
</event>
<event>
 9    1  0.7997082E-001  0.2742597E+03  0.7818608E-02  0.1098866E+00
         -2   -1    0    0    0  501 -0.00000000000E+00  0.00000000000E+00  0.44763091291E+02  0.44763091291E+02  0.00000000000E+00 0.  1.
          2   -1    0    0  501    0  0.00000000000E+00 -0.00000000000E+00 -0.42009162141E+03  0.42009162141E+03  0.00000000000E+00 0.  1.
         35    2    1    2    0    0 -0.71054273576E-14 -0.14210854715E-13 -0.37532853012E+03  0.46485471270E+03  0.27425972799E+03 0.  0.
         25    2    3    3    0    0 -0.13966095784E+02 -0.32124886390E+02 -0.11431749593E+03  0.17304842545E+03  0.12510078943E+03 0.  0.
         25    2    3    3    0    0  0.13966095784E+02  0.32124886390E+02 -0.26101103419E+03  0.29180628725E+03  0.12568647166E+03 0.  0.
          5    1    4    4  502    0 -0.51235771509E+02 -0.19565865382E+02 -0.12095130589E+03  0.13288805727E+03  0.47000000000E+01 0. -1.
         -5    1    4    4    0  502  0.37269675726E+02 -0.12559021008E+02  0.66338099521E+01  0.40160368174E+02  0.47000000000E+01 0. -1.
          5    1    5    5  503    0 -0.39327003345E+02  0.46678610149E+02 -0.70393414404E+02  0.93288952341E+02  0.47000000000E+01 0.  1.
         -5    1    5    5    0  503  0.53293099129E+02 -0.14553723758E+02 -0.19061761978E+03  0.19851733491E+03  0.47000000000E+01 0.  1.
<mgrwt>
<rscale>  0 0.27425973E+03</rscale>
<asrwt>0</asrwt>
<pdfrwt beam="1">  1        2 0.64629480E-01 0.27425973E+03</pdfrwt>
<pdfrwt beam="2">  1       -2 0.68866295E-02 0.27425973E+03</pdfrwt>
<totfact> 0.89805448E+03</totfact>
</mgrwt>
</event>
<event>
 9    1  0.7997082E-001  0.2723447E+03  0.7818608E-02  0.1099945E+00
         -2   -1    0    0    0  501 -0.00000000000E+00  0.00000000000E+00  0.35700658315E+02  0.35700658315E+02  0.00000000000E+00 0. -1.
          2   -1    0    0  501    0  0.00000000000E+00 -0.00000000000E+00 -0.51939982301E+03  0.51939982301E+03  0.00000000000E+00 0. -1.
         35    2    1    2    0    0  0.00000000000E+00 -0.17763568394E-14 -0.48369916470E+03  0.55510048133E+03  0.27234474925E+03 0.  0.
         25    2    3    3    0    0  0.47796384053E+02  0.11458536163E+02 -0.29079237385E+03  0.31996841954E+03  0.12411201568E+03 0.  0.
         25    2    3    3    0    0 -0.47796384053E+02 -0.11458536163E+02 -0.19290679085E+03  0.23513206179E+03  0.12513298584E+03 0.  0.
          5    1    4    4  502    0  0.43811165561E+02  0.58718642248E+02 -0.10472032139E+03  0.12788953392E+03  0.47000000000E+01 0.  1.
         -5    1    4    4    0  502  0.39852184919E+01 -0.47260106084E+02 -0.18607205246E+03  0.19207888562E+03  0.47000000000E+01 0.  1.
          5    1    5    5  503    0 -0.62068137347E+02 -0.12071710353E+02 -0.20578590541E+03  0.21533255381E+03  0.47000000000E+01 0. -1.
         -5    1    5    5    0  503  0.14271753295E+02  0.61317418933E+00  0.12879114555E+02  0.19799507984E+02  0.47000000000E+01 0. -1.
<mgrwt>
<rscale>  0 0.27234475E+03</rscale>
<asrwt>0</asrwt>
<pdfrwt beam="1">  1        2 0.79907670E-01 0.27234475E+03</pdfrwt>
<pdfrwt beam="2">  1       -2 0.54924086E-02 0.27234475E+03</pdfrwt>
<totfact> 0.10047706E+04</totfact>
</mgrwt>
</event>
<event>
 9    1  0.7997082E-001  0.2742358E+03  0.7818608E-02  0.1098880E+00
          2   -1    0    0  501    0  0.00000000000E+00  0.00000000000E+00  0.11027871294E+04  0.11027871294E+04  0.00000000000E+00 0.  1.
         -2   -1    0    0    0  501 -0.00000000000E+00 -0.00000000000E+00 -0.17048907421E+02  0.17048907421E+02  0.00000000000E+00 0.  1.
         35    2    1    2    0    0 -0.71054273576E-14  0.71054273576E-14  0.10857382220E+04  0.11198360368E+04  0.27423577939E+03 0.  0.
         25    2    3    3    0    0  0.28460468252E+02 -0.50456871188E+02  0.53727969256E+03  0.55436044427E+03  0.12365330579E+03 0.  0.
         25    2    3    3    0    0 -0.28460468252E+02  0.50456871188E+02  0.54845852944E+03  0.56547559258E+03  0.12489993264E+03 0.  0.
          5    1    4    4  502    0  0.12243627157E+02 -0.54241805278E+02  0.53380218874E+03  0.53671123199E+03  0.47000000000E+01 0.  1.
         -5    1    4    4    0  502  0.16216841096E+02  0.37849340898E+01  0.34775038212E+01  0.17649212277E+02  0.47000000000E+01 0.  1.
          5    1    5    5  503    0 -0.40520282538E+02 -0.19347066433E+02  0.37994458623E+03  0.38261753865E+03  0.47000000000E+01 0. -1.
         -5    1    5    5    0  503  0.12059814286E+02  0.69803937620E+02  0.16851394321E+03  0.18285805393E+03  0.47000000000E+01 0. -1.
<mgrwt>
<rscale>  0 0.27423578E+03</rscale>
<asrwt>0</asrwt>
<pdfrwt beam="1">  1        2 0.16965950E+00 0.27423578E+03</pdfrwt>
<pdfrwt beam="2">  1       -2 0.26229097E-02 0.27423578E+03</pdfrwt>
<totfact> 0.11753692E+04</totfact>
</mgrwt>
</event>
<event>
 9    1  0.7997082E-001  0.2783029E+03  0.7818608E-02  0.1096619E+00
         -2   -1    0    0    0  501 -0.00000000000E+00  0.00000000000E+00  0.37961573585E+02  0.37961573585E+02  0.00000000000E+00 0.  1.
          2   -1    0    0  501    0  0.00000000000E+00 -0.00000000000E+00 -0.51007189189E+03  0.51007189189E+03  0.00000000000E+00 0.  1.
         35    2    1    2    0    0 -0.71054273576E-14  0.00000000000E+00 -0.47211031831E+03  0.54803346548E+03  0.27830294039E+03 0.  0.
         25    2    3    3    0    0  0.47270444256E+02 -0.35636485061E+02 -0.27844142305E+03  0.31015018979E+03  0.12312213525E+03 0.  0.
         25    2    3    3    0    0 -0.47270444256E+02  0.35636485061E+02 -0.19366889526E+03  0.23788327569E+03  0.12480527991E+03 0.  0.
          5    1    4    4  502    0  0.85591472085E+00 -0.22611199664E+02 -0.25552232380E+03  0.25656528779E+03  0.47000000000E+01 0.  1.
         -5    1    4    4    0  502  0.46414529535E+02 -0.13025285396E+02 -0.22919099253E+02  0.53584901998E+02  0.47000000000E+01 0.  1.
          5    1    5    5  503    0 -0.12802525845E+02 -0.27167119953E+02  0.98227094665E+00  0.30414008791E+02  0.47000000000E+01 0. -1.
         -5    1    5    5    0  503 -0.34467918411E+02  0.62803605013E+02 -0.19465116621E+03  0.20746926690E+03  0.47000000000E+01 0. -1.
<mgrwt>
<rscale>  0 0.27830294E+03</rscale>
<asrwt>0</asrwt>
<pdfrwt beam="1">  1        2 0.78472594E-01 0.27830294E+03</pdfrwt>
<pdfrwt beam="2">  1       -2 0.58402424E-02 0.27830294E+03</pdfrwt>
<totfact> 0.93431676E+03</totfact>
</mgrwt>
</event>
<event>
 9    1  0.7997082E-001  0.2999682E+03  0.7818608E-02  0.1085257E+00
         -2   -1    0    0    0  501 -0.00000000000E+00  0.00000000000E+00  0.78706402606E+02  0.78706402606E+02  0.00000000000E+00 0. -1.
          2   -1    0    0  501    0  0.00000000000E+00 -0.00000000000E+00 -0.28581197887E+03  0.28581197887E+03  0.00000000000E+00 0. -1.
         35    2    1    2    0    0 -0.35527136788E-14  0.00000000000E+00 -0.20710557627E+03  0.36451838148E+03  0.29996821617E+03 0.  0.
         25    2    3    3    0    0 -0.28158450090E+02  0.40144474811E+02 -0.17327202720E+03  0.21919901417E+03  0.12498213966E+03 0.  0.
         25    2    3    3    0    0  0.28158450090E+02 -0.40144474811E+02 -0.33833549072E+02  0.14531936731E+03  0.13254634021E+03 0.  0.
          5    1    4    4  502    0 -0.30622937370E+01  0.83605623628E+02 -0.10506448352E+03  0.13438717812E+03  0.47000000000E+01 0. -1.
         -5    1    4    4    0  502 -0.25096156353E+02 -0.43461148816E+02 -0.68207543674E+02  0.84811836050E+02  0.47000000000E+01 0. -1.
          5    1    5    5  503    0  0.52557277588E+02  0.29072973252E+02 -0.38718652327E+02  0.71615146716E+02  0.47000000000E+01 0. -1.
         -5    1    5    5    0  503 -0.24398827497E+02 -0.69217448063E+02  0.48851032550E+01  0.73704220595E+02  0.47000000000E+01 0. -1.
<mgrwt>
<rscale>  0 0.29996822E+03</rscale>
<asrwt>0</asrwt>
<pdfrwt beam="1">  1        2 0.43971074E-01 0.29996822E+03</pdfrwt>
<pdfrwt beam="2">  1       -2 0.12108677E-01 0.29996822E+03</pdfrwt>
<totfact> 0.55996141E+03</totfact>
</mgrwt>
</event>
<event>
 9    1  0.7997082E-001  0.2789905E+03  0.7818608E-02  0.1096242E+00
          2   -1    0    0  501    0  0.00000000000E+00  0.00000000000E+00  0.21182761490E+04  0.21182761490E+04  0.00000000000E+00 0. -1.
         -2   -1    0    0    0  501 -0.00000000000E+00 -0.00000000000E+00 -0.91862062398E+01  0.91862062398E+01  0.00000000000E+00 0. -1.
         35    2    1    2    0    0 -0.71054273576E-14  0.00000000000E+00  0.21090899428E+04  0.21274623553E+04  0.27899047710E+03 0.  0.
         25    2    3    3    0    0  0.55900336040E+02 -0.19370949877E+02  0.11738663133E+04  0.11820599208E+04  0.12571178798E+03 0.  0.
         25    2    3    3    0    0 -0.55900336040E+02  0.19370949877E+02  0.93522362947E+03  0.94540243443E+03  0.12506975910E+03 0.  0.
          5    1    4    4  502    0  0.92742821434E+02  0.71598236394E+01  0.81366357939E+03  0.81897680336E+03  0.47000000000E+01 0. -1.
         -5    1    4    4    0  502 -0.36842485393E+02 -0.26530773517E+02  0.36020273391E+03  0.36308311747E+03  0.47000000000E+01 0. -1.
          5    1    5    5  503    0 -0.21398502237E+02 -0.11208467908E+02  0.29168811316E+02  0.38163270358E+02  0.47000000000E+01 0.  1.
         -5    1    5    5    0  503 -0.34501833804E+02  0.30579417786E+02  0.90605481816E+03  0.90723916408E+03  0.47000000000E+01 0.  1.
<mgrwt>
<rscale>  0 0.27899048E+03</rscale>
<asrwt>0</asrwt>
<pdfrwt beam="1">  1        2 0.32588825E+00 0.27899048E+03</pdfrwt>
<pdfrwt beam="2">  1       -2 0.14132642E-02 0.27899048E+03</pdfrwt>
<totfact> 0.82842096E+03</totfact>
</mgrwt>
</event>
<event>
 9    1  0.7997082E-001  0.2742507E+03  0.7818608E-02  0.1098871E+00
         -3   -1    0    0    0  501 -0.00000000000E+00  0.00000000000E+00  0.28145309219E+02  0.28145309219E+02  0.00000000000E+00 0.  1.
          3   -1    0    0  501    0  0.00000000000E+00 -0.00000000000E+00 -0.66808158331E+03  0.66808158331E+03  0.00000000000E+00 0.  1.
         35    2    1    2    0    0  0.00000000000E+00 -0.35527136788E-14 -0.63993627409E+03  0.69622689253E+03  0.27425070827E+03 0.  0.
         25    2    3    3    0    0  0.39524761570E+02 -0.30901633400E+02 -0.26079714828E+03  0.29405685942E+03  0.12624249006E+03 0.  0.
         25    2    3    3    0    0 -0.39524761570E+02  0.30901633400E+02 -0.37913912581E+03  0.40217003311E+03  0.12440715850E+03 0.  0.
          5    1    4    4  502    0  0.75605435269E+02 -0.17540423179E+02 -0.90091829836E+02  0.11900620190E+03  0.47000000000E+01 0.  1.
         -5    1    4    4    0  502 -0.36080673699E+02 -0.13361210222E+02 -0.17070531844E+03  0.17505065752E+03  0.47000000000E+01 0.  1.
          5    1    5    5  503    0 -0.26875995797E+02  0.46079563866E+02 -0.52813440511E+02  0.75212996582E+02  0.47000000000E+01 0. -1.
         -5    1    5    5    0  503 -0.12648765772E+02 -0.15177930466E+02 -0.32632568530E+03  0.32695703653E+03  0.47000000000E+01 0. -1.
<mgrwt>
<rscale>  0 0.27425071E+03</rscale>
<asrwt>0</asrwt>
<pdfrwt beam="1">  1        3 0.10278178E+00 0.27425071E+03</pdfrwt>
<pdfrwt beam="2">  1       -3 0.43300477E-02 0.27425071E+03</pdfrwt>
<totfact> 0.61877362E+02</totfact>
</mgrwt>
</event>
<event>
 9    1  0.7997082E-001  0.2787005E+03  0.7818608E-02  0.1096401E+00
          2   -1    0    0  501    0  0.00000000000E+00  0.00000000000E+00  0.13635056222E+03  0.13635056222E+03  0.00000000000E+00 0.  1.
         -2   -1    0    0    0  501 -0.00000000000E+00 -0.00000000000E+00 -0.14241597138E+03  0.14241597138E+03  0.00000000000E+00 0.  1.
         35    2    1    2    0    0  0.00000000000E+00  0.00000000000E+00 -0.60654091659E+01  0.27876653360E+03  0.27870054012E+03 0.  0.
         25    2    3    3    0    0 -0.92296369837E+01 -0.55850192791E+02 -0.25342067430E+02  0.14142554398E+03  0.12710048731E+03 0.  0.
         25    2    3    3    0    0  0.92296369837E+01  0.55850192791E+02  0.19276658264E+02  0.13734098962E+03  0.12363869799E+03 0.  0.
          5    1    4    4  502    0  0.53399418822E+02 -0.53099359415E+02 -0.61842045766E+01  0.75705840508E+02  0.47000000000E+01 0. -1.
         -5    1    4    4    0  502 -0.62629055805E+02 -0.27508333755E+01 -0.19157862853E+02  0.65719703472E+02  0.47000000000E+01 0. -1.
          5    1    5    5  503    0  0.30277037394E+02  0.67831710841E+02  0.55968953904E+02  0.93126010276E+02  0.47000000000E+01 0. -1.
         -5    1    5    5    0  503 -0.21047400410E+02 -0.11981518050E+02 -0.36692295640E+02  0.44214979341E+02  0.47000000000E+01 0. -1.
<mgrwt>
<rscale>  0 0.27870054E+03</rscale>
<asrwt>0</asrwt>
<pdfrwt beam="1">  1        2 0.20977010E-01 0.27870054E+03</pdfrwt>
<pdfrwt beam="2">  1       -2 0.21910149E-01 0.27870054E+03</pdfrwt>
<totfact> 0.46869082E+03</totfact>
</mgrwt>
</event>
<event>
 9    1  0.7997082E-001  0.2748532E+03  0.7818608E-02  0.1098534E+00
         -1   -1    0    0    0  501 -0.00000000000E+00  0.00000000000E+00  0.36353436189E+02  0.36353436189E+02  0.00000000000E+00 0. -1.
          1   -1    0    0  501    0  0.00000000000E+00 -0.00000000000E+00 -0.51951280611E+03  0.51951280611E+03  0.00000000000E+00 0. -1.
         35    2    1    2    0    0  0.00000000000E+00  0.00000000000E+00 -0.48315936992E+03  0.55586624230E+03  0.27485323827E+03 0.  0.
         25    2    3    3    0    0  0.13825184534E+02  0.26493352621E+02 -0.14338011192E+03  0.19264888663E+03  0.12515072338E+03 0.  0.
         25    2    3    3    0    0 -0.13825184534E+02 -0.26493352621E+02 -0.33977925800E+03  0.36321735567E+03  0.12483537093E+03 0.  0.
          5    1    4    4  502    0  0.49915505929E+02 -0.14478527994E+02 -0.16976836570E+02  0.54877030577E+02  0.47000000000E+01 0. -1.
         -5    1    4    4    0  502 -0.36090321396E+02  0.40971880615E+02 -0.12640327535E+03  0.13777185605E+03  0.47000000000E+01 0. -1.
          5    1    5    5  503    0 -0.34534732972E+02 -0.69329661215E+02 -0.17072663287E+03  0.18753379129E+03  0.47000000000E+01 0. -1.
         -5    1    5    5    0  503  0.20709548438E+02  0.42836308594E+02 -0.16905262513E+03  0.17568356438E+03  0.47000000000E+01 0. -1.
<mgrwt>
<rscale>  0 0.27485324E+03</rscale>
<asrwt>0</asrwt>
<pdfrwt beam="1">  1        1 0.79925048E-01 0.27485324E+03</pdfrwt>
<pdfrwt beam="2">  1       -1 0.55928363E-02 0.27485324E+03</pdfrwt>
<totfact> 0.63444661E+03</totfact>
</mgrwt>
</event>
<event>
 9    1  0.7997082E-001  0.2759706E+03  0.7818608E-02  0.1097910E+00
         -2   -1    0    0    0  501 -0.00000000000E+00  0.00000000000E+00  0.75499364657E+02  0.75499364657E+02  0.00000000000E+00 0.  1.
          2   -1    0    0  501    0  0.00000000000E+00 -0.00000000000E+00 -0.25218674546E+03  0.25218674546E+03  0.00000000000E+00 0.  1.
         35    2    1    2    0    0  0.00000000000E+00  0.00000000000E+00 -0.17668738080E+03  0.32768611012E+03  0.27597057131E+03 0.  0.
         25    2    3    3    0    0 -0.67582419395E+02  0.36682485173E+01 -0.84072706394E+02  0.15998568448E+03  0.11809470700E+03 0.  0.
         25    2    3    3    0    0  0.67582419395E+02 -0.36682485173E+01 -0.92614674407E+02  0.16770042563E+03  0.12233198839E+03 0.  0.
          5    1    4    4  502    0 -0.81653175161E+02  0.19435035893E+02 -0.12228329495E+02  0.84950477787E+02  0.47000000000E+01 0.  1.
         -5    1    4    4    0  502  0.14070755765E+02 -0.15766787376E+02 -0.71844376899E+02  0.75035206696E+02  0.47000000000E+01 0.  1.
          5    1    5    5  503    0  0.55516416372E+02 -0.30575256566E+02  0.67831309907E+01  0.63914158579E+02  0.47000000000E+01 0.  1.
         -5    1    5    5    0  503  0.12066003024E+02  0.26907008048E+02 -0.99397805398E+02  0.10378626705E+03  0.47000000000E+01 0.  1.
<mgrwt>
<rscale>  0 0.27597057E+03</rscale>
<asrwt>0</asrwt>
<pdfrwt beam="1">  1        2 0.38797961E-01 0.27597057E+03</pdfrwt>
<pdfrwt beam="2">  1       -2 0.11615287E-01 0.27597057E+03</pdfrwt>
<totfact> 0.68355681E+03</totfact>
</mgrwt>
</event>
<event>
 9    1  0.7997082E-001  0.2725866E+03  0.7818608E-02  0.1099808E+00
         -2   -1    0    0    0  501 -0.00000000000E+00  0.00000000000E+00  0.13656932685E+03  0.13656932685E+03  0.00000000000E+00 0.  1.
          2   -1    0    0  501    0  0.00000000000E+00 -0.00000000000E+00 -0.13601779746E+03  0.13601779746E+03  0.00000000000E+00 0.  1.
         35    2    1    2    0    0 -0.66613381478E-15 -0.71054273576E-14  0.55152938787E+00  0.27258712431E+03  0.27258656635E+03 0.  0.
         25    2    3    3    0    0  0.10038939267E+01  0.50220355457E+02 -0.20641499270E+02  0.13500355983E+03  0.12359934372E+03 0.  0.
         25    2    3    3    0    0 -0.10038939267E+01 -0.50220355457E+02  0.21193028658E+02  0.13758356449E+03  0.12632102298E+03 0.  0.
          5    1    4    4  502    0  0.52314447576E+02  0.47200858602E+02  0.15111537785E+02  0.72216141216E+02  0.47000000000E+01 0. -1.
         -5    1    4    4    0  502 -0.51310553649E+02  0.30194968551E+01 -0.35753037055E+02  0.62787418610E+02  0.47000000000E+01 0. -1.
          5    1    5    5  503    0  0.17226647060E+01  0.39465623128E+02  0.26132823243E+02  0.47597451961E+02  0.47000000000E+01 0.  1.
         -5    1    5    5    0  503 -0.27265586327E+01 -0.89685978584E+02 -0.49397945851E+01  0.89986112524E+02  0.47000000000E+01 0.  1.
<mgrwt>
<rscale>  0 0.27258657E+03</rscale>
<asrwt>0</asrwt>
<pdfrwt beam="1">  1        2 0.20925815E-01 0.27258657E+03</pdfrwt>
<pdfrwt beam="2">  1       -2 0.21010666E-01 0.27258657E+03</pdfrwt>
<totfact> 0.50489374E+03</totfact>
</mgrwt>
</event>
<event>
 9    1  0.7997082E-001  0.2741423E+03  0.7818608E-02  0.1098932E+00
          1   -1    0    0  501    0  0.00000000000E+00  0.00000000000E+00  0.36497308911E+03  0.36497308911E+03  0.00000000000E+00 0. -1.
         -1   -1    0    0    0  501 -0.00000000000E+00 -0.00000000000E+00 -0.51479124965E+02  0.51479124965E+02  0.00000000000E+00 0. -1.
         35    2    1    2    0    0 -0.71054273576E-14  0.00000000000E+00  0.31349396414E+03  0.41645221407E+03  0.27414226426E+03 0.  0.
         25    2    3    3    0    0 -0.18592297346E+02 -0.35223237803E+02  0.20464010316E+03  0.24599395144E+03  0.13057221114E+03 0.  0.
         25    2    3    3    0    0  0.18592297346E+02  0.35223237803E+02  0.10885386098E+03  0.17045826263E+03  0.12498202369E+03 0.  0.
          5    1    4    4  502    0 -0.33723401857E+02 -0.43711905788E+02  0.17664064787E+02  0.58155891578E+02  0.47000000000E+01 0. -1.
         -5    1    4    4    0  502  0.15131104511E+02  0.84886679844E+01  0.18697603837E+03  0.18783805986E+03  0.47000000000E+01 0. -1.
          5    1    5    5  503    0  0.54865893770E+02 -0.62614311976E+01  0.10016198247E+03  0.11447263669E+03  0.47000000000E+01 0.  1.
         -5    1    5    5    0  503 -0.36273596423E+02  0.41484669001E+02  0.86918785176E+01  0.55985625939E+02  0.47000000000E+01 0.  1.
<mgrwt>
<rscale>  0 0.27414226E+03</rscale>
<asrwt>0</asrwt>
<pdfrwt beam="1">  1        1 0.56149704E-01 0.27414226E+03</pdfrwt>
<pdfrwt beam="2">  1       -1 0.79198656E-02 0.27414226E+03</pdfrwt>
<totfact> 0.59262251E+03</totfact>
</mgrwt>
</event>
<event>
 9    1  0.7997082E-001  0.2559303E+03  0.7818608E-02  0.1109613E+00
          4   -1    0    0  501    0  0.00000000000E+00  0.00000000000E+00  0.68526309746E+03  0.68526309746E+03  0.00000000000E+00 0. -1.
         -4   -1    0    0    0  501 -0.00000000000E+00 -0.00000000000E+00 -0.23896051411E+02  0.23896051411E+02  0.00000000000E+00 0. -1.
         35    2    1    2    0    0  0.35527136788E-14 -0.17763568394E-14  0.66136704605E+03  0.70915914888E+03  0.25593032026E+03 0.  0.
         25    2    3    3    0    0  0.19860293171E+02  0.14531398945E+02  0.37286539135E+03  0.39374051798E+03  0.12408627090E+03 0.  0.
         25    2    3    3    0    0 -0.19860293171E+02 -0.14531398945E+02  0.28850165470E+03  0.31541863090E+03  0.12510042028E+03 0.  0.
          5    1    4    4  502    0  0.15755249743E+02  0.54970538584E+02  0.32815342715E+03  0.33313173033E+03  0.47000000000E+01 0.  1.
         -5    1    4    4    0  502  0.41050434278E+01 -0.40439139639E+02  0.44711964206E+02  0.60608787643E+02  0.47000000000E+01 0.  1.
          5    1    5    5  503    0  0.63910601876E+01  0.13322487256E+02 -0.72829633888E+01  0.17130845652E+02  0.47000000000E+01 0.  1.
         -5    1    5    5    0  503 -0.26251353358E+02 -0.27853886201E+02  0.29578461809E+03  0.29828778525E+03  0.47000000000E+01 0.  1.
<mgrwt>
<rscale>  0 0.25593032E+03</rscale>
<asrwt>0</asrwt>
<pdfrwt beam="1">  1        4 0.10542508E+00 0.25593032E+03</pdfrwt>
<pdfrwt beam="2">  1       -4 0.36763161E-02 0.25593032E+03</pdfrwt>
<totfact> 0.54733510E+02</totfact>
</mgrwt>
</event>
<event>
 9    1  0.7997082E-001  0.2765633E+03  0.7818608E-02  0.1097581E+00
         -1   -1    0    0    0  501 -0.00000000000E+00  0.00000000000E+00  0.20508382407E+02  0.20508382407E+02  0.00000000000E+00 0. -1.
          1   -1    0    0  501    0  0.00000000000E+00 -0.00000000000E+00 -0.93239004849E+03  0.93239004849E+03  0.00000000000E+00 0. -1.
         35    2    1    2    0    0 -0.71054273576E-14 -0.53290705182E-14 -0.91188166608E+03  0.95289843090E+03  0.27656327787E+03 0.  0.
         25    2    3    3    0    0  0.39368543601E+02  0.10492494403E+01 -0.30382571753E+03  0.33089570504E+03  0.12502366908E+03 0.  0.
         25    2    3    3    0    0 -0.39368543601E+02 -0.10492494403E+01 -0.60805594856E+03  0.62200272586E+03  0.12491745777E+03 0.  0.
          5    1    4    4  502    0  0.59981070123E+02 -0.39637798819E+02 -0.25006451567E+03  0.26023688414E+03  0.47000000000E+01 0.  1.
         -5    1    4    4    0  502 -0.20612526522E+02  0.40687048260E+02 -0.53761201859E+02  0.70658820900E+02  0.47000000000E+01 0.  1.
          5    1    5    5  503    0  0.81788166615E+01  0.14979974650E+01 -0.53240545588E+03  0.53249112339E+03  0.47000000000E+01 0. -1.
         -5    1    5    5    0  503 -0.47547360262E+02 -0.25472469054E+01 -0.75650492672E+02  0.89511602467E+02  0.47000000000E+01 0. -1.
<mgrwt>
<rscale>  0 0.27656328E+03</rscale>
<asrwt>0</asrwt>
<pdfrwt beam="1">  1        1 0.14344466E+00 0.27656328E+03</pdfrwt>
<pdfrwt beam="2">  1       -1 0.31551349E-02 0.27656328E+03</pdfrwt>
<totfact> 0.62999716E+03</totfact>
</mgrwt>
</event>
<event>
 9    1  0.7997082E-001  0.2744056E+03  0.7818608E-02  0.1098784E+00
         -2   -1    0    0    0  501 -0.00000000000E+00  0.00000000000E+00  0.64736854334E+02  0.64736854334E+02  0.00000000000E+00 0. -1.
          2   -1    0    0  501    0  0.00000000000E+00 -0.00000000000E+00 -0.29078661806E+03  0.29078661806E+03  0.00000000000E+00 0. -1.
         35    2    1    2    0    0 -0.35527136788E-14  0.71054273576E-14 -0.22604976372E+03  0.35552347239E+03  0.27440561901E+03 0.  0.
         25    2    3    3    0    0 -0.20854369843E+02  0.48985236565E+02 -0.13458817337E+03  0.19136429726E+03  0.12518729852E+03 0.  0.
         25    2    3    3    0    0  0.20854369843E+02 -0.48985236565E+02 -0.91461590351E+02  0.16415917513E+03  0.12549324335E+03 0.  0.
          5    1    4    4  502    0 -0.44507492567E+02  0.82922259489E+02 -0.88788450024E+02  0.12947006168E+03  0.47000000000E+01 0. -1.
         -5    1    4    4    0  502  0.23653122724E+02 -0.33937022924E+02 -0.45799723348E+02  0.61894235583E+02  0.47000000000E+01 0. -1.
          5    1    5    5  503    0  0.27671614942E+02  0.38793486839E+02 -0.27323599920E+02  0.55130046319E+02  0.47000000000E+01 0.  1.
         -5    1    5    5    0  503 -0.68172450992E+01 -0.87778723403E+02 -0.64137990430E+02  0.10902912881E+03  0.47000000000E+01 0.  1.
<mgrwt>
<rscale>  0 0.27440562E+03</rscale>
<asrwt>0</asrwt>
<pdfrwt beam="1">  1        2 0.44736403E-01 0.27440562E+03</pdfrwt>
<pdfrwt beam="2">  1       -2 0.99595160E-02 0.27440562E+03</pdfrwt>
<totfact> 0.74970527E+03</totfact>
</mgrwt>
</event>
<event>
 9    1  0.7997082E-001  0.2788922E+03  0.7818608E-02  0.1096296E+00
          1   -1    0    0  501    0  0.00000000000E+00  0.00000000000E+00  0.29314191419E+04  0.29314191419E+04  0.00000000000E+00 0. -1.
         -1   -1    0    0    0  501 -0.00000000000E+00 -0.00000000000E+00 -0.66333796426E+01  0.66333796426E+01  0.00000000000E+00 0. -1.
         35    2    1    2    0    0  0.00000000000E+00 -0.66613381478E-14  0.29247857623E+04  0.29380525216E+04  0.27889220900E+03 0.  0.
         25    2    3    3    0    0 -0.21772568518E+02 -0.19988965086E+01  0.86033317590E+03  0.86966419847E+03  0.12515831657E+03 0.  0.
         25    2    3    3    0    0  0.21772568518E+02  0.19988965086E+01  0.20644525864E+04  0.20683883231E+04  0.12564924753E+03 0.  0.
          5    1    4    4  502    0  0.41455086028E+02  0.34010840627E+02  0.39581625784E+03  0.39945946153E+03  0.47000000000E+01 0.  1.
         -5    1    4    4    0  502 -0.63227654546E+02 -0.36009737135E+02  0.46451691806E+03  0.47020473693E+03  0.47000000000E+01 0.  1.
          5    1    5    5  503    0  0.12964261322E+02 -0.14669274355E+00  0.20529917151E+04  0.20530380332E+04  0.47000000000E+01 0.  1.
         -5    1    5    5    0  503  0.88083071961E+01  0.21455892521E+01  0.11460871284E+02  0.15350289883E+02  0.47000000000E+01 0.  1.
<mgrwt>
<rscale>  0 0.27889221E+03</rscale>
<asrwt>0</asrwt>
<pdfrwt beam="1">  1        1 0.45098653E+00 0.27889221E+03</pdfrwt>
<pdfrwt beam="2">  1       -1 0.10205223E-02 0.27889221E+03</pdfrwt>
<totfact> 0.14752178E+03</totfact>
</mgrwt>
</event>
<event>
 9    1  0.7997082E-001  0.2742813E+03  0.7818608E-02  0.1098854E+00
         -2   -1    0    0    0  501 -0.00000000000E+00  0.00000000000E+00  0.11137572274E+02  0.11137572274E+02  0.00000000000E+00 0. -1.
          2   -1    0    0  501    0  0.00000000000E+00 -0.00000000000E+00 -0.16886588489E+04  0.16886588489E+04  0.00000000000E+00 0. -1.
         35    2    1    2    0    0 -0.35527136788E-14  0.71054273576E-14 -0.16775212766E+04  0.16997964212E+04  0.27428131526E+03 0.  0.
         25    2    3    3    0    0  0.14316728085E+02 -0.40805740477E+02 -0.10638141832E+04  0.10720139774E+04  0.12507307574E+03 0.  0.
         25    2    3    3    0    0 -0.14316728085E+02  0.40805740477E+02 -0.61370709342E+03  0.62778244373E+03  0.12491726457E+03 0.  0.
          5    1    4    4  502    0  0.85868679663E+01 -0.58160526934E+02 -0.21367103432E+03  0.22166141320E+03  0.47000000000E+01 0.  1.
         -5    1    4    4    0  502  0.57298601186E+01  0.17354786457E+02 -0.85014314886E+03  0.85035256422E+03  0.47000000000E+01 0.  1.
          5    1    5    5  503    0 -0.53222154844E+02  0.86300204222E+00 -0.12582242031E+03  0.13669935622E+03  0.47000000000E+01 0.  1.
         -5    1    5    5    0  503  0.38905426759E+02  0.39942738435E+02 -0.48788467311E+03  0.49108308751E+03  0.47000000000E+01 0.  1.
<mgrwt>
<rscale>  0 0.27428132E+03</rscale>
<asrwt>0</asrwt>
<pdfrwt beam="1">  1        2 0.25979373E+00 0.27428132E+03</pdfrwt>
<pdfrwt beam="2">  1       -2 0.17134722E-02 0.27428132E+03</pdfrwt>
<totfact> 0.10512613E+04</totfact>
</mgrwt>
</event>
<event>
 9    1  0.7997082E-001  0.2751433E+03  0.7818608E-02  0.1098372E+00
         -2   -1    0    0    0  501 -0.00000000000E+00  0.00000000000E+00  0.21538023700E+02  0.21538023700E+02  0.00000000000E+00 0.  1.
          2   -1    0    0  501    0  0.00000000000E+00 -0.00000000000E+00 -0.87872332014E+03  0.87872332014E+03  0.00000000000E+00 0.  1.
         35    2    1    2    0    0  0.35527136788E-14 -0.14210854715E-13 -0.85718529644E+03  0.90026134384E+03  0.27514333497E+03 0.  0.
         25    2    3    3    0    0  0.90007652277E+01 -0.55234776389E+02 -0.42165371322E+03  0.44375802486E+03  0.12648097274E+03 0.  0.
         25    2    3    3    0    0 -0.90007652277E+01  0.55234776389E+02 -0.43553158322E+03  0.45650331897E+03  0.12480234755E+03 0.  0.
          5    1    4    4  502    0 -0.48026653032E+02  0.10496533289E+02 -0.18809881724E+03  0.19447362716E+03  0.47000000000E+01 0.  1.
         -5    1    4    4    0  502  0.57027418260E+02 -0.65731309678E+02 -0.23355489598E+03  0.24928439771E+03  0.47000000000E+01 0.  1.
          5    1    5    5  503    0 -0.38921304683E+02  0.34337200114E+02 -0.61266818155E+02  0.80433974642E+02  0.47000000000E+01 0. -1.
         -5    1    5    5    0  503  0.29920539455E+02  0.20897576275E+02 -0.37426476506E+03  0.37606934433E+03  0.47000000000E+01 0. -1.
<mgrwt>
<rscale>  0 0.27514333E+03</rscale>
<asrwt>0</asrwt>
<pdfrwt beam="1">  1        2 0.13518819E+00 0.27514333E+03</pdfrwt>
<pdfrwt beam="2">  1       -2 0.33135424E-02 0.27514333E+03</pdfrwt>
<totfact> 0.11415154E+04</totfact>
</mgrwt>
</event>
<event>
 9    1  0.7997082E-001  0.2735301E+03  0.7818608E-02  0.1099276E+00
          2   -1    0    0  501    0  0.00000000000E+00  0.00000000000E+00  0.24168008937E+03  0.24168008937E+03  0.00000000000E+00 0. -1.
         -2   -1    0    0    0  501 -0.00000000000E+00 -0.00000000000E+00 -0.77394387460E+02  0.77394387460E+02  0.00000000000E+00 0. -1.
         35    2    1    2    0    0  0.71054273576E-14  0.71054273576E-14  0.16428570191E+03  0.31907447683E+03  0.27353012615E+03 0.  0.
         25    2    3    3    0    0  0.20750661115E+02 -0.37342203873E+02  0.42568670542E+02  0.13969021560E+03  0.12600093053E+03 0.  0.
         25    2    3    3    0    0 -0.20750661115E+02  0.37342203873E+02  0.12171703137E+03  0.17938426124E+03  0.12465411075E+03 0.  0.
          5    1    4    4  502    0 -0.41148010216E+02 -0.54346266693E+02  0.27007282992E+02  0.73472163320E+02  0.47000000000E+01 0.  1.
         -5    1    4    4    0  502  0.61898671331E+02  0.17004062820E+02  0.15561387550E+02  0.66218052277E+02  0.47000000000E+01 0.  1.
          5    1    5    5  503    0  0.46303673472E+02  0.70025403915E+01  0.14492894280E+02  0.49246316955E+02  0.47000000000E+01 0.  1.
         -5    1    5    5    0  503 -0.67054334587E+02  0.30339663482E+02  0.10722413709E+03  0.13013794428E+03  0.47000000000E+01 0.  1.
<mgrwt>
<rscale>  0 0.27353013E+03</rscale>
<asrwt>0</asrwt>
<pdfrwt beam="1">  1        2 0.37181552E-01 0.27353013E+03</pdfrwt>
<pdfrwt beam="2">  1       -2 0.11906829E-01 0.27353013E+03</pdfrwt>
<totfact> 0.68748674E+03</totfact>
</mgrwt>
</event>
<event>
 9    1  0.7997082E-001  0.2735816E+03  0.7818608E-02  0.1099247E+00
          3   -1    0    0  501    0  0.00000000000E+00  0.00000000000E+00  0.72943563375E+03  0.72943563375E+03  0.00000000000E+00 0.  1.
         -3   -1    0    0    0  501 -0.00000000000E+00 -0.00000000000E+00 -0.25652321590E+02  0.25652321590E+02  0.00000000000E+00 0.  1.
         35    2    1    2    0    0 -0.35527136788E-14  0.00000000000E+00  0.70378331216E+03  0.75508795534E+03  0.27358155973E+03 0.  0.
         25    2    3    3    0    0 -0.12041097097E+02  0.48139813314E+02  0.41739367637E+03  0.43819410242E+03  0.12383117815E+03 0.  0.
         25    2    3    3    0    0  0.12041097097E+02 -0.48139813314E+02  0.28638963579E+03  0.31689385292E+03  0.12625474598E+03 0.  0.
          5    1    4    4  502    0 -0.67519730530E+02  0.23109375507E+02  0.24944262723E+03  0.25949310497E+03  0.47000000000E+01 0.  1.
         -5    1    4    4    0  502  0.55478633432E+02  0.25030437807E+02  0.16795104914E+03  0.17870099745E+03  0.47000000000E+01 0.  1.
          5    1    5    5  503    0 -0.18921417897E+02 -0.64535227656E+02  0.26933750532E+03  0.27764653326E+03  0.47000000000E+01 0. -1.
         -5    1    5    5    0  503  0.30962514995E+02  0.16395414341E+02  0.17052130478E+02  0.39247319655E+02  0.47000000000E+01 0. -1.
<mgrwt>
<rscale>  0 0.27358156E+03</rscale>
<asrwt>0</asrwt>
<pdfrwt beam="1">  1        3 0.11222085E+00 0.27358156E+03</pdfrwt>
<pdfrwt beam="2">  1       -3 0.39465116E-02 0.27358156E+03</pdfrwt>
<totfact> 0.58376366E+02</totfact>
</mgrwt>
</event>
<event>
 9    1  0.7997082E-001  0.2762133E+03  0.7818608E-02  0.1097775E+00
         -2   -1    0    0    0  501 -0.00000000000E+00  0.00000000000E+00  0.10429756868E+02  0.10429756868E+02  0.00000000000E+00 0. -1.
          2   -1    0    0  501    0  0.00000000000E+00 -0.00000000000E+00 -0.18287533342E+04  0.18287533342E+04  0.00000000000E+00 0. -1.
         35    2    1    2    0    0 -0.71054273576E-14 -0.35527136788E-14 -0.18183235773E+04  0.18391830910E+04  0.27621334252E+03 0.  0.
         25    2    3    3    0    0 -0.54473515002E+02 -0.21105761228E+02 -0.79394956220E+03  0.80549864873E+03  0.12271653836E+03 0.  0.
         25    2    3    3    0    0  0.54473515002E+02  0.21105761228E+02 -0.10243740151E+04  0.10336844423E+04  0.12549337221E+03 0.  0.
          5    1    4    4  502    0 -0.23000557188E+02  0.31689872943E+02 -0.83125078885E+02  0.92006208582E+02  0.47000000000E+01 0.  1.
         -5    1    4    4    0  502 -0.31472957814E+02 -0.52795634171E+02 -0.71082448332E+03  0.71349244015E+03  0.47000000000E+01 0.  1.
          5    1    5    5  503    0  0.30759265475E+02 -0.44105392869E+02 -0.22899331326E+03  0.23526887939E+03  0.47000000000E+01 0. -1.
         -5    1    5    5    0  503  0.23714249527E+02  0.65211154098E+02 -0.79538070184E+03  0.79841556292E+03  0.47000000000E+01 0. -1.
<mgrwt>
<rscale>  0 0.27621334E+03</rscale>
<asrwt>0</asrwt>
<pdfrwt beam="1">  1        2 0.28134627E+00 0.27621334E+03</pdfrwt>
<pdfrwt beam="2">  1       -2 0.16045802E-02 0.27621334E+03</pdfrwt>
<totfact> 0.97702557E+03</totfact>
</mgrwt>
</event>
<event>
 9    1  0.7997082E-001  0.2721319E+03  0.7818608E-02  0.1100066E+00
         -2   -1    0    0    0  501 -0.00000000000E+00  0.00000000000E+00  0.45313015845E+02  0.45313015845E+02  0.00000000000E+00 0. -1.
          2   -1    0    0  501    0  0.00000000000E+00 -0.00000000000E+00 -0.40857882643E+03  0.40857882643E+03  0.00000000000E+00 0. -1.
         35    2    1    2    0    0  0.00000000000E+00  0.35527136788E-14 -0.36326581058E+03  0.45389184227E+03  0.27213187124E+03 0.  0.
         25    2    3    3    0    0  0.44944137310E+02  0.30400388712E+02 -0.19210220046E+03  0.23525521522E+03  0.12448936402E+03 0.  0.
         25    2    3    3    0    0 -0.44944137310E+02 -0.30400388712E+02 -0.17116361012E+03  0.21863662705E+03  0.12474307254E+03 0.  0.
          5    1    4    4  502    0  0.24289467522E+02  0.20973792191E+02 -0.20579039581E+03  0.20833063912E+03  0.47000000000E+01 0. -1.
         -5    1    4    4    0  502  0.20654669788E+02  0.94265965211E+01  0.13688195348E+02  0.26924576095E+02  0.47000000000E+01 0. -1.
          5    1    5    5  503    0 -0.50360303107E+02 -0.70925073035E+02 -0.78577288741E+02  0.11731584045E+03  0.47000000000E+01 0.  1.
         -5    1    5    5    0  503  0.54161657964E+01  0.40524684323E+02 -0.92586321382E+02  0.10132078661E+03  0.47000000000E+01 0.  1.
<mgrwt>
<rscale>  0 0.27213187E+03</rscale>
<asrwt>0</asrwt>
<pdfrwt beam="1">  1        2 0.62858281E-01 0.27213187E+03</pdfrwt>
<pdfrwt beam="2">  1       -2 0.69712332E-02 0.27213187E+03</pdfrwt>
<totfact> 0.90807886E+03</totfact>
</mgrwt>
</event>
<event>
 9    1  0.7997082E-001  0.2620636E+03  0.7818608E-02  0.1105910E+00
         -2   -1    0    0    0  501 -0.00000000000E+00  0.00000000000E+00  0.15465092748E+02  0.15465092748E+02  0.00000000000E+00 0. -1.
          2   -1    0    0  501    0  0.00000000000E+00 -0.00000000000E+00 -0.11101987343E+04  0.11101987343E+04  0.00000000000E+00 0. -1.
         35    2    1    2    0    0 -0.71054273576E-14  0.00000000000E+00 -0.10947336416E+04  0.11256638271E+04  0.26206355256E+03 0.  0.
         25    2    3    3    0    0 -0.24712981592E+02 -0.25998901159E+02 -0.63307482648E+03  0.64633519627E+03  0.12521491803E+03 0.  0.
         25    2    3    3    0    0  0.24712981592E+02  0.25998901159E+02 -0.46165881510E+03  0.47932863080E+03  0.12385637015E+03 0.  0.
          5    1    4    4  502    0 -0.74089700469E+02 -0.12492579538E+02 -0.44677460886E+03  0.45307283011E+03  0.47000000000E+01 0. -1.
         -5    1    4    4    0  502  0.49376718877E+02 -0.13506321620E+02 -0.18630021762E+03  0.19326236616E+03  0.47000000000E+01 0. -1.
          5    1    5    5  503    0 -0.40937171997E+02 -0.21554793308E+02 -0.13734310779E+03  0.14500234627E+03  0.47000000000E+01 0.  1.
         -5    1    5    5    0  503  0.65650153589E+02  0.47553694467E+02 -0.32431570730E+03  0.33432628453E+03  0.47000000000E+01 0.  1.
<mgrwt>
<rscale>  0 0.26206355E+03</rscale>
<asrwt>0</asrwt>
<pdfrwt beam="1">  1        2 0.17079981E+00 0.26206355E+03</pdfrwt>
<pdfrwt beam="2">  1       -2 0.23792449E-02 0.26206355E+03</pdfrwt>
<totfact> 0.13422595E+04</totfact>
</mgrwt>
</event>
<event>
 9    1  0.7997082E-001  0.2774488E+03  0.7818608E-02  0.1097091E+00
         -2   -1    0    0    0  501 -0.00000000000E+00  0.00000000000E+00  0.13853442389E+02  0.13853442389E+02  0.00000000000E+00 0. -1.
          2   -1    0    0  501    0  0.00000000000E+00 -0.00000000000E+00 -0.13891462218E+04  0.13891462218E+04  0.00000000000E+00 0. -1.
         35    2    1    2    0    0  0.00000000000E+00  0.71054273576E-14 -0.13752927794E+04  0.14029996642E+04  0.27744878557E+03 0.  0.
         25    2    3    3    0    0 -0.57458188518E+02 -0.44095751662E+01 -0.58680517693E+03  0.60268825176E+03  0.12478752088E+03 0.  0.
         25    2    3    3    0    0  0.57458188518E+02  0.44095751662E+01 -0.78848760248E+03  0.80031141242E+03  0.12435742761E+03 0.  0.
          5    1    4    4  502    0 -0.69423299707E+02  0.37805118919E+02 -0.48924073904E+03  0.49560812372E+03  0.47000000000E+01 0. -1.
         -5    1    4    4    0  502  0.11965111189E+02 -0.42214694085E+02 -0.97564437886E+02  0.10708012805E+03  0.47000000000E+01 0. -1.
          5    1    5    5  503    0  0.15607001279E+02 -0.48449613469E+02 -0.55182809491E+03  0.55419065299E+03  0.47000000000E+01 0. -1.
         -5    1    5    5    0  503  0.41851187240E+02  0.52859188636E+02 -0.23665950757E+03  0.24612075942E+03  0.47000000000E+01 0. -1.
<mgrwt>
<rscale>  0 0.27744879E+03</rscale>
<asrwt>0</asrwt>
<pdfrwt beam="1">  1        2 0.21371482E+00 0.27744879E+03</pdfrwt>
<pdfrwt beam="2">  1       -2 0.21312987E-02 0.27744879E+03</pdfrwt>
<totfact> 0.11025692E+04</totfact>
</mgrwt>
</event>
<event>
 9    1  0.7997082E-001  0.2762648E+03  0.7818608E-02  0.1097747E+00
          1   -1    0    0  501    0  0.00000000000E+00  0.00000000000E+00  0.26103271561E+04  0.26103271561E+04  0.00000000000E+00 0.  1.
         -1   -1    0    0    0  501 -0.00000000000E+00 -0.00000000000E+00 -0.73096406044E+01  0.73096406044E+01  0.00000000000E+00 0.  1.
         35    2    1    2    0    0  0.00000000000E+00 -0.35527136788E-14  0.26030175155E+04  0.26176367967E+04  0.27626475252E+03 0.  0.
         25    2    3    3    0    0 -0.53582551283E+02 -0.19510651898E+02  0.14450268293E+04  0.14517249031E+04  0.12708619646E+03 0.  0.
         25    2    3    3    0    0  0.53582551283E+02  0.19510651898E+02  0.11579906862E+04  0.11659118936E+04  0.12311116588E+03 0.  0.
          5    1    4    4  502    0 -0.50831421907E+02 -0.52925071865E+01  0.14278479063E+04  0.14287699526E+04  0.47000000000E+01 0. -1.
         -5    1    4    4    0  502 -0.27511293763E+01 -0.14218144712E+02  0.17178923069E+02  0.22954950440E+02  0.47000000000E+01 0. -1.
          5    1    5    5  503    0  0.18514132960E+02 -0.58701597303E+00  0.21790698025E+02  0.28983481976E+02  0.47000000000E+01 0.  1.
         -5    1    5    5    0  503  0.35068418323E+02  0.20097667871E+02  0.11361999881E+04  0.11369284117E+04  0.47000000000E+01 0.  1.
<mgrwt>
<rscale>  0 0.27626475E+03</rscale>
<asrwt>0</asrwt>
<pdfrwt beam="1">  1        1 0.40158805E+00 0.27626475E+03</pdfrwt>
<pdfrwt beam="2">  1       -1 0.11245622E-02 0.27626475E+03</pdfrwt>
<totfact> 0.21229966E+03</totfact>
</mgrwt>
</event>
<event>
 9    1  0.7997082E-001  0.2763325E+03  0.7818608E-02  0.1097709E+00
          2   -1    0    0  501    0  0.00000000000E+00  0.00000000000E+00  0.70490576031E+03  0.70490576031E+03  0.00000000000E+00 0.  1.
         -2   -1    0    0    0  501 -0.00000000000E+00 -0.00000000000E+00 -0.27081508764E+02  0.27081508764E+02  0.00000000000E+00 0.  1.
         35    2    1    2    0    0  0.71054273576E-14  0.00000000000E+00  0.67782425155E+03  0.73198726908E+03  0.27633249194E+03 0.  0.
         25    2    3    3    0    0  0.45942163461E+02  0.31823649198E+02  0.39602520313E+03  0.41899045843E+03  0.12487439974E+03 0.  0.
         25    2    3    3    0    0 -0.45942163461E+02 -0.31823649198E+02  0.28179904842E+03  0.31299681065E+03  0.12422911395E+03 0.  0.
          5    1    4    4  502    0 -0.13461370710E+02  0.59135890373E+01  0.31384827160E+03  0.31422763504E+03  0.47000000000E+01 0. -1.
         -5    1    4    4    0  502  0.59403534171E+02  0.25910060161E+02  0.82176931534E+02  0.10476282340E+03  0.47000000000E+01 0. -1.
          5    1    5    5  503    0 -0.40815542056E+02 -0.28639601968E+02  0.24804008660E+02  0.55887960419E+02  0.47000000000E+01 0.  1.
         -5    1    5    5    0  503 -0.51266214046E+01 -0.31840472305E+01  0.25699503976E+03  0.25710885023E+03  0.47000000000E+01 0.  1.
<mgrwt>
<rscale>  0 0.27633249E+03</rscale>
<asrwt>0</asrwt>
<pdfrwt beam="1">  1        2 0.10844703E+00 0.27633249E+03</pdfrwt>
<pdfrwt beam="2">  1       -2 0.41663865E-02 0.27633249E+03</pdfrwt>
<totfact> 0.10705401E+04</totfact>
</mgrwt>
</event>
<event>
 9    1  0.7997082E-001  0.2773777E+03  0.7818608E-02  0.1097130E+00
          1   -1    0    0  501    0  0.00000000000E+00  0.00000000000E+00  0.16956604467E+04  0.16956604467E+04  0.00000000000E+00 0. -1.
         -1   -1    0    0    0  501 -0.00000000000E+00 -0.00000000000E+00 -0.11343428389E+02  0.11343428389E+02  0.00000000000E+00 0. -1.
         35    2    1    2    0    0  0.00000000000E+00  0.35527136788E-14  0.16843170183E+04  0.17070038751E+04  0.27737774135E+03 0.  0.
         25    2    3    3    0    0 -0.23700543256E+02  0.26091956204E+01  0.11633083463E+04  0.11704554207E+04  0.12692934884E+03 0.  0.
         25    2    3    3    0    0  0.23700543256E+02 -0.26091956204E+01  0.52100867198E+03  0.53654845437E+03  0.12595905666E+03 0.  0.
          5    1    4    4  502    0  0.18747811308E+02  0.17829938052E+02  0.52454084608E+02  0.58676299405E+02  0.47000000000E+01 0.  1.
         -5    1    4    4    0  502 -0.42448354564E+02 -0.15220742431E+02  0.11108542617E+04  0.11117791213E+04  0.47000000000E+01 0.  1.
          5    1    5    5  503    0 -0.43719310553E+02 -0.26828931976E+02  0.14836912783E+03  0.15705622496E+03  0.47000000000E+01 0. -1.
         -5    1    5    5    0  503  0.67419853809E+02  0.24219736356E+02  0.37263954415E+03  0.37949222941E+03  0.47000000000E+01 0. -1.
<mgrwt>
<rscale>  0 0.27737774E+03</rscale>
<asrwt>0</asrwt>
<pdfrwt beam="1">  1        1 0.26087064E+00 0.27737774E+03</pdfrwt>
<pdfrwt beam="2">  1       -1 0.17451442E-02 0.27737774E+03</pdfrwt>
<totfact> 0.44539418E+03</totfact>
</mgrwt>
</event>
<event>
 9    1  0.7997082E-001  0.2778378E+03  0.7818608E-02  0.1096876E+00
         -2   -1    0    0    0  501 -0.00000000000E+00  0.00000000000E+00  0.37669506852E+03  0.37669506852E+03  0.00000000000E+00 0. -1.
          2   -1    0    0  501    0  0.00000000000E+00 -0.00000000000E+00 -0.51231001318E+02  0.51231001318E+02  0.00000000000E+00 0. -1.
         35    2    1    2    0    0 -0.71054273576E-14  0.71054273576E-14  0.32546406720E+03  0.42792606984E+03  0.27783783437E+03 0.  0.
         25    2    3    3    0    0 -0.37563157424E+02  0.45088703749E+02  0.18657486474E+03  0.23202572673E+03  0.12482698310E+03 0.  0.
         25    2    3    3    0    0  0.37563157424E+02 -0.45088703749E+02  0.13888920246E+03  0.19590034311E+03  0.12507098732E+03 0.  0.
          5    1    4    4  502    0  0.28522862429E+02  0.27568886591E+02  0.79818002580E+01  0.40735688583E+02  0.47000000000E+01 0. -1.
         -5    1    4    4    0  502 -0.66086019853E+02  0.17519817158E+02  0.17859306448E+03  0.19129003815E+03  0.47000000000E+01 0. -1.
          5    1    5    5  503    0 -0.27001854689E+02  0.10993067799E+02 -0.34990242116E+01  0.29736860405E+02  0.47000000000E+01 0.  1.
         -5    1    5    5    0  503  0.64565012113E+02 -0.56081771548E+02  0.14238822668E+03  0.16616348271E+03  0.47000000000E+01 0.  1.
<mgrwt>
<rscale>  0 0.27783783E+03</rscale>
<asrwt>0</asrwt>
<pdfrwt beam="1">  1        2 0.78816928E-02 0.27783783E+03</pdfrwt>
<pdfrwt beam="2">  1       -2 0.57953086E-01 0.27783783E+03</pdfrwt>
<totfact> 0.24574486E+03</totfact>
</mgrwt>
</event>
<event>
 9    1  0.7997082E-001  0.2716998E+03  0.7818608E-02  0.1100311E+00
          1   -1    0    0  501    0  0.00000000000E+00  0.00000000000E+00  0.67291766122E+03  0.67291766122E+03  0.00000000000E+00 0.  1.
         -1   -1    0    0    0  501 -0.00000000000E+00 -0.00000000000E+00 -0.27425642140E+02  0.27425642140E+02  0.00000000000E+00 0.  1.
         35    2    1    2    0    0  0.00000000000E+00 -0.71054273576E-14  0.64549201908E+03  0.70034330336E+03  0.27169982677E+03 0.  0.
         25    2    3    3    0    0 -0.39137702233E+01 -0.42108667233E+02  0.23709240670E+03  0.27129460532E+03  0.12489794276E+03 0.  0.
         25    2    3    3    0    0  0.39137702233E+01  0.42108667233E+02  0.40839961238E+03  0.42904869804E+03  0.12451539843E+03 0.  0.
          5    1    4    4  502    0  0.35500818173E+02 -0.24222188812E+02  0.22050642308E+03  0.22470468429E+03  0.47000000000E+01 0. -1.
         -5    1    4    4    0  502 -0.39414588397E+02 -0.17886478422E+02  0.16585983620E+02  0.46589921029E+02  0.47000000000E+01 0. -1.
          5    1    5    5  503    0 -0.52583872143E+02 -0.42858998125E+01  0.23340099997E+03  0.23933564158E+03  0.47000000000E+01 0.  1.
         -5    1    5    5    0  503  0.56497642366E+02  0.46394567046E+02  0.17499861241E+03  0.18971305646E+03  0.47000000000E+01 0.  1.
<mgrwt>
<rscale>  0 0.27169983E+03</rscale>
<asrwt>0</asrwt>
<pdfrwt beam="1">  1        1 0.10352578E+00 0.27169983E+03</pdfrwt>
<pdfrwt beam="2">  1       -1 0.42193301E-02 0.27169983E+03</pdfrwt>
<totfact> 0.67574410E+03</totfact>
</mgrwt>
</event>
<event>
 9    1  0.7997082E-001  0.2701517E+03  0.7818608E-02  0.1101193E+00
         -2   -1    0    0    0  501 -0.00000000000E+00  0.00000000000E+00  0.23047829695E+03  0.23047829695E+03  0.00000000000E+00 0.  1.
          2   -1    0    0  501    0  0.00000000000E+00 -0.00000000000E+00 -0.79163580303E+02  0.79163580303E+02  0.00000000000E+00 0.  1.
         35    2    1    2    0    0 -0.71054273576E-14 -0.17763568394E-14  0.15131471664E+03  0.30964187725E+03  0.27015171418E+03 0.  0.
         25    2    3    3    0    0  0.47366841358E+02 -0.92900019769E+01  0.95339704649E+02  0.16415617201E+03  0.12461006272E+03 0.  0.
         25    2    3    3    0    0 -0.47366841358E+02  0.92900019769E+01  0.55975011993E+02  0.14548570523E+03  0.12531147858E+03 0.  0.
          5    1    4    4  502    0 -0.24862745454E+02  0.53393085592E+01 -0.16105404373E+02  0.30465363569E+02  0.47000000000E+01 0. -1.
         -5    1    4    4    0  502  0.72229586812E+02 -0.14629310536E+02  0.11144510902E+03  0.13369080845E+03  0.47000000000E+01 0. -1.
          5    1    5    5  503    0 -0.58577818329E+02 -0.14255224838E+02 -0.21050590657E+02  0.64029599423E+02  0.47000000000E+01 0.  1.
         -5    1    5    5    0  503  0.11210976970E+02  0.23545226814E+02  0.77025602649E+02  0.81456105811E+02  0.47000000000E+01 0.  1.
<mgrwt>
<rscale>  0 0.27015171E+03</rscale>
<asrwt>0</asrwt>
<pdfrwt beam="1">  1        2 0.12179012E-01 0.27015171E+03</pdfrwt>
<pdfrwt beam="2">  1       -2 0.35458199E-01 0.27015171E+03</pdfrwt>
<totfact> 0.37386290E+03</totfact>
</mgrwt>
</event>
<event>
 9    1  0.7997082E-001  0.2734313E+03  0.7818608E-02  0.1099332E+00
         -2   -1    0    0    0  501 -0.00000000000E+00  0.00000000000E+00  0.15609903252E+02  0.15609903252E+02  0.00000000000E+00 0. -1.
          2   -1    0    0  501    0  0.00000000000E+00 -0.00000000000E+00 -0.11973918076E+04  0.11973918076E+04  0.00000000000E+00 0. -1.
         35    2    1    2    0    0  0.00000000000E+00  0.71054273576E-14 -0.11817819044E+04  0.12130017109E+04  0.27343130963E+03 0.  0.
         25    2    3    3    0    0 -0.28430783928E+02 -0.50661843994E+02 -0.53847797134E+03  0.55519268550E+03  0.12208792118E+03 0.  0.
         25    2    3    3    0    0  0.28430783928E+02  0.50661843994E+02 -0.64330393305E+03  0.65780902540E+03  0.12449028760E+03 0.  0.
          5    1    4    4  502    0 -0.30930762642E+01 -0.37598103854E+02 -0.37558765210E+02  0.53440952258E+02  0.47000000000E+01 0. -1.
         -5    1    4    4    0  502 -0.25337707664E+02 -0.13063740140E+02 -0.50091920613E+03  0.50175173324E+03  0.47000000000E+01 0. -1.
          5    1    5    5  503    0  0.39006322765E+02 -0.19626114181E+02 -0.92257076727E+02  0.10217698263E+03  0.47000000000E+01 0. -1.
         -5    1    5    5    0  503 -0.10575538836E+02  0.70287958175E+02 -0.55104685632E+03  0.55563204276E+03  0.47000000000E+01 0. -1.
<mgrwt>
<rscale>  0 0.27343131E+03</rscale>
<asrwt>0</asrwt>
<pdfrwt beam="1">  1        2 0.18421416E+00 0.27343131E+03</pdfrwt>
<pdfrwt beam="2">  1       -2 0.24015231E-02 0.27343131E+03</pdfrwt>
<totfact> 0.11808731E+04</totfact>
</mgrwt>
</event>
<event>
 9    1  0.7997082E-001  0.2783808E+03  0.7818608E-02  0.1096577E+00
          2   -1    0    0  501    0  0.00000000000E+00  0.00000000000E+00  0.42879888891E+03  0.42879888891E+03  0.00000000000E+00 0. -1.
         -2   -1    0    0    0  501 -0.00000000000E+00 -0.00000000000E+00 -0.45181944886E+02  0.45181944886E+02  0.00000000000E+00 0. -1.
         35    2    1    2    0    0 -0.71054273576E-14 -0.14210854715E-13  0.38361694403E+03  0.47398083380E+03  0.27838080226E+03 0.  0.
         25    2    3    3    0    0  0.46415819905E+02  0.35726150627E+02  0.22022702873E+03  0.25990435676E+03  0.12497817530E+03 0.  0.
         25    2    3    3    0    0 -0.46415819905E+02 -0.35726150627E+02  0.16338991529E+03  0.21407647704E+03  0.12530637425E+03 0.  0.
          5    1    4    4  502    0 -0.19533400712E+02  0.70216779981E+01  0.17169639808E+03  0.17301040668E+03  0.47000000000E+01 0.  1.
         -5    1    4    4    0  502  0.65949220617E+02  0.28704472629E+02  0.48530630652E+02  0.86893950080E+02  0.47000000000E+01 0.  1.
          5    1    5    5  503    0  0.11960852579E+02  0.32612790798E+02  0.10376962469E+02  0.36557180801E+02  0.47000000000E+01 0. -1.
         -5    1    5    5    0  503 -0.58376672484E+02 -0.68338941425E+02  0.15301295283E+03  0.17751929624E+03  0.47000000000E+01 0. -1.
<mgrwt>
<rscale>  0 0.27838080E+03</rscale>
<asrwt>0</asrwt>
<pdfrwt beam="1">  1        2 0.65969057E-01 0.27838080E+03</pdfrwt>
<pdfrwt beam="2">  1       -2 0.69510687E-02 0.27838080E+03</pdfrwt>
<totfact> 0.86605976E+03</totfact>
</mgrwt>
</event>
<event>
 9    1  0.7997082E-001  0.2703774E+03  0.7818608E-02  0.1101064E+00
         -2   -1    0    0    0  501 -0.00000000000E+00  0.00000000000E+00  0.93509538392E+01  0.93509538392E+01  0.00000000000E+00 0. -1.
          2   -1    0    0  501    0  0.00000000000E+00 -0.00000000000E+00 -0.19544510461E+04  0.19544510461E+04  0.00000000000E+00 0. -1.
         35    2    1    2    0    0  0.00000000000E+00 -0.71054273576E-14 -0.19451000923E+04  0.19638020000E+04  0.27037737711E+03 0.  0.
         25    2    3    3    0    0 -0.44303186077E+02  0.86842854274E+01 -0.11333725019E+04  0.11412574511E+04  0.12608391072E+03 0.  0.
         25    2    3    3    0    0  0.44303186077E+02 -0.86842854274E+01 -0.81172759044E+03  0.82254454891E+03  0.12505864522E+03 0.  0.
          5    1    4    4  502    0 -0.29617035893E+02 -0.41403522860E+02 -0.20052899659E+03  0.20694296072E+03  0.47000000000E+01 0.  1.
         -5    1    4    4    0  502 -0.14686150185E+02  0.50087808287E+02 -0.93284350527E+03  0.93431449035E+03  0.47000000000E+01 0.  1.
          5    1    5    5  503    0  0.20426941815E+02  0.57921043494E+02 -0.41123666212E+03  0.41582422910E+03  0.47000000000E+01 0.  1.
         -5    1    5    5    0  503  0.23876244263E+02 -0.66605328922E+02 -0.40049092832E+03  0.40672031981E+03  0.47000000000E+01 0.  1.
<mgrwt>
<rscale>  0 0.27037738E+03</rscale>
<asrwt>0</asrwt>
<pdfrwt beam="1">  1        2 0.30068472E+00 0.27037738E+03</pdfrwt>
<pdfrwt beam="2">  1       -2 0.14386085E-02 0.27037738E+03</pdfrwt>
<totfact> 0.98443001E+03</totfact>
</mgrwt>
</event>
<event>
 9    1  0.7997082E-001  0.2742677E+03  0.7818608E-02  0.1098862E+00
         -2   -1    0    0    0  501 -0.00000000000E+00  0.00000000000E+00  0.70178350115E+02  0.70178350115E+02  0.00000000000E+00 0.  1.
          2   -1    0    0  501    0  0.00000000000E+00 -0.00000000000E+00 -0.26797006321E+03  0.26797006321E+03  0.00000000000E+00 0.  1.
         35    2    1    2    0    0  0.00000000000E+00 -0.71054273576E-14 -0.19779171310E+03  0.33814841333E+03  0.27426772990E+03 0.  0.
         25    2    3    3    0    0  0.24501746332E+02  0.46086917309E+02 -0.12901864247E+03  0.18621052794E+03  0.12371018993E+03 0.  0.
         25    2    3    3    0    0 -0.24501746332E+02 -0.46086917309E+02 -0.68773070629E+02  0.15193788538E+03  0.12502418267E+03 0.  0.
          5    1    4    4  502    0  0.28070519524E+02  0.75165665602E+02 -0.13387052073E+03  0.15614492522E+03  0.47000000000E+01 0.  1.
         -5    1    4    4    0  502 -0.35687731919E+01 -0.29078748292E+02  0.48518782623E+01  0.30065602722E+02  0.47000000000E+01 0.  1.
          5    1    5    5  503    0  0.30913572567E+02 -0.68399928959E+02 -0.32831269254E+02  0.82062058780E+02  0.47000000000E+01 0. -1.
         -5    1    5    5    0  503 -0.55415318899E+02  0.22313011650E+02 -0.35941801375E+02  0.69875826605E+02  0.47000000000E+01 0. -1.
<mgrwt>
<rscale>  0 0.27426773E+03</rscale>
<asrwt>0</asrwt>
<pdfrwt beam="1">  1        2 0.41226164E-01 0.27426773E+03</pdfrwt>
<pdfrwt beam="2">  1       -2 0.10796669E-01 0.27426773E+03</pdfrwt>
<totfact> 0.71975390E+03</totfact>
</mgrwt>
</event>
<event>
 9    1  0.7997082E-001  0.2704744E+03  0.7818608E-02  0.1101008E+00
          1   -1    0    0  501    0  0.00000000000E+00  0.00000000000E+00  0.19850938948E+02  0.19850938948E+02  0.00000000000E+00 0. -1.
         -1   -1    0    0    0  501 -0.00000000000E+00 -0.00000000000E+00 -0.92132155587E+03  0.92132155587E+03  0.00000000000E+00 0. -1.
         35    2    1    2    0    0  0.00000000000E+00 -0.35527136788E-14 -0.90147061692E+03  0.94117249481E+03  0.27047438294E+03 0.  0.
         25    2    3    3    0    0  0.30052743217E+02  0.13221859231E+02 -0.58413862470E+03  0.59825858415E+03  0.12496965918E+03 0.  0.
         25    2    3    3    0    0 -0.30052743217E+02 -0.13221859231E+02 -0.31733199222E+03  0.34291391066E+03  0.12574725405E+03 0.  0.
          5    1    4    4  502    0  0.60321102025E+02  0.51885539432E+02 -0.34533718268E+03  0.35441586349E+03  0.47000000000E+01 0.  1.
         -5    1    4    4    0  502 -0.30268358807E+02 -0.38663680202E+02 -0.23880144202E+03  0.24384272067E+03  0.47000000000E+01 0.  1.
          5    1    5    5  503    0 -0.69072357265E+02 -0.26632584293E+02 -0.11857916750E+03  0.13986920336E+03  0.47000000000E+01 0. -1.
         -5    1    5    5    0  503  0.39019614047E+02  0.13410725063E+02 -0.19875282472E+03  0.20304470730E+03  0.47000000000E+01 0. -1.
<mgrwt>
<rscale>  0 0.27047438E+03</rscale>
<asrwt>0</asrwt>
<pdfrwt beam="1">  1        1 0.30539911E-02 0.27047438E+03</pdfrwt>
<pdfrwt beam="2">  1       -1 0.14174175E+00 0.27047438E+03</pdfrwt>
<totfact> 0.14545320E+03</totfact>
</mgrwt>
</event>
<event>
 9    1  0.7997082E-001  0.2726675E+03  0.7818608E-02  0.1099763E+00
          4   -1    0    0  501    0  0.00000000000E+00  0.00000000000E+00  0.14014602311E+03  0.14014602311E+03  0.00000000000E+00 0.  1.
         -4   -1    0    0    0  501 -0.00000000000E+00 -0.00000000000E+00 -0.13262516230E+03  0.13262516230E+03  0.00000000000E+00 0.  1.
         35    2    1    2    0    0  0.00000000000E+00 -0.71054273576E-14  0.75208608072E+01  0.27277118541E+03  0.27266748292E+03 0.  0.
         25    2    3    3    0    0  0.47512364366E+01  0.43512238648E+02 -0.30566517026E+02  0.13540828564E+03  0.12443955439E+03 0.  0.
         25    2    3    3    0    0 -0.47512364366E+01 -0.43512238648E+02  0.38087377834E+02  0.13736289977E+03  0.12450714326E+03 0.  0.
          5    1    4    4  502    0 -0.53955744925E+02 -0.62233654306E+01 -0.17251597319E+02  0.57180943485E+02  0.47000000000E+01 0.  1.
         -5    1    4    4    0  502  0.58706981362E+02  0.49735604079E+02 -0.13314919707E+02  0.78227342154E+02  0.47000000000E+01 0.  1.
          5    1    5    5  503    0  0.30573198536E+02  0.27654314510E+02  0.40162187463E+02  0.57745760723E+02  0.47000000000E+01 0. -1.
         -5    1    5    5    0  503 -0.35324434972E+02 -0.71166553158E+02 -0.20748096294E+01  0.79617139044E+02  0.47000000000E+01 0. -1.
<mgrwt>
<rscale>  0 0.27266748E+03</rscale>
<asrwt>0</asrwt>
<pdfrwt beam="1">  1        4 0.21560927E-01 0.27266748E+03</pdfrwt>
<pdfrwt beam="2">  1       -4 0.20403871E-01 0.27266748E+03</pdfrwt>
<totfact> 0.80214326E+02</totfact>
</mgrwt>
</event>
<event>
 9    1  0.7997082E-001  0.2711172E+03  0.7818608E-02  0.1100642E+00
         -2   -1    0    0    0  501 -0.00000000000E+00  0.00000000000E+00  0.98497617527E+01  0.98497617527E+01  0.00000000000E+00 0.  1.
          2   -1    0    0  501    0  0.00000000000E+00 -0.00000000000E+00 -0.18656427853E+04  0.18656427853E+04  0.00000000000E+00 0.  1.
         35    2    1    2    0    0  0.00000000000E+00  0.17763568394E-14 -0.18557930235E+04  0.18754925470E+04  0.27111722152E+03 0.  0.
         25    2    3    3    0    0 -0.44474801276E+02  0.64087092860E+01 -0.82293861442E+03  0.83411977316E+03  0.12848639372E+03 0.  0.
         25    2    3    3    0    0  0.44474801276E+02 -0.64087092860E+01 -0.10328544091E+04  0.10413727739E+04  0.12509973719E+03 0.  0.
          5    1    4    4  502    0  0.41171285694E+02 -0.10902121028E+02 -0.39562881640E+03  0.39794243475E+03  0.47000000000E+01 0.  1.
         -5    1    4    4    0  502 -0.85646086970E+02  0.17310830314E+02 -0.42730979801E+03  0.43617733840E+03  0.47000000000E+01 0.  1.
          5    1    5    5  503    0 -0.39058152984E+02  0.91420114533E+01 -0.51418009957E+03  0.51576388055E+03  0.47000000000E+01 0.  1.
         -5    1    5    5    0  503  0.83532954260E+02 -0.15550720739E+02 -0.51867430955E+03  0.52560889333E+03  0.47000000000E+01 0.  1.
<mgrwt>
<rscale>  0 0.27111722E+03</rscale>
<asrwt>0</asrwt>
<pdfrwt beam="1">  1        2 0.28702186E+00 0.27111722E+03</pdfrwt>
<pdfrwt beam="2">  1       -2 0.15153485E-02 0.27111722E+03</pdfrwt>
<totfact> 0.10158014E+04</totfact>
</mgrwt>
</event>
<event>
 9    1  0.7997082E-001  0.2648615E+03  0.7818608E-02  0.1104257E+00
         -1   -1    0    0    0  501 -0.00000000000E+00  0.00000000000E+00  0.12399611620E+03  0.12399611620E+03  0.00000000000E+00 0.  1.
          1   -1    0    0  501    0  0.00000000000E+00 -0.00000000000E+00 -0.14143916729E+03  0.14143916729E+03  0.00000000000E+00 0.  1.
         35    2    1    2    0    0 -0.71054273576E-14  0.00000000000E+00 -0.17443051090E+02  0.26543528350E+03  0.26486152928E+03 0.  0.
         25    2    3    3    0    0  0.26456979018E+02  0.83515727693E+01  0.24490310161E+02  0.12995958983E+03  0.12457928877E+03 0.  0.
         25    2    3    3    0    0 -0.26456979018E+02 -0.83515727693E+01 -0.41933361251E+02  0.13547569367E+03  0.12579958777E+03 0.  0.
          5    1    4    4  502    0 -0.21121225643E+02 -0.43932537914E+02  0.32327160935E+02  0.58679718765E+02  0.47000000000E+01 0.  1.
         -5    1    4    4    0  502  0.47578204662E+02  0.52284110684E+02 -0.78368507737E+01  0.71279871064E+02  0.47000000000E+01 0.  1.
          5    1    5    5  503    0  0.35219106271E+02  0.35540837505E+02 -0.30463037915E+02  0.58767535733E+02  0.47000000000E+01 0. -1.
         -5    1    5    5    0  503 -0.61676085289E+02 -0.43892410274E+02 -0.11470323336E+02  0.76708157935E+02  0.47000000000E+01 0. -1.
<mgrwt>
<rscale>  0 0.26486153E+03</rscale>
<asrwt>0</asrwt>
<pdfrwt beam="1">  1        1 0.21759872E-01 0.26486153E+03</pdfrwt>
<pdfrwt beam="2">  1       -1 0.19076326E-01 0.26486153E+03</pdfrwt>
<totfact> 0.49429235E+03</totfact>
</mgrwt>
</event>
<event>
 9    1  0.7997082E-001  0.2801012E+03  0.7818608E-02  0.1095634E+00
         -2   -1    0    0    0  501 -0.00000000000E+00  0.00000000000E+00  0.14837415683E+02  0.14837415683E+02  0.00000000000E+00 0. -1.
          2   -1    0    0  501    0  0.00000000000E+00 -0.00000000000E+00 -0.13219396159E+04  0.13219396159E+04  0.00000000000E+00 0. -1.
         35    2    1    2    0    0 -0.71054273576E-14 -0.14210854715E-13 -0.13071022003E+04  0.13367770316E+04  0.28010117879E+03 0.  0.
         25    2    3    3    0    0  0.27769031949E+02  0.55787602395E+02 -0.69925743500E+03  0.71311212258E+03  0.12523802637E+03 0.  0.
         25    2    3    3    0    0 -0.27769031949E+02 -0.55787602395E+02 -0.60784476527E+03  0.62366490906E+03  0.12489709528E+03 0.  0.
          5    1    4    4  502    0  0.62255322044E+02  0.52213361704E+01 -0.51727040036E+03  0.52105061612E+03  0.47000000000E+01 0. -1.
         -5    1    4    4    0  502 -0.34486290095E+02  0.50566266224E+02 -0.18198703464E+03  0.19206150645E+03  0.47000000000E+01 0. -1.
          5    1    5    5  503    0  0.37680551796E+02 -0.13295163615E+00 -0.76578976115E+02  0.85476729246E+02  0.47000000000E+01 0. -1.
         -5    1    5    5    0  503 -0.65449583745E+02 -0.55654650759E+02 -0.53126578915E+03  0.53818817981E+03  0.47000000000E+01 0. -1.
<mgrwt>
<rscale>  0 0.28010118E+03</rscale>
<asrwt>0</asrwt>
<pdfrwt beam="1">  1        2 0.20337536E+00 0.28010118E+03</pdfrwt>
<pdfrwt beam="2">  1       -2 0.22826789E-02 0.28010118E+03</pdfrwt>
<totfact> 0.10847952E+04</totfact>
</mgrwt>
</event>
<event>
 9    1  0.7997082E-001  0.2730253E+03  0.7818608E-02  0.1099561E+00
          2   -1    0    0  501    0  0.00000000000E+00  0.00000000000E+00  0.68496242092E+03  0.68496242092E+03  0.00000000000E+00 0.  1.
         -2   -1    0    0    0  501 -0.00000000000E+00 -0.00000000000E+00 -0.27206896009E+02  0.27206896009E+02  0.00000000000E+00 0.  1.
         35    2    1    2    0    0  0.00000000000E+00  0.00000000000E+00  0.65775552491E+03  0.71216931693E+03  0.27302528349E+03 0.  0.
         25    2    3    3    0    0 -0.22126925419E+02 -0.43033997381E+02  0.34846760015E+03  0.37516767591E+03  0.13030575940E+03 0.  0.
         25    2    3    3    0    0  0.22126925419E+02  0.43033997381E+02  0.30928792476E+03  0.33700164103E+03  0.12477804250E+03 0.  0.
          5    1    4    4  502    0 -0.21282737985E+02 -0.68681547024E+02  0.89558276224E+02  0.11494731262E+03  0.47000000000E+01 0. -1.
         -5    1    4    4    0  502 -0.84418743385E+00  0.25647549643E+02  0.25890932393E+03  0.26022036329E+03  0.47000000000E+01 0. -1.
          5    1    5    5  503    0 -0.30533510937E+02  0.55212214818E+01  0.13448251725E+02  0.34142710075E+02  0.47000000000E+01 0.  1.
         -5    1    5    5    0  503  0.52660436356E+02  0.37512775899E+02  0.29583967304E+03  0.30285893095E+03  0.47000000000E+01 0.  1.
<mgrwt>
<rscale>  0 0.27302528E+03</rscale>
<asrwt>0</asrwt>
<pdfrwt beam="1">  1        2 0.10537882E+00 0.27302528E+03</pdfrwt>
<pdfrwt beam="2">  1       -2 0.41856768E-02 0.27302528E+03</pdfrwt>
<totfact> 0.11002163E+04</totfact>
</mgrwt>
</event>
<event>
 9    1  0.7997082E-001  0.2730910E+03  0.7818608E-02  0.1099523E+00
          1   -1    0    0  501    0  0.00000000000E+00  0.00000000000E+00  0.10558896750E+04  0.10558896750E+04  0.00000000000E+00 0. -1.
         -1   -1    0    0    0  501 -0.00000000000E+00 -0.00000000000E+00 -0.17657782403E+02  0.17657782403E+02  0.00000000000E+00 0. -1.
         35    2    1    2    0    0  0.35527136788E-14  0.35527136788E-14  0.10382318926E+04  0.10735474574E+04  0.27309097475E+03 0.  0.
         25    2    3    3    0    0  0.14096815199E+02  0.12578637942E+02  0.30805525029E+03  0.33299476628E+03  0.12502213727E+03 0.  0.
         25    2    3    3    0    0 -0.14096815199E+02 -0.12578637942E+02  0.73017664230E+03  0.74055269111E+03  0.12207955204E+03 0.  0.
          5    1    4    4  502    0  0.11318093279E+02 -0.25893614241E+02  0.28771057975E+03  0.28913326718E+03  0.47000000000E+01 0. -1.
         -5    1    4    4    0  502  0.27787219191E+01  0.38472252183E+02  0.20344670542E+02  0.43861499096E+02  0.47000000000E+01 0. -1.
          5    1    5    5  503    0 -0.37647680913E+02  0.38061433682E+02  0.18931672128E+03  0.19679667571E+03  0.47000000000E+01 0.  1.
         -5    1    5    5    0  503  0.23550865714E+02 -0.50640071624E+02  0.54085992101E+03  0.54375601541E+03  0.47000000000E+01 0.  1.
<mgrwt>
<rscale>  0 0.27309097E+03</rscale>
<asrwt>0</asrwt>
<pdfrwt beam="1">  1        1 0.16244452E+00 0.27309097E+03</pdfrwt>
<pdfrwt beam="2">  1       -1 0.27165827E-02 0.27309097E+03</pdfrwt>
<totfact> 0.63431803E+03</totfact>
</mgrwt>
</event>
<event>
 9    1  0.7997082E-001  0.2763286E+03  0.7818608E-02  0.1097711E+00
          1   -1    0    0  501    0  0.00000000000E+00  0.00000000000E+00  0.51267606263E+03  0.51267606263E+03  0.00000000000E+00 0. -1.
         -1   -1    0    0    0  501 -0.00000000000E+00 -0.00000000000E+00 -0.37234776018E+02  0.37234776018E+02  0.00000000000E+00 0. -1.
         35    2    1    2    0    0  0.00000000000E+00  0.00000000000E+00  0.47544128661E+03  0.54991083865E+03  0.27632863306E+03 0.  0.
         25    2    3    3    0    0 -0.30387135465E+02  0.34036833354E+02  0.31013615496E+03  0.33767941331E+03  0.12554309035E+03 0.  0.
         25    2    3    3    0    0  0.30387135465E+02 -0.34036833354E+02  0.16530513165E+03  0.21223142534E+03  0.12503802351E+03 0.  0.
          5    1    4    4  502    0  0.45552243311E+02  0.29162901597E+02  0.16552820752E+03  0.17420436041E+03  0.47000000000E+01 0. -1.
         -5    1    4    4    0  502 -0.75939378776E+02  0.48739317569E+01  0.14460794743E+03  0.16347505290E+03  0.47000000000E+01 0. -1.
          5    1    5    5  503    0  0.75962422066E+02 -0.18640244039E+00  0.92318687477E+02  0.11964595425E+03  0.47000000000E+01 0.  1.
         -5    1    5    5    0  503 -0.45575286601E+02 -0.33850430914E+02  0.72986444178E+02  0.92585471082E+02  0.47000000000E+01 0.  1.
<mgrwt>
<rscale>  0 0.27632863E+03</rscale>
<asrwt>0</asrwt>
<pdfrwt beam="1">  1        1 0.78873236E-01 0.27632863E+03</pdfrwt>
<pdfrwt beam="2">  1       -1 0.57284274E-02 0.27632863E+03</pdfrwt>
<totfact> 0.62302308E+03</totfact>
</mgrwt>
</event>
<event>
 9    1  0.7997082E-001  0.2654627E+03  0.7818608E-02  0.1103905E+00
          1   -1    0    0  501    0  0.00000000000E+00  0.00000000000E+00  0.49152954811E+03  0.49152954811E+03  0.00000000000E+00 0. -1.
         -1   -1    0    0    0  501 -0.00000000000E+00 -0.00000000000E+00 -0.35842427286E+02  0.35842427286E+02  0.00000000000E+00 0. -1.
         35    2    1    2    0    0 -0.71054273576E-14 -0.35527136788E-14  0.45568712082E+03  0.52737197539E+03  0.26546270613E+03 0.  0.
         25    2    3    3    0    0  0.41795338598E+02  0.33092415954E+01  0.25871447675E+03  0.29059068379E+03  0.12550682698E+03 0.  0.
         25    2    3    3    0    0 -0.41795338598E+02 -0.33092415954E+01  0.19697264407E+03  0.23678129160E+03  0.12453656544E+03 0.  0.
          5    1    4    4  502    0  0.20007601955E+02 -0.59128566201E+02  0.15868516125E+03  0.17058593693E+03  0.47000000000E+01 0.  1.
         -5    1    4    4    0  502  0.21787736644E+02  0.62437807796E+02  0.10002931550E+03  0.12000474686E+03  0.47000000000E+01 0.  1.
          5    1    5    5  503    0 -0.61835303061E+02  0.62462894853E+01  0.31640087617E+02  0.69898540624E+02  0.47000000000E+01 0. -1.
         -5    1    5    5    0  503  0.20039964463E+02 -0.95555310807E+01  0.16533255646E+03  0.16688275098E+03  0.47000000000E+01 0. -1.
<mgrwt>
<rscale>  0 0.26546271E+03</rscale>
<asrwt>0</asrwt>
<pdfrwt beam="1">  1        1 0.75619926E-01 0.26546271E+03</pdfrwt>
<pdfrwt beam="2">  1       -1 0.55142199E-02 0.26546271E+03</pdfrwt>
<totfact> 0.69687902E+03</totfact>
</mgrwt>
</event>
<event>
 9    1  0.7997082E-001  0.2926770E+03  0.7818608E-02  0.1088960E+00
         -2   -1    0    0    0  501 -0.00000000000E+00  0.00000000000E+00  0.60709967331E+02  0.60709967331E+02  0.00000000000E+00 0. -1.
          2   -1    0    0  501    0  0.00000000000E+00 -0.00000000000E+00 -0.35274193835E+03  0.35274193835E+03  0.00000000000E+00 0. -1.
         35    2    1    2    0    0  0.00000000000E+00  0.00000000000E+00 -0.29203197102E+03  0.41345190568E+03  0.29267696563E+03 0.  0.
         25    2    3    3    0    0  0.13127903198E+02 -0.71623537571E+02 -0.18001150761E+03  0.23090442147E+03  0.12494173043E+03 0.  0.
         25    2    3    3    0    0 -0.13127903198E+02  0.71623537571E+02 -0.11202046340E+03  0.18254748421E+03  0.12438941592E+03 0.  0.
          5    1    4    4  502    0  0.13254138018E+02  0.32174861740E+02 -0.76817874483E+02  0.84462830539E+02  0.47000000000E+01 0. -1.
         -5    1    4    4    0  502 -0.12623482005E+00 -0.10379839931E+03 -0.10319363313E+03  0.14644159093E+03  0.47000000000E+01 0. -1.
          5    1    5    5  503    0 -0.25779004784E+02 -0.12651088796E+02 -0.89738819171E+02  0.94338501162E+02  0.47000000000E+01 0.  1.
         -5    1    5    5    0  503  0.12651101586E+02  0.84274626367E+02 -0.22281644231E+02  0.88208983048E+02  0.47000000000E+01 0.  1.
<mgrwt>
<rscale>  0 0.29267697E+03</rscale>
<asrwt>0</asrwt>
<pdfrwt beam="1">  1        2 0.54267991E-01 0.29267697E+03</pdfrwt>
<pdfrwt beam="2">  1       -2 0.93399950E-02 0.29267697E+03</pdfrwt>
<totfact> 0.67560289E+03</totfact>
</mgrwt>
</event>
<event>
 9    1  0.7997082E-001  0.2745182E+03  0.7818608E-02  0.1098721E+00
         -2   -1    0    0    0  501 -0.00000000000E+00  0.00000000000E+00  0.71224847241E+01  0.71224847241E+01  0.00000000000E+00 0.  1.
          2   -1    0    0  501    0  0.00000000000E+00 -0.00000000000E+00 -0.26451529179E+04  0.26451529179E+04  0.00000000000E+00 0.  1.
         35    2    1    2    0    0  0.71054273576E-14 -0.71054273576E-14 -0.26380304332E+04  0.26522754026E+04  0.27451820523E+03 0.  0.
         25    2    3    3    0    0 -0.39254658657E+02 -0.35959343489E+02 -0.11312980132E+04  0.11394313360E+04  0.12503828331E+03 0.  0.
         25    2    3    3    0    0  0.39254658657E+02  0.35959343489E+02 -0.15067324200E+04  0.15128440666E+04  0.12498232575E+03 0.  0.
          5    1    4    4  502    0  0.31107161859E+02  0.11494175541E+02 -0.12057808588E+03  0.12514366298E+03  0.47000000000E+01 0.  1.
         -5    1    4    4    0  502 -0.70361820516E+02 -0.47453519030E+02 -0.10107199273E+04  0.10142876730E+04  0.47000000000E+01 0.  1.
          5    1    5    5  503    0  0.20054607432E+02  0.46401140485E+02 -0.21478638963E+03  0.22070463585E+03  0.47000000000E+01 0.  1.
         -5    1    5    5    0  503  0.19200051225E+02 -0.10441796996E+02 -0.12919460304E+04  0.12921394307E+04  0.47000000000E+01 0.  1.
<mgrwt>
<rscale>  0 0.27451821E+03</rscale>
<asrwt>0</asrwt>
<pdfrwt beam="1">  1        2 0.40694693E+00 0.27451821E+03</pdfrwt>
<pdfrwt beam="2">  1       -2 0.10957660E-02 0.27451821E+03</pdfrwt>
<totfact> 0.62213003E+03</totfact>
</mgrwt>
</event>
<event>
 9    1  0.7997082E-001  0.2688386E+03  0.7818608E-02  0.1101946E+00
         -1   -1    0    0    0  501 -0.00000000000E+00  0.00000000000E+00  0.24622169267E+02  0.24622169267E+02  0.00000000000E+00 0.  1.
          1   -1    0    0  501    0  0.00000000000E+00 -0.00000000000E+00 -0.73383234515E+03  0.73383234515E+03  0.00000000000E+00 0.  1.
         35    2    1    2    0    0  0.00000000000E+00  0.35527136788E-14 -0.70921017589E+03  0.75845451442E+03  0.26883857027E+03 0.  0.
         25    2    3    3    0    0 -0.47608150626E+02 -0.95056447217E+01 -0.35967275089E+03  0.38401150677E+03  0.12547293058E+03 0.  0.
         25    2    3    3    0    0  0.47608150626E+02  0.95056447217E+01 -0.34953742500E+03  0.37444300766E+03  0.12519688982E+03 0.  0.
          5    1    4    4  502    0  0.30694978916E+02  0.83205357751E+01 -0.27714471195E+02  0.42445199492E+02  0.47000000000E+01 0.  1.
         -5    1    4    4    0  502 -0.78303129542E+02 -0.17826180497E+02 -0.33195827969E+03  0.34156630727E+03  0.47000000000E+01 0.  1.
          5    1    5    5  503    0  0.64308656069E+02 -0.38973668403E+02 -0.14359050589E+03  0.16215694082E+03  0.47000000000E+01 0. -1.
         -5    1    5    5    0  503 -0.16700505444E+02  0.48479313125E+02 -0.20594691910E+03  0.21228606683E+03  0.47000000000E+01 0. -1.
<mgrwt>
<rscale>  0 0.26883857E+03</rscale>
<asrwt>0</asrwt>
<pdfrwt beam="1">  1        1 0.11289730E+00 0.26883857E+03</pdfrwt>
<pdfrwt beam="2">  1       -1 0.37880254E-02 0.26883857E+03</pdfrwt>
<totfact> 0.69868100E+03</totfact>
</mgrwt>
</event>
<event>
 9    1  0.7997082E-001  0.2725338E+03  0.7818608E-02  0.1099838E+00
          2   -1    0    0  501    0  0.00000000000E+00  0.00000000000E+00  0.14341213046E+04  0.14341213046E+04  0.00000000000E+00 0.  1.
         -2   -1    0    0    0  501 -0.00000000000E+00 -0.00000000000E+00 -0.12947762794E+02  0.12947762794E+02  0.00000000000E+00 0.  1.
         35    2    1    2    0    0  0.00000000000E+00  0.71054273576E-14  0.14211735418E+04  0.14470690674E+04  0.27253375916E+03 0.  0.
         25    2    3    3    0    0 -0.34040394162E+02 -0.35394771988E+02  0.58544888785E+03  0.60069656525E+03  0.12519754351E+03 0.  0.
         25    2    3    3    0    0  0.34040394162E+02  0.35394771988E+02  0.83572465399E+03  0.84637250218E+03  0.12449569003E+03 0.  0.
          5    1    4    4  502    0  0.16036881743E+01  0.23352759089E+01 -0.53141842078E+01  0.76391022460E+01  0.47000000000E+01 0. -1.
         -5    1    4    4    0  502 -0.35644082336E+02 -0.37730047897E+02  0.59076307205E+03  0.59305746300E+03  0.47000000000E+01 0. -1.
          5    1    5    5  503    0 -0.16423869604E+02 -0.22035984754E+02  0.54544174828E+03  0.54615393332E+03  0.47000000000E+01 0.  1.
         -5    1    5    5    0  503  0.50464263766E+02  0.57430756742E+02  0.29028290571E+03  0.30021856886E+03  0.47000000000E+01 0.  1.
<mgrwt>
<rscale>  0 0.27253376E+03</rscale>
<asrwt>0</asrwt>
<pdfrwt beam="1">  1        2 0.22063392E+00 0.27253376E+03</pdfrwt>
<pdfrwt beam="2">  1       -2 0.19919646E-02 0.27253376E+03</pdfrwt>
<totfact> 0.11510250E+04</totfact>
</mgrwt>
</event>
<event>
 9    1  0.7997082E-001  0.2782298E+03  0.7818608E-02  0.1096660E+00
         -2   -1    0    0    0  501 -0.00000000000E+00  0.00000000000E+00  0.43762570294E+02  0.43762570294E+02  0.00000000000E+00 0.  1.
          2   -1    0    0  501    0  0.00000000000E+00 -0.00000000000E+00 -0.44222633414E+03  0.44222633414E+03  0.00000000000E+00 0.  1.
         35    2    1    2    0    0 -0.35527136788E-14  0.14210854715E-13 -0.39846376384E+03  0.48598890443E+03  0.27822984048E+03 0.  0.
         25    2    3    3    0    0  0.22437871638E+02 -0.36042175123E+02 -0.27400206095E+03  0.30484766262E+03  0.12669834858E+03 0.  0.
         25    2    3    3    0    0 -0.22437871638E+02  0.36042175123E+02 -0.12446170290E+03  0.18114124181E+03  0.12457502769E+03 0.  0.
          5    1    4    4  502    0  0.16490717786E+02 -0.70688975193E+02 -0.82065319622E+02  0.10966166911E+03  0.47000000000E+01 0. -1.
         -5    1    4    4    0  502  0.59471538513E+01  0.34646800070E+02 -0.19193674132E+03  0.19518599351E+03  0.47000000000E+01 0. -1.
          5    1    5    5  503    0 -0.34739315097E+02 -0.19194293456E+02 -0.11728178337E+03  0.12390459082E+03  0.47000000000E+01 0. -1.
         -5    1    5    5    0  503  0.12301443459E+02  0.55236468579E+02 -0.71799195243E+01  0.57236650991E+02  0.47000000000E+01 0. -1.
<mgrwt>
<rscale>  0 0.27822984E+03</rscale>
<asrwt>0</asrwt>
<pdfrwt beam="1">  1        2 0.68034825E-01 0.27822984E+03</pdfrwt>
<pdfrwt beam="2">  1       -2 0.67327027E-02 0.27822984E+03</pdfrwt>
<totfact> 0.87961056E+03</totfact>
</mgrwt>
</event>
<event>
 9    1  0.7997082E-001  0.2768823E+03  0.7818608E-02  0.1097404E+00
         -1   -1    0    0    0  501 -0.00000000000E+00  0.00000000000E+00  0.81931700390E+01  0.81931700390E+01  0.00000000000E+00 0. -1.
          1   -1    0    0  501    0  0.00000000000E+00 -0.00000000000E+00 -0.23392604513E+04  0.23392604513E+04  0.00000000000E+00 0. -1.
         35    2    1    2    0    0  0.71054273576E-14  0.14210854715E-13 -0.23310672813E+04  0.23474536214E+04  0.27688234789E+03 0.  0.
         25    2    3    3    0    0 -0.29262657913E+02 -0.51057059480E+02 -0.12283372976E+04  0.12361075902E+04  0.12524508533E+03 0.  0.
         25    2    3    3    0    0  0.29262657913E+02  0.51057059480E+02 -0.11027299837E+04  0.11113460312E+04  0.12495382186E+03 0.  0.
          5    1    4    4  502    0 -0.28480657062E+01 -0.89469686303E+02 -0.89823942050E+03  0.90270099301E+03  0.47000000000E+01 0. -1.
         -5    1    4    4    0  502 -0.26414592207E+02  0.38412626823E+02 -0.33009787711E+03  0.33340659720E+03  0.47000000000E+01 0. -1.
          5    1    5    5  503    0 -0.29628056130E+02  0.13481306263E+02 -0.83941219858E+02  0.90154232956E+02  0.47000000000E+01 0. -1.
         -5    1    5    5    0  503  0.58890714043E+02  0.37575753218E+02 -0.10187887638E+04  0.10211917982E+04  0.47000000000E+01 0. -1.
<mgrwt>
<rscale>  0 0.27688235E+03</rscale>
<asrwt>0</asrwt>
<pdfrwt beam="1">  1        1 0.35988652E+00 0.27688235E+03</pdfrwt>
<pdfrwt beam="2">  1       -1 0.12604867E-02 0.27688235E+03</pdfrwt>
<totfact> 0.27231438E+03</totfact>
</mgrwt>
</event>
<event>
 9    1  0.7997082E-001  0.2695689E+03  0.7818608E-02  0.1101527E+00
          2   -1    0    0  501    0  0.00000000000E+00  0.00000000000E+00  0.65117591234E+03  0.65117591234E+03  0.00000000000E+00 0.  1.
         -2   -1    0    0    0  501 -0.00000000000E+00 -0.00000000000E+00 -0.27898536104E+02  0.27898536104E+02  0.00000000000E+00 0.  1.
         35    2    1    2    0    0 -0.71054273576E-14  0.00000000000E+00  0.62327737623E+03  0.67907444844E+03  0.26956894999E+03 0.  0.
         25    2    3    3    0    0  0.32080591558E+02  0.14481272849E+02  0.22539362509E+03  0.26018524539E+03  0.12512075794E+03 0.  0.
         25    2    3    3    0    0 -0.32080591558E+02 -0.14481272849E+02  0.39788375114E+03  0.41888920305E+03  0.12616581705E+03 0.  0.
          5    1    4    4  502    0 -0.29299635873E+02  0.34613592848E+02  0.30607658890E+02  0.54913461508E+02  0.47000000000E+01 0.  1.
         -5    1    4    4    0  502  0.61380227431E+02 -0.20132319999E+02  0.19478596620E+03  0.20527178388E+03  0.47000000000E+01 0.  1.
          5    1    5    5  503    0 -0.60541047177E+02  0.34574716896E+02  0.27035213429E+03  0.27923645170E+03  0.47000000000E+01 0. -1.
         -5    1    5    5    0  503  0.28460455620E+02 -0.49055989745E+02  0.12753161685E+03  0.13965275135E+03  0.47000000000E+01 0. -1.
<mgrwt>
<rscale>  0 0.26956895E+03</rscale>
<asrwt>0</asrwt>
<pdfrwt beam="1">  1        2 0.10018090E+00 0.26956895E+03</pdfrwt>
<pdfrwt beam="2">  1       -2 0.42920830E-02 0.26956895E+03</pdfrwt>
<totfact> 0.11248539E+04</totfact>
</mgrwt>
</event>
<event>
 9    1  0.7997082E-001  0.2744632E+03  0.7818608E-02  0.1098752E+00
          2   -1    0    0  501    0  0.00000000000E+00  0.00000000000E+00  0.17166027486E+04  0.17166027486E+04  0.00000000000E+00 0. -1.
         -2   -1    0    0    0  501 -0.00000000000E+00 -0.00000000000E+00 -0.10970801695E+02  0.10970801695E+02  0.00000000000E+00 0. -1.
         35    2    1    2    0    0 -0.71054273576E-14  0.14210854715E-13  0.17056319469E+04  0.17275735503E+04  0.27446317308E+03 0.  0.
         25    2    3    3    0    0  0.49683156070E+02  0.25270245621E+02  0.81416923914E+03  0.82561671637E+03  0.12515754503E+03 0.  0.
         25    2    3    3    0    0 -0.49683156070E+02 -0.25270245621E+02  0.89146270779E+03  0.90195683395E+03  0.12535298009E+03 0.  0.
          5    1    4    4  502    0  0.42069706525E+02  0.17038752932E+02  0.81198264983E+03  0.81326385197E+03  0.47000000000E+01 0.  1.
         -5    1    4    4    0  502  0.76134495452E+01  0.82314926895E+01  0.21865893083E+01  0.12352864392E+02  0.47000000000E+01 0.  1.
          5    1    5    5  503    0 -0.34703772681E+02 -0.73424241521E+02  0.42194383453E+03  0.42971404512E+03  0.47000000000E+01 0.  1.
         -5    1    5    5    0  503 -0.14979383390E+02  0.48153995900E+02  0.46951887327E+03  0.47224278883E+03  0.47000000000E+01 0.  1.
<mgrwt>
<rscale>  0 0.27446317E+03</rscale>
<asrwt>0</asrwt>
<pdfrwt beam="1">  1        2 0.26409252E+00 0.27446317E+03</pdfrwt>
<pdfrwt beam="2">  1       -2 0.16878170E-02 0.27446317E+03</pdfrwt>
<totfact> 0.10389813E+04</totfact>
</mgrwt>
</event>
<event>
 9    1  0.7997082E-001  0.2779341E+03  0.7818608E-02  0.1096823E+00
         -1   -1    0    0    0  501 -0.00000000000E+00  0.00000000000E+00  0.14783141196E+03  0.14783141196E+03  0.00000000000E+00 0. -1.
          1   -1    0    0  501    0  0.00000000000E+00 -0.00000000000E+00 -0.13063418037E+03  0.13063418037E+03  0.00000000000E+00 0. -1.
         35    2    1    2    0    0  0.00000000000E+00 -0.71054273576E-14  0.17197231596E+02  0.27846559233E+03  0.27793405933E+03 0.  0.
         25    2    3    3    0    0  0.14583555393E+01  0.62073885873E+02  0.77557327855E+01  0.13937367317E+03  0.12453744527E+03 0.  0.
         25    2    3    3    0    0 -0.14583555393E+01 -0.62073885873E+02  0.94414988101E+01  0.13909191916E+03  0.12410530193E+03 0.  0.
          5    1    4    4  502    0  0.58943593299E+02  0.32748640607E+02 -0.17650854613E+02  0.69860312920E+02  0.47000000000E+01 0. -1.
         -5    1    4    4    0  502 -0.57485237760E+02  0.29325245266E+02  0.25406587399E+02  0.69513360252E+02  0.47000000000E+01 0. -1.
          5    1    5    5  503    0 -0.28365092465E+02 -0.12156196869E+02 -0.48631499269E+02  0.57788098377E+02  0.47000000000E+01 0. -1.
         -5    1    5    5    0  503  0.26906736925E+02 -0.49917689005E+02  0.58072998079E+02  0.81303820780E+02  0.47000000000E+01 0. -1.
<mgrwt>
<rscale>  0 0.27793406E+03</rscale>
<asrwt>0</asrwt>
<pdfrwt beam="1">  1        1 0.20097566E-01 0.27793406E+03</pdfrwt>
<pdfrwt beam="2">  1       -1 0.22743294E-01 0.27793406E+03</pdfrwt>
<totfact> 0.41151794E+03</totfact>
</mgrwt>
</event>
<event>
 9    1  0.7997082E-001  0.2736629E+03  0.7818608E-02  0.1099201E+00
          2   -1    0    0  501    0  0.00000000000E+00  0.00000000000E+00  0.64939095487E+03  0.64939095487E+03  0.00000000000E+00 0.  1.
         -2   -1    0    0    0  501 -0.00000000000E+00 -0.00000000000E+00 -0.28831398828E+02  0.28831398828E+02  0.00000000000E+00 0.  1.
         35    2    1    2    0    0  0.71054273576E-14 -0.26645352591E-14  0.62055955604E+03  0.67822235370E+03  0.27366292855E+03 0.  0.
         25    2    3    3    0    0 -0.52813720699E+02  0.49337654271E+01  0.35175254919E+03  0.37703004320E+03  0.12493264778E+03 0.  0.
         25    2    3    3    0    0  0.52813720699E+02 -0.49337654271E+01  0.26880700686E+03  0.30119231050E+03  0.12508385121E+03 0.  0.
          5    1    4    4  502    0 -0.27476323828E+02 -0.10790458211E+01  0.38943374722E+01  0.28166799167E+02  0.47000000000E+01 0.  1.
         -5    1    4    4    0  502 -0.25337396871E+02  0.60128112482E+01  0.34785821171E+03  0.34886324403E+03  0.47000000000E+01 0.  1.
          5    1    5    5  503    0  0.79321184463E+02 -0.41542409516E+02  0.16286353708E+03  0.18591461428E+03  0.47000000000E+01 0. -1.
         -5    1    5    5    0  503 -0.26507463763E+02  0.36608644089E+02  0.10594346978E+03  0.11527769622E+03  0.47000000000E+01 0. -1.
<mgrwt>
<rscale>  0 0.27366293E+03</rscale>
<asrwt>0</asrwt>
<pdfrwt beam="1">  1        2 0.99906290E-01 0.27366293E+03</pdfrwt>
<pdfrwt beam="2">  1       -2 0.44356003E-02 0.27366293E+03</pdfrwt>
<totfact> 0.10744733E+04</totfact>
</mgrwt>
</event>
<event>
 9    1  0.7997082E-001  0.2740951E+03  0.7818608E-02  0.1098958E+00
         -2   -1    0    0    0  501 -0.00000000000E+00  0.00000000000E+00  0.24184959489E+03  0.24184959489E+03  0.00000000000E+00 0. -1.
          2   -1    0    0  501    0  0.00000000000E+00 -0.00000000000E+00 -0.77659987616E+02  0.77659987616E+02  0.00000000000E+00 0. -1.
         35    2    1    2    0    0  0.35527136788E-14  0.14210854715E-13  0.16418960727E+03  0.31950958251E+03  0.27409514074E+03 0.  0.
         25    2    3    3    0    0 -0.19851559355E+02 -0.28485526213E+02  0.30343416537E+02  0.13328220749E+03  0.12505164650E+03 0.  0.
         25    2    3    3    0    0  0.19851559355E+02  0.28485526213E+02  0.13384619074E+03  0.18622737502E+03  0.12474102300E+03 0.  0.
          5    1    4    4  502    0  0.26004908199E+02  0.36372521339E+02  0.29376972166E+02  0.53705791611E+02  0.47000000000E+01 0.  1.
         -5    1    4    4    0  502 -0.45856467554E+02 -0.64858047552E+02  0.96644437138E+00  0.79576415875E+02  0.47000000000E+01 0.  1.
          5    1    5    5  503    0  0.15837148389E+02 -0.43897919537E+02  0.19587004835E+02  0.50828961894E+02  0.47000000000E+01 0. -1.
         -5    1    5    5    0  503  0.40144109664E+01  0.72383445751E+02  0.11425918590E+03  0.13539841313E+03  0.47000000000E+01 0. -1.
<mgrwt>
<rscale>  0 0.27409514E+03</rscale>
<asrwt>0</asrwt>
<pdfrwt beam="1">  1        2 0.11947691E-01 0.27409514E+03</pdfrwt>
<pdfrwt beam="2">  1       -2 0.37207630E-01 0.27409514E+03</pdfrwt>
<totfact> 0.34978600E+03</totfact>
</mgrwt>
</event>
<event>
 9    1  0.7997082E-001  0.2773651E+03  0.7818608E-02  0.1097137E+00
         -2   -1    0    0    0  501 -0.00000000000E+00  0.00000000000E+00  0.69803039890E+02  0.69803039890E+02  0.00000000000E+00 0.  1.
          2   -1    0    0  501    0  0.00000000000E+00 -0.00000000000E+00 -0.27553024259E+03  0.27553024259E+03  0.00000000000E+00 0.  1.
         35    2    1    2    0    0 -0.35527136788E-14 -0.53290705182E-14 -0.20572720270E+03  0.34533328248E+03  0.27736509163E+03 0.  0.
         25    2    3    3    0    0 -0.19294492490E+02 -0.11817329702E+02 -0.15081271856E+03  0.19718019955E+03  0.12499451306E+03 0.  0.
         25    2    3    3    0    0  0.19294492490E+02  0.11817329702E+02 -0.54914484140E+02  0.14815308292E+03  0.13572696375E+03 0.  0.
          5    1    4    4  502    0 -0.15627312899E+02 -0.19004605760E+02  0.16248732455E+02  0.29857984776E+02  0.47000000000E+01 0. -1.
         -5    1    4    4    0  502 -0.36671795907E+01  0.71872760575E+01 -0.16706145101E+03  0.16732221478E+03  0.47000000000E+01 0. -1.
          5    1    5    5  503    0 -0.31463642216E+02 -0.41611950602E+02  0.56023643278E+01  0.52678189989E+02  0.47000000000E+01 0. -1.
         -5    1    5    5    0  503  0.50758134706E+02  0.53429280304E+02 -0.60516848468E+02  0.95474892936E+02  0.47000000000E+01 0. -1.
<mgrwt>
<rscale>  0 0.27736509E+03</rscale>
<asrwt>0</asrwt>
<pdfrwt beam="1">  1        2 0.42389268E-01 0.27736509E+03</pdfrwt>
<pdfrwt beam="2">  1       -2 0.10738929E-01 0.27736509E+03</pdfrwt>
<totfact> 0.70483321E+03</totfact>
</mgrwt>
</event>
<event>
 9    1  0.7997082E-001  0.2755360E+03  0.7818608E-02  0.1098152E+00
          2   -1    0    0  501    0  0.00000000000E+00  0.00000000000E+00  0.57162291017E+02  0.57162291017E+02  0.00000000000E+00 0. -1.
         -2   -1    0    0    0  501 -0.00000000000E+00 -0.00000000000E+00 -0.33203751033E+03  0.33203751033E+03  0.00000000000E+00 0. -1.
         35    2    1    2    0    0  0.88817841970E-15 -0.35527136788E-14 -0.27487521932E+03  0.38919980135E+03  0.27553602156E+03 0.  0.
         25    2    3    3    0    0 -0.41116168847E+00 -0.61717445000E+01 -0.21964752128E+03  0.25217374684E+03  0.12372673724E+03 0.  0.
         25    2    3    3    0    0  0.41116168847E+00  0.61717445000E+01 -0.55227698039E+02  0.13702605451E+03  0.12525087425E+03 0.  0.
          5    1    4    4  502    0 -0.56854479037E+01  0.53755531934E+02 -0.15265792394E+03  0.16201392926E+03  0.47000000000E+01 0. -1.
         -5    1    4    4    0  502  0.52742862152E+01 -0.59927276434E+02 -0.66989597339E+02  0.90159817588E+02  0.47000000000E+01 0. -1.
          5    1    5    5  503    0  0.56000345790E+02  0.25540600518E+02 -0.97590115877E+01  0.62495514324E+02  0.47000000000E+01 0. -1.
         -5    1    5    5    0  503 -0.55589184102E+02 -0.19368856018E+02 -0.45468686451E+02  0.74530540184E+02  0.47000000000E+01 0. -1.
<mgrwt>
<rscale>  0 0.27553602E+03</rscale>
<asrwt>0</asrwt>
<pdfrwt beam="1">  1        2 0.87941985E-02 0.27553602E+03</pdfrwt>
<pdfrwt beam="2">  1       -2 0.51082695E-01 0.27553602E+03</pdfrwt>
<totfact> 0.27630462E+03</totfact>
</mgrwt>
</event>
<event>
 9    1  0.7997082E-001  0.2744310E+03  0.7818608E-02  0.1098770E+00
          2   -1    0    0  501    0  0.00000000000E+00  0.00000000000E+00  0.52179959005E+03  0.52179959005E+03  0.00000000000E+00 0.  1.
         -2   -1    0    0    0  501 -0.00000000000E+00 -0.00000000000E+00 -0.36083001226E+02  0.36083001226E+02  0.00000000000E+00 0.  1.
         35    2    1    2    0    0  0.71054273576E-14  0.00000000000E+00  0.48571658883E+03  0.55788259128E+03  0.27443101317E+03 0.  0.
         25    2    3    3    0    0 -0.22393950729E+02 -0.29367300624E+02  0.15704152232E+03  0.20415945973E+03  0.12512041355E+03 0.  0.
         25    2    3    3    0    0  0.22393950729E+02  0.29367300624E+02  0.32867506650E+03  0.35372313156E+03  0.12541462068E+03 0.  0.
          5    1    4    4  502    0 -0.30308912364E+02  0.70490274844E+01 -0.99417019869E+01  0.33003733055E+02  0.47000000000E+01 0.  1.
         -5    1    4    4    0  502  0.79149616351E+01 -0.36416328108E+02  0.16698322431E+03  0.17115572667E+03  0.47000000000E+01 0.  1.
          5    1    5    5  503    0  0.71150881836E+02  0.27956736279E+02  0.24567281603E+03  0.25733489780E+03  0.47000000000E+01 0.  1.
         -5    1    5    5    0  503 -0.48756931107E+02  0.14105643446E+01  0.83002250469E+02  0.96388233751E+02  0.47000000000E+01 0.  1.
<mgrwt>
<rscale>  0 0.27443101E+03</rscale>
<asrwt>0</asrwt>
<pdfrwt beam="1">  1        2 0.80276855E-01 0.27443101E+03</pdfrwt>
<pdfrwt beam="2">  1       -2 0.55512313E-02 0.27443101E+03</pdfrwt>
<totfact> 0.98372903E+03</totfact>
</mgrwt>
</event>
<event>
 9    1  0.7997082E-001  0.2763629E+03  0.7818608E-02  0.1097692E+00
         -2   -1    0    0    0  501 -0.00000000000E+00  0.00000000000E+00  0.17713887051E+03  0.17713887051E+03  0.00000000000E+00 0.  1.
          2   -1    0    0  501    0  0.00000000000E+00 -0.00000000000E+00 -0.10779177058E+03  0.10779177058E+03  0.00000000000E+00 0.  1.
         35    2    1    2    0    0  0.00000000000E+00  0.71054273576E-14  0.69347099936E+02  0.28493064109E+03  0.27636289541E+03 0.  0.
         25    2    3    3    0    0 -0.44507793251E+02 -0.34114660653E+02  0.52607760870E+02  0.14701034611E+03  0.12529849012E+03 0.  0.
         25    2    3    3    0    0  0.44507793251E+02  0.34114660653E+02  0.16739339066E+02  0.13792029498E+03  0.12488814421E+03 0.  0.
          5    1    4    4  502    0 -0.53472643891E+02  0.36697080528E+02  0.17554166670E+02  0.67351600808E+02  0.47000000000E+01 0.  1.
         -5    1    4    4    0  502  0.89648506398E+01 -0.70811741181E+02  0.35053594200E+02  0.79658745297E+02  0.47000000000E+01 0.  1.
          5    1    5    5  503    0  0.47065369239E+02  0.78794758782E+02  0.11201490664E+02  0.92581458112E+02  0.47000000000E+01 0.  1.
         -5    1    5    5    0  503 -0.25575759877E+01 -0.44680098129E+02  0.55378484016E+01  0.45338836870E+02  0.47000000000E+01 0.  1.
<mgrwt>
<rscale>  0 0.27636290E+03</rscale>
<asrwt>0</asrwt>
<pdfrwt beam="1">  1        2 0.16583349E-01 0.27636290E+03</pdfrwt>
<pdfrwt beam="2">  1       -2 0.27252134E-01 0.27636290E+03</pdfrwt>
<totfact> 0.41877387E+03</totfact>
</mgrwt>
</event>
<event>
 9    1  0.7997082E-001  0.2770724E+03  0.7818608E-02  0.1097299E+00
          1   -1    0    0  501    0  0.00000000000E+00  0.00000000000E+00  0.76238417798E+03  0.76238417798E+03  0.00000000000E+00 0. -1.
         -1   -1    0    0    0  501 -0.00000000000E+00 -0.00000000000E+00 -0.25174027437E+02  0.25174027437E+02  0.00000000000E+00 0. -1.
         35    2    1    2    0    0  0.71054273576E-14 -0.17763568394E-14  0.73721015055E+03  0.78755820542E+03  0.27707241085E+03 0.  0.
         25    2    3    3    0    0  0.56322346407E+02 -0.83395852084E+01  0.30157083207E+03  0.33143640771E+03  0.12515338673E+03 0.  0.
         25    2    3    3    0    0 -0.56322346407E+02  0.83395852084E+01  0.43563931847E+03  0.45612179771E+03  0.12257129828E+03 0.  0.
          5    1    4    4  502    0 -0.30023643695E+02  0.19581494846E+01  0.19337690846E+02  0.36073394869E+02  0.47000000000E+01 0.  1.
         -5    1    4    4    0  502  0.86345990102E+02 -0.10297734693E+02  0.28223314123E+03  0.29536301284E+03  0.47000000000E+01 0.  1.
          5    1    5    5  503    0 -0.33438552854E+01  0.37046720917E+02  0.34590737503E+03  0.34793338874E+03  0.47000000000E+01 0.  1.
         -5    1    5    5    0  503 -0.52978491122E+02 -0.28707135709E+02  0.89731943447E+02  0.10818840898E+03  0.47000000000E+01 0.  1.
<mgrwt>
<rscale>  0 0.27707241E+03</rscale>
<asrwt>0</asrwt>
<pdfrwt beam="1">  1        1 0.11728986E+00 0.27707241E+03</pdfrwt>
<pdfrwt beam="2">  1       -1 0.38729279E-02 0.27707241E+03</pdfrwt>
<totfact> 0.63905692E+03</totfact>
</mgrwt>
</event>
<event>
 9    1  0.7997082E-001  0.2765701E+03  0.7818608E-02  0.1097577E+00
          1   -1    0    0  501    0  0.00000000000E+00  0.00000000000E+00  0.54854948075E+03  0.54854948075E+03  0.00000000000E+00 0. -1.
         -1   -1    0    0    0  501 -0.00000000000E+00 -0.00000000000E+00 -0.34860592717E+02  0.34860592717E+02  0.00000000000E+00 0. -1.
         35    2    1    2    0    0  0.35527136788E-14  0.00000000000E+00  0.51368888803E+03  0.58341007347E+03  0.27657013601E+03 0.  0.
         25    2    3    3    0    0 -0.11413340793E+02  0.50401240624E+02  0.18712419079E+03  0.22981050135E+03  0.12299127752E+03 0.  0.
         25    2    3    3    0    0  0.11413340793E+02 -0.50401240624E+02  0.32656469724E+03  0.35359957212E+03  0.12536987881E+03 0.  0.
          5    1    4    4  502    0  0.47292538551E+02  0.24944002212E+02  0.33357429187E+02  0.63194901147E+02  0.47000000000E+01 0.  1.
         -5    1    4    4    0  502 -0.58705879344E+02  0.25457238412E+02  0.15376676160E+03  0.16661560020E+03  0.47000000000E+01 0.  1.
          5    1    5    5  503    0  0.16028891199E+02 -0.87786532105E+02  0.16510077380E+03  0.18773320453E+03  0.47000000000E+01 0. -1.
         -5    1    5    5    0  503 -0.46155504063E+01  0.37385291481E+02  0.16146392344E+03  0.16586636759E+03  0.47000000000E+01 0. -1.
<mgrwt>
<rscale>  0 0.27657014E+03</rscale>
<asrwt>0</asrwt>
<pdfrwt beam="1">  1        1 0.84392221E-01 0.27657014E+03</pdfrwt>
<pdfrwt beam="2">  1       -1 0.53631685E-02 0.27657014E+03</pdfrwt>
<totfact> 0.62807642E+03</totfact>
</mgrwt>
</event>
<event>
 9    1  0.7997082E-001  0.2720787E+03  0.7818608E-02  0.1100096E+00
         -2   -1    0    0    0  501 -0.00000000000E+00  0.00000000000E+00  0.60822084908E+01  0.60822084908E+01  0.00000000000E+00 0.  1.
          2   -1    0    0  501    0  0.00000000000E+00 -0.00000000000E+00 -0.30427596079E+04  0.30427596079E+04  0.00000000000E+00 0.  1.
         35    2    1    2    0    0 -0.35527136788E-14  0.17763568394E-14 -0.30366773994E+04  0.30488418164E+04  0.27207865276E+03 0.  0.
         25    2    3    3    0    0 -0.43284631601E+01 -0.13510782415E+02 -0.20205242932E+04  0.20244058201E+04  0.12449589615E+03 0.  0.
         25    2    3    3    0    0  0.43284631601E+01  0.13510782415E+02 -0.10161531062E+04  0.10244359963E+04  0.12923118211E+03 0.  0.
          5    1    4    4  502    0 -0.34229748892E+02 -0.59098347366E+02 -0.13035693311E+04  0.13053656122E+04  0.47000000000E+01 0. -1.
         -5    1    4    4    0  502  0.29901285732E+02  0.45587564951E+02 -0.71695496204E+03  0.71904020788E+03  0.47000000000E+01 0. -1.
          5    1    5    5  503    0  0.14286576744E+02  0.18223414725E+02 -0.29894804119E+02  0.38104965984E+02  0.47000000000E+01 0.  1.
         -5    1    5    5    0  503 -0.99581135841E+01 -0.47126323097E+01 -0.98625830212E+03  0.98633103035E+03  0.47000000000E+01 0.  1.
<mgrwt>
<rscale>  0 0.27207865E+03</rscale>
<asrwt>0</asrwt>
<pdfrwt beam="1">  1        2 0.46811737E+00 0.27207865E+03</pdfrwt>
<pdfrwt beam="2">  1       -2 0.93572337E-03 0.27207865E+03</pdfrwt>
<totfact> 0.46149929E+03</totfact>
</mgrwt>
</event>
<event>
 9    1  0.7997082E-001  0.2719478E+03  0.7818608E-02  0.1100170E+00
          2   -1    0    0  501    0  0.00000000000E+00  0.00000000000E+00  0.31995496180E+04  0.31995496180E+04  0.00000000000E+00 0. -1.
         -2   -1    0    0    0  501 -0.00000000000E+00 -0.00000000000E+00 -0.57785935861E+01  0.57785935861E+01  0.00000000000E+00 0. -1.
         35    2    1    2    0    0 -0.14210854715E-13 -0.17763568394E-14  0.31937710244E+04  0.32053282116E+04  0.27194776632E+03 0.  0.
         25    2    3    3    0    0  0.32343105291E+02  0.12745047044E+02  0.11034562754E+04  0.11110627812E+04  0.12504494892E+03 0.  0.
         25    2    3    3    0    0 -0.32343105291E+02 -0.12745047044E+02  0.20903147490E+04  0.20942654304E+04  0.12378784471E+03 0.  0.
          5    1    4    4  502    0  0.77543957313E+02  0.15988494007E+02  0.83597467857E+03  0.83972879578E+03  0.47000000000E+01 0.  1.
         -5    1    4    4    0  502 -0.45200852022E+02 -0.32434469623E+01  0.26748159685E+03  0.27133398539E+03  0.47000000000E+01 0.  1.
          5    1    5    5  503    0  0.43676614555E+02  0.12777790320E+01  0.11212849518E+04  0.11221458517E+04  0.47000000000E+01 0.  1.
         -5    1    5    5    0  503 -0.76019719846E+02 -0.14022826076E+02  0.96902979720E+03  0.97211957871E+03  0.47000000000E+01 0.  1.
<mgrwt>
<rscale>  0 0.27194777E+03</rscale>
<asrwt>0</asrwt>
<pdfrwt beam="1">  1        2 0.49223699E+00 0.27194777E+03</pdfrwt>
<pdfrwt beam="2">  1       -2 0.88901695E-03 0.27194777E+03</pdfrwt>
<totfact> 0.39925213E+03</totfact>
</mgrwt>
</event>
<event>
 9    1  0.7997082E-001  0.2762375E+03  0.7818608E-02  0.1097762E+00
         -4   -1    0    0    0  501 -0.00000000000E+00  0.00000000000E+00  0.38962886004E+03  0.38962886004E+03  0.00000000000E+00 0. -1.
          4   -1    0    0  501    0  0.00000000000E+00 -0.00000000000E+00 -0.48961430177E+02  0.48961430177E+02  0.00000000000E+00 0. -1.
         35    2    1    2    0    0  0.00000000000E+00  0.00000000000E+00  0.34066742986E+03  0.43859029022E+03  0.27623747918E+03 0.  0.
         25    2    3    3    0    0 -0.26739251115E+02  0.41452108447E+02  0.11874076699E+03  0.17909039335E+03  0.12466248193E+03 0.  0.
         25    2    3    3    0    0  0.26739251115E+02 -0.41452108447E+02  0.22192666287E+03  0.25949989686E+03  0.12512189231E+03 0.  0.
          5    1    4    4  502    0 -0.70575322636E+02  0.68970250810E+01  0.94033575594E+02  0.11786792803E+03  0.47000000000E+01 0.  1.
         -5    1    4    4    0  502  0.43836071521E+02  0.34555083366E+02  0.24707191394E+02  0.61222465316E+02  0.47000000000E+01 0.  1.
          5    1    5    5  503    0  0.22125938375E+01 -0.71980265906E+02  0.20359407320E+03  0.21600622883E+03  0.47000000000E+01 0. -1.
         -5    1    5    5    0  503  0.24526657277E+02  0.30528157459E+02  0.18332589674E+02  0.43493668036E+02  0.47000000000E+01 0. -1.
<mgrwt>
<rscale>  0 0.27623748E+03</rscale>
<asrwt>0</asrwt>
<pdfrwt beam="1">  1        4 0.75325280E-02 0.27623748E+03</pdfrwt>
<pdfrwt beam="2">  1       -4 0.59942900E-01 0.27623748E+03</pdfrwt>
<totfact> 0.60838249E+02</totfact>
</mgrwt>
</event>
<event>
 9    1  0.7997082E-001  0.2708758E+03  0.7818608E-02  0.1100779E+00
         -1   -1    0    0    0  501 -0.00000000000E+00  0.00000000000E+00  0.93373747322E+02  0.93373747322E+02  0.00000000000E+00 0.  1.
          1   -1    0    0  501    0  0.00000000000E+00 -0.00000000000E+00 -0.19645163876E+03  0.19645163876E+03  0.00000000000E+00 0.  1.
         35    2    1    2    0    0 -0.35527136788E-14 -0.71054273576E-14 -0.10307789143E+03  0.28982538608E+03  0.27087580681E+03 0.  0.
         25    2    3    3    0    0 -0.59222764242E+01  0.51309722897E+02 -0.37576511734E+02  0.13958916903E+03  0.12411841465E+03 0.  0.
         25    2    3    3    0    0  0.59222764242E+01 -0.51309722897E+02 -0.65501379700E+02  0.15023621704E+03  0.12495090695E+03 0.  0.
          5    1    4    4  502    0 -0.26887625893E+02 -0.15868990308E+02 -0.58107091826E+02  0.66130880835E+02  0.47000000000E+01 0.  1.
         -5    1    4    4    0  502  0.20965349468E+02  0.67178713205E+02  0.20530580092E+02  0.73458288199E+02  0.47000000000E+01 0.  1.
          5    1    5    5  503    0  0.32832644934E+02 -0.25418424660E+01  0.26537244744E+02  0.42553012761E+02  0.47000000000E+01 0.  1.
         -5    1    5    5    0  503 -0.26910368509E+02 -0.48767880431E+02 -0.92038624444E+02  0.10768320428E+03  0.47000000000E+01 0.  1.
<mgrwt>
<rscale>  0 0.27087581E+03</rscale>
<asrwt>0</asrwt>
<pdfrwt beam="1">  1        1 0.30223329E-01 0.27087581E+03</pdfrwt>
<pdfrwt beam="2">  1       -1 0.14365192E-01 0.27087581E+03</pdfrwt>
<totfact> 0.51277054E+03</totfact>
</mgrwt>
</event>
<event>
 9    1  0.7997082E-001  0.2764211E+03  0.7818608E-02  0.1097660E+00
         -1   -1    0    0    0  501 -0.00000000000E+00  0.00000000000E+00  0.16258228186E+03  0.16258228186E+03  0.00000000000E+00 0. -1.
          1   -1    0    0  501    0  0.00000000000E+00 -0.00000000000E+00 -0.11749223209E+03  0.11749223209E+03  0.00000000000E+00 0. -1.
         35    2    1    2    0    0  0.71054273576E-14  0.00000000000E+00  0.45090049773E+02  0.28007451395E+03  0.27642109322E+03 0.  0.
         25    2    3    3    0    0 -0.17698633462E+02 -0.39850080386E+02  0.10680955400E+02  0.14349078851E+03  0.13628739136E+03 0.  0.
         25    2    3    3    0    0  0.17698633462E+02  0.39850080386E+02  0.34409094373E+02  0.13658372544E+03  0.12477923604E+03 0.  0.
          5    1    4    4  502    0 -0.43839735083E+02  0.31086564627E+02  0.34561698799E+02  0.64069477103E+02  0.47000000000E+01 0. -1.
         -5    1    4    4    0  502  0.26141101621E+02 -0.70936645013E+02 -0.23880743399E+02  0.79421311403E+02  0.47000000000E+01 0. -1.
          5    1    5    5  503    0 -0.45520360908E+02  0.26195564776E+01  0.42643848516E+02  0.62606334740E+02  0.47000000000E+01 0.  1.
         -5    1    5    5    0  503  0.63218994369E+02  0.37230523908E+02 -0.82347541428E+01  0.73977390704E+02  0.47000000000E+01 0.  1.
<mgrwt>
<rscale>  0 0.27642109E+03</rscale>
<asrwt>0</asrwt>
<pdfrwt beam="1">  1        1 0.18075728E-01 0.27642109E+03</pdfrwt>
<pdfrwt beam="2">  1       -1 0.25012659E-01 0.27642109E+03</pdfrwt>
<totfact> 0.40316286E+03</totfact>
</mgrwt>
</event>
<event>
 9    1  0.7997082E-001  0.2958415E+03  0.7818608E-02  0.1087338E+00
         -1   -1    0    0    0  501 -0.00000000000E+00  0.00000000000E+00  0.82541934018E+01  0.82541934018E+01  0.00000000000E+00 0. -1.
          1   -1    0    0  501    0  0.00000000000E+00 -0.00000000000E+00 -0.26508404680E+04  0.26508404680E+04  0.00000000000E+00 0. -1.
         35    2    1    2    0    0  0.00000000000E+00 -0.71054273576E-14 -0.26425862746E+04  0.26590946614E+04  0.29584151095E+03 0.  0.
         25    2    3    3    0    0  0.66528219685E+02 -0.38415665031E+02 -0.11067614389E+04  0.11165270921E+04  0.12573820980E+03 0.  0.
         25    2    3    3    0    0 -0.66528219685E+02  0.38415665031E+02 -0.15358248357E+04  0.15425675693E+04  0.12188114131E+03 0.  0.
          5    1    4    4  502    0 -0.27962846352E+02  0.20686326098E+02 -0.22118384552E+03  0.22395139736E+03  0.47000000000E+01 0. -1.
         -5    1    4    4    0  502  0.94491066036E+02 -0.59101991129E+02 -0.88557759336E+03  0.89257569470E+03  0.47000000000E+01 0. -1.
          5    1    5    5  503    0 -0.79054028013E+02  0.72424634006E+02 -0.11807739513E+04  0.11856407892E+04  0.47000000000E+01 0. -1.
         -5    1    5    5    0  503  0.12525808329E+02 -0.34008968975E+02 -0.35505088442E+03  0.35692678013E+03  0.47000000000E+01 0. -1.
<mgrwt>
<rscale>  0 0.29584151E+03</rscale>
<asrwt>0</asrwt>
<pdfrwt beam="1">  1        1 0.40782168E+00 0.29584151E+03</pdfrwt>
<pdfrwt beam="2">  1       -1 0.12698757E-02 0.29584151E+03</pdfrwt>
<totfact> 0.16686944E+03</totfact>
</mgrwt>
</event>
<event>
 9    1  0.7997082E-001  0.2753366E+03  0.7818608E-02  0.1098264E+00
         -1   -1    0    0    0  501 -0.00000000000E+00  0.00000000000E+00  0.42425878891E+02  0.42425878891E+02  0.00000000000E+00 0.  1.
          1   -1    0    0  501    0  0.00000000000E+00 -0.00000000000E+00 -0.44672175043E+03  0.44672175043E+03  0.00000000000E+00 0.  1.
         35    2    1    2    0    0  0.00000000000E+00  0.71054273576E-14 -0.40429587153E+03  0.48914762932E+03  0.27533661494E+03 0.  0.
         25    2    3    3    0    0  0.15994555312E+02  0.49196545231E+02 -0.24761540655E+03  0.28218297996E+03  0.12505086467E+03 0.  0.
         25    2    3    3    0    0 -0.15994555312E+02 -0.49196545231E+02 -0.15668046498E+03  0.20696464936E+03  0.12493787302E+03 0.  0.
          5    1    4    4  502    0  0.53590998975E+02  0.54375685481E+02 -0.22524650388E+03  0.23787977605E+03  0.47000000000E+01 0. -1.
         -5    1    4    4    0  502 -0.37596443663E+02 -0.51791402500E+01 -0.22368902666E+02  0.44303203906E+02  0.47000000000E+01 0. -1.
          5    1    5    5  503    0  0.17788243524E+02 -0.30120976775E+02  0.92553765519E+01  0.36488996213E+02  0.47000000000E+01 0. -1.
         -5    1    5    5    0  503 -0.33782798836E+02 -0.19075568456E+02 -0.16593584154E+03  0.17047565315E+03  0.47000000000E+01 0. -1.
<mgrwt>
<rscale>  0 0.27533661E+03</rscale>
<asrwt>0</asrwt>
<pdfrwt beam="1">  1        1 0.68726428E-01 0.27533661E+03</pdfrwt>
<pdfrwt beam="2">  1       -1 0.65270579E-02 0.27533661E+03</pdfrwt>
<totfact> 0.61335832E+03</totfact>
</mgrwt>
</event>
<event>
 9    1  0.7997082E-001  0.2745477E+03  0.7818608E-02  0.1098705E+00
          2   -1    0    0  501    0  0.00000000000E+00  0.00000000000E+00  0.70813307445E+03  0.70813307445E+03  0.00000000000E+00 0.  1.
         -2   -1    0    0    0  501 -0.00000000000E+00 -0.00000000000E+00 -0.26610968178E+02  0.26610968178E+02  0.00000000000E+00 0.  1.
         35    2    1    2    0    0 -0.71054273576E-14  0.14210854715E-13  0.68152210628E+03  0.73474404263E+03  0.27454767681E+03 0.  0.
         25    2    3    3    0    0 -0.48260624638E+02 -0.30285272678E+02  0.36796607452E+03  0.39287818234E+03  0.12533135494E+03 0.  0.
         25    2    3    3    0    0  0.48260624638E+02  0.30285272678E+02  0.31355603176E+03  0.34186586029E+03  0.12372791015E+03 0.  0.
          5    1    4    4  502    0 -0.59512012008E+02  0.36363243496E+02  0.18356215972E+03  0.19642077674E+03  0.47000000000E+01 0. -1.
         -5    1    4    4    0  502  0.11251387370E+02 -0.66648516174E+02  0.18440391480E+03  0.19645740561E+03  0.47000000000E+01 0. -1.
          5    1    5    5  503    0  0.32471950004E+02 -0.32087356546E+02  0.40227919167E+02  0.61027874513E+02  0.47000000000E+01 0. -1.
         -5    1    5    5    0  503  0.15788674634E+02  0.62372629224E+02  0.27332811259E+03  0.28083798578E+03  0.47000000000E+01 0. -1.
<mgrwt>
<rscale>  0 0.27454768E+03</rscale>
<asrwt>0</asrwt>
<pdfrwt beam="1">  1        2 0.10894354E+00 0.27454768E+03</pdfrwt>
<pdfrwt beam="2">  1       -2 0.40939956E-02 0.27454768E+03</pdfrwt>
<totfact> 0.10928275E+04</totfact>
</mgrwt>
</event>
<event>
 9    1  0.7997082E-001  0.2722362E+03  0.7818608E-02  0.1100007E+00
         -2   -1    0    0    0  501 -0.00000000000E+00  0.00000000000E+00  0.79512013583E+02  0.79512013583E+02  0.00000000000E+00 0. -1.
          2   -1    0    0  501    0  0.00000000000E+00 -0.00000000000E+00 -0.23302319200E+03  0.23302319200E+03  0.00000000000E+00 0. -1.
         35    2    1    2    0    0 -0.35527136788E-14 -0.71054273576E-14 -0.15351117841E+03  0.31253520558E+03  0.27223624452E+03 0.  0.
         25    2    3    3    0    0 -0.27748420112E+00 -0.83266689997E+01 -0.13894015616E+03  0.18713415702E+03  0.12508163460E+03 0.  0.
         25    2    3    3    0    0  0.27748420112E+00  0.83266689997E+01 -0.14571022254E+02  0.12540104856E+03  0.12427267551E+03 0.  0.
          5    1    4    4  502    0  0.33977625551E+02 -0.41271936663E+02 -0.17188569583E+02  0.56350587560E+02  0.47000000000E+01 0. -1.
         -5    1    4    4    0  502 -0.34255109752E+02  0.32945267664E+02 -0.12175158658E+03  0.13078356946E+03  0.47000000000E+01 0. -1.
          5    1    5    5  503    0  0.16385397650E+02  0.63107174509E+02  0.31079418927E+01  0.65442692743E+02  0.47000000000E+01 0. -1.
         -5    1    5    5    0  503 -0.16107913449E+02 -0.54780505509E+02 -0.17678964147E+02  0.59958355821E+02  0.47000000000E+01 0. -1.
<mgrwt>
<rscale>  0 0.27223624E+03</rscale>
<asrwt>0</asrwt>
<pdfrwt beam="1">  1        2 0.35849721E-01 0.27223624E+03</pdfrwt>
<pdfrwt beam="2">  1       -2 0.12232618E-01 0.27223624E+03</pdfrwt>
<totfact> 0.68455646E+03</totfact>
</mgrwt>
</event>
<event>
 9    1  0.7997082E-001  0.2740937E+03  0.7818608E-02  0.1098959E+00
          2   -1    0    0  501    0  0.00000000000E+00  0.00000000000E+00  0.23147116124E+03  0.23147116124E+03  0.00000000000E+00 0.  1.
         -2   -1    0    0    0  501 -0.00000000000E+00 -0.00000000000E+00 -0.81141161659E+02  0.81141161659E+02  0.00000000000E+00 0.  1.
         35    2    1    2    0    0  0.00000000000E+00  0.71054273576E-14  0.15032999958E+03  0.31261232290E+03  0.27409369868E+03 0.  0.
         25    2    3    3    0    0 -0.87465869877E+01 -0.53169828110E+02  0.60439073975E+02  0.14901932486E+03  0.12510133538E+03 0.  0.
         25    2    3    3    0    0  0.87465869877E+01  0.53169828110E+02  0.89890925609E+02  0.16359299804E+03  0.12561352274E+03 0.  0.
          5    1    4    4  502    0 -0.32128918071E+02 -0.68558723695E+02  0.83232894016E+02  0.11261603180E+03  0.47000000000E+01 0. -1.
         -5    1    4    4    0  502  0.23382331084E+02  0.15388895585E+02 -0.22793820040E+02  0.36403293069E+02  0.47000000000E+01 0. -1.
          5    1    5    5  503    0  0.40094903644E+02  0.72721708463E+02  0.94699603472E+02  0.12604028355E+03  0.47000000000E+01 0.  1.
         -5    1    5    5    0  503 -0.31348316657E+02 -0.19551880353E+02 -0.48086778630E+01  0.37552714487E+02  0.47000000000E+01 0.  1.
<mgrwt>
<rscale>  0 0.27409370E+03</rscale>
<asrwt>0</asrwt>
<pdfrwt beam="1">  1        2 0.35610948E-01 0.27409370E+03</pdfrwt>
<pdfrwt beam="2">  1       -2 0.12483256E-01 0.27409370E+03</pdfrwt>
<totfact> 0.66743251E+03</totfact>
</mgrwt>
</event>
<event>
 9    1  0.7997082E-001  0.2902363E+03  0.7818608E-02  0.1090226E+00
         -1   -1    0    0    0  501 -0.00000000000E+00  0.00000000000E+00  0.33029757386E+02  0.33029757386E+02  0.00000000000E+00 0. -1.
          1   -1    0    0  501    0  0.00000000000E+00 -0.00000000000E+00 -0.63758493460E+03  0.63758493460E+03  0.00000000000E+00 0. -1.
         35    2    1    2    0    0  0.00000000000E+00  0.00000000000E+00 -0.60455517721E+03  0.67061469198E+03  0.29023628789E+03 0.  0.
         25    2    3    3    0    0  0.79406639702E+01 -0.10916968873E+02 -0.47140462408E+03  0.48768300121E+03  0.12421817787E+03 0.  0.
         25    2    3    3    0    0 -0.79406639702E+01  0.10916968873E+02 -0.13315055313E+03  0.18293169077E+03  0.12471046201E+03 0.  0.
          5    1    4    4  502    0 -0.29138255863E+02  0.42618342257E+02 -0.12751365124E+03  0.13764876427E+03  0.47000000000E+01 0. -1.
         -5    1    4    4    0  502  0.37078919833E+02 -0.53535311130E+02 -0.34389097284E+03  0.35003423695E+03  0.47000000000E+01 0. -1.
          5    1    5    5  503    0 -0.57591011768E+02  0.36488300590E+02 -0.84820880165E+02  0.10892562797E+03  0.47000000000E+01 0.  1.
         -5    1    5    5    0  503  0.49650347798E+02 -0.25571331717E+02 -0.48329672963E+02  0.74006062798E+02  0.47000000000E+01 0.  1.
<mgrwt>
<rscale>  0 0.29023629E+03</rscale>
<asrwt>0</asrwt>
<pdfrwt beam="1">  1        1 0.98089971E-01 0.29023629E+03</pdfrwt>
<pdfrwt beam="2">  1       -1 0.50815021E-02 0.29023629E+03</pdfrwt>
<totfact> 0.55365143E+03</totfact>
</mgrwt>
</event>
<event>
 9    1  0.7997082E-001  0.2752326E+03  0.7818608E-02  0.1098322E+00
          2   -1    0    0  501    0  0.00000000000E+00  0.00000000000E+00  0.58124109252E+03  0.58124109252E+03  0.00000000000E+00 0. -1.
         -2   -1    0    0    0  501 -0.00000000000E+00 -0.00000000000E+00 -0.32582421465E+02  0.32582421465E+02  0.00000000000E+00 0. -1.
         35    2    1    2    0    0 -0.35527136788E-14  0.00000000000E+00  0.54865867106E+03  0.61382351399E+03  0.27523257256E+03 0.  0.
         25    2    3    3    0    0  0.31142248554E+02  0.46019852876E+02  0.28331832044E+03  0.31515699222E+03  0.12636056561E+03 0.  0.
         25    2    3    3    0    0 -0.31142248554E+02 -0.46019852876E+02  0.26534035062E+03  0.29866652177E+03  0.12533364695E+03 0.  0.
          5    1    4    4  502    0  0.68011142370E+01 -0.27802576825E+02  0.95637945615E+01  0.30541686257E+02  0.47000000000E+01 0. -1.
         -5    1    4    4    0  502  0.24341134317E+02  0.73822429701E+02  0.27375452588E+03  0.28461530596E+03  0.47000000000E+01 0. -1.
          5    1    5    5  503    0 -0.23970471098E+02 -0.17726743017E+02  0.26733698979E+03  0.26903527095E+03  0.47000000000E+01 0.  1.
         -5    1    5    5    0  503 -0.71717774560E+01 -0.28293109859E+02 -0.19966391756E+01  0.29631250823E+02  0.47000000000E+01 0.  1.
<mgrwt>
<rscale>  0 0.27523257E+03</rscale>
<asrwt>0</asrwt>
<pdfrwt beam="1">  1        2 0.89421699E-01 0.27523257E+03</pdfrwt>
<pdfrwt beam="2">  1       -2 0.50126807E-02 0.27523257E+03</pdfrwt>
<totfact> 0.10164191E+04</totfact>
</mgrwt>
</event>
<event>
 9    1  0.7997082E-001  0.2749480E+03  0.7818608E-02  0.1098481E+00
          2   -1    0    0  501    0  0.00000000000E+00  0.00000000000E+00  0.92971375010E+01  0.92971375010E+01  0.00000000000E+00 0. -1.
         -2   -1    0    0    0  501 -0.00000000000E+00 -0.00000000000E+00 -0.20327869229E+04  0.20327869229E+04  0.00000000000E+00 0. -1.
         35    2    1    2    0    0 -0.35527136788E-14  0.71054273576E-14 -0.20234897854E+04  0.20420840604E+04  0.27494799168E+03 0.  0.
         25    2    3    3    0    0 -0.25360210537E+02  0.38326466470E+02 -0.12576551293E+04  0.12647445692E+04  0.12558002523E+03 0.  0.
         25    2    3    3    0    0  0.25360210537E+02 -0.38326466470E+02 -0.76583465603E+03  0.77733949114E+03  0.12506760491E+03 0.  0.
          5    1    4    4  502    0 -0.31481455704E+01  0.11864259702E+02 -0.11745231051E+04  0.11745966482E+04  0.47000000000E+01 0. -1.
         -5    1    4    4    0  502 -0.22212064967E+02  0.26462206768E+02 -0.83132024210E+02  0.90147921032E+02  0.47000000000E+01 0. -1.
          5    1    5    5  503    0  0.43153465041E+02 -0.25452840538E+02 -0.74502200161E+03  0.74671945302E+03  0.47000000000E+01 0. -1.
         -5    1    5    5    0  503 -0.17793254504E+02 -0.12873625932E+02 -0.20812654422E+02  0.30620038121E+02  0.47000000000E+01 0. -1.
<mgrwt>
<rscale>  0 0.27494799E+03</rscale>
<asrwt>0</asrwt>
<pdfrwt beam="1">  1        2 0.14303294E-02 0.27494799E+03</pdfrwt>
<pdfrwt beam="2">  1       -2 0.31273633E+00 0.27494799E+03</pdfrwt>
<totfact> 0.26912552E+02</totfact>
</mgrwt>
</event>
<event>
 9    1  0.7997082E-001  0.2791290E+03  0.7818608E-02  0.1096166E+00
         -1   -1    0    0    0  501 -0.00000000000E+00  0.00000000000E+00  0.97966360307E+02  0.97966360307E+02  0.00000000000E+00 0.  1.
          1   -1    0    0  501    0  0.00000000000E+00 -0.00000000000E+00 -0.19882585759E+03  0.19882585759E+03  0.00000000000E+00 0.  1.
         35    2    1    2    0    0  0.71054273576E-14  0.71054273576E-14 -0.10085949728E+03  0.29679221790E+03  0.27912897093E+03 0.  0.
         25    2    3    3    0    0 -0.48029557819E+02 -0.35379089985E+02 -0.32679285031E+02  0.14247747575E+03  0.12519335842E+03 0.  0.
         25    2    3    3    0    0  0.48029557819E+02  0.35379089985E+02 -0.68180212253E+02  0.15431474215E+03  0.12492389631E+03 0.  0.
          5    1    4    4  502    0 -0.56004996649E+02 -0.47791036276E+02 -0.70231509832E+02  0.10185822388E+03  0.47000000000E+01 0. -1.
         -5    1    4    4    0  502  0.79754388293E+01  0.12411946291E+02  0.37552224801E+02  0.40619251874E+02  0.47000000000E+01 0. -1.
          5    1    5    5  503    0  0.76116997241E+02  0.62360482628E+02 -0.55585386654E+02  0.11311256461E+03  0.47000000000E+01 0.  1.
         -5    1    5    5    0  503 -0.28087439422E+02 -0.26981392643E+02 -0.12594825600E+02  0.41202177541E+02  0.47000000000E+01 0.  1.
<mgrwt>
<rscale>  0 0.27912897E+03</rscale>
<asrwt>0</asrwt>
<pdfrwt beam="1">  1        1 0.30588593E-01 0.27912897E+03</pdfrwt>
<pdfrwt beam="2">  1       -1 0.15071748E-01 0.27912897E+03</pdfrwt>
<totfact> 0.46851368E+03</totfact>
</mgrwt>
</event>
<event>
 9    1  0.7997082E-001  0.2733170E+03  0.7818608E-02  0.1099396E+00
          1   -1    0    0  501    0  0.00000000000E+00  0.00000000000E+00  0.13382925831E+03  0.13382925831E+03  0.00000000000E+00 0. -1.
         -1   -1    0    0    0  501 -0.00000000000E+00 -0.00000000000E+00 -0.13954754346E+03  0.13954754346E+03  0.00000000000E+00 0. -1.
         35    2    1    2    0    0  0.00000000000E+00  0.00000000000E+00 -0.57182851550E+01  0.27337680177E+03  0.27331698988E+03 0.  0.
         25    2    3    3    0    0  0.30580472386E+02 -0.34427114989E+02 -0.31888616450E+02  0.13680959558E+03  0.12481822802E+03 0.  0.
         25    2    3    3    0    0 -0.30580472386E+02  0.34427114989E+02  0.26170331295E+02  0.13656720619E+03  0.12587821110E+03 0.  0.
          5    1    4    4  502    0  0.33006372215E+01 -0.79208177725E+02 -0.11015316518E+02  0.80176410636E+02  0.47000000000E+01 0.  1.
         -5    1    4    4    0  502  0.27279835165E+02  0.44781062736E+02 -0.20873299932E+02  0.56633184940E+02  0.47000000000E+01 0.  1.
          5    1    5    5  503    0 -0.54178057211E+02  0.19945326264E+02 -0.36103417301E+02  0.68254118292E+02  0.47000000000E+01 0.  1.
         -5    1    5    5    0  503  0.23597584825E+02  0.14481788725E+02  0.62273748596E+02  0.68313087900E+02  0.47000000000E+01 0.  1.
<mgrwt>
<rscale>  0 0.27331699E+03</rscale>
<asrwt>0</asrwt>
<pdfrwt beam="1">  1        1 0.20589117E-01 0.27331699E+03</pdfrwt>
<pdfrwt beam="2">  1       -1 0.21468853E-01 0.27331699E+03</pdfrwt>
<totfact> 0.43830300E+03</totfact>
</mgrwt>
</event>
<event>
 9    1  0.7997082E-001  0.2708376E+03  0.7818608E-02  0.1100801E+00
          2   -1    0    0  501    0  0.00000000000E+00  0.00000000000E+00  0.16029143801E+03  0.16029143801E+03  0.00000000000E+00 0. -1.
         -2   -1    0    0    0  501 -0.00000000000E+00 -0.00000000000E+00 -0.11440569604E+03  0.11440569604E+03  0.00000000000E+00 0. -1.
         35    2    1    2    0    0 -0.71054273576E-14  0.71054273576E-14  0.45885741971E+02  0.27469713405E+03  0.27083761582E+03 0.  0.
         25    2    3    3    0    0 -0.66632771938E+01  0.44201759367E+02  0.50611529277E+02  0.14189237574E+03  0.12479472987E+03 0.  0.
         25    2    3    3    0    0  0.66632771938E+01 -0.44201759367E+02 -0.47257873064E+01  0.13280475831E+03  0.12496629934E+03 0.  0.
          5    1    4    4  502    0  0.46897429250E+02 -0.14709358844E+02  0.40551507840E+01  0.49540572824E+02  0.47000000000E+01 0.  1.
         -5    1    4    4    0  502 -0.53560706444E+02  0.58911118211E+02  0.46556378493E+02  0.92351802917E+02  0.47000000000E+01 0.  1.
          5    1    5    5  503    0 -0.46863287208E+02  0.81176582271E+01 -0.26582490628E+02  0.54688050532E+02  0.47000000000E+01 0. -1.
         -5    1    5    5    0  503  0.53526564402E+02 -0.52319417594E+02  0.21856703322E+02  0.78116707778E+02  0.47000000000E+01 0. -1.
<mgrwt>
<rscale>  0 0.27083762E+03</rscale>
<asrwt>0</asrwt>
<pdfrwt beam="1">  1        2 0.24660221E-01 0.27083762E+03</pdfrwt>
<pdfrwt beam="2">  1       -2 0.17600876E-01 0.27083762E+03</pdfrwt>
<totfact> 0.56684869E+03</totfact>
</mgrwt>
</event>
<event>
 9    1  0.7997082E-001  0.2782640E+03  0.7818608E-02  0.1096641E+00
         -2   -1    0    0    0  501 -0.00000000000E+00  0.00000000000E+00  0.18188580054E+04  0.18188580054E+04  0.00000000000E+00 0.  1.
          2   -1    0    0  501    0  0.00000000000E+00 -0.00000000000E+00 -0.10642785307E+02  0.10642785307E+02  0.00000000000E+00 0.  1.
         35    2    1    2    0    0  0.88817841970E-15 -0.14210854715E-13  0.18082152201E+04  0.18295007907E+04  0.27826401316E+03 0.  0.
         25    2    3    3    0    0 -0.51895256273E+01  0.54808169048E+02  0.10774496741E+04  0.10860557261E+04  0.12485340817E+03 0.  0.
         25    2    3    3    0    0  0.51895256273E+01 -0.54808169048E+02  0.73076554598E+03  0.74344506454E+03  0.12514557212E+03 0.  0.
          5    1    4    4  502    0 -0.10522801488E+02  0.68561514436E+02  0.10616894915E+04  0.10639633814E+04  0.47000000000E+01 0.  1.
         -5    1    4    4    0  502  0.53332758607E+01 -0.13753345388E+02  0.15760182578E+02  0.22092344730E+02  0.47000000000E+01 0.  1.
          5    1    5    5  503    0  0.15915121873E+02  0.21989573229E+02  0.41474468990E+02  0.49790099549E+02  0.47000000000E+01 0.  1.
         -5    1    5    5    0  503 -0.10725596245E+02 -0.76797742278E+02  0.68929107699E+03  0.69365496499E+03  0.47000000000E+01 0.  1.
<mgrwt>
<rscale>  0 0.27826401E+03</rscale>
<asrwt>0</asrwt>
<pdfrwt beam="1">  1        2 0.16373530E-02 0.27826401E+03</pdfrwt>
<pdfrwt beam="2">  1       -2 0.27982406E+00 0.27826401E+03</pdfrwt>
<totfact> 0.34718351E+02</totfact>
</mgrwt>
</event>
<event>
 9    1  0.7997082E-001  0.2752629E+03  0.7818608E-02  0.1098305E+00
         -2   -1    0    0    0  501 -0.00000000000E+00  0.00000000000E+00  0.16971256679E+03  0.16971256679E+03  0.00000000000E+00 0.  1.
          2   -1    0    0  501    0  0.00000000000E+00 -0.00000000000E+00 -0.11161467744E+03  0.11161467744E+03  0.00000000000E+00 0.  1.
         35    2    1    2    0    0  0.00000000000E+00 -0.71054273576E-14  0.58097889352E+02  0.28132724423E+03  0.27526288090E+03 0.  0.
         25    2    3    3    0    0  0.95005931175E+01 -0.35791846639E+02 -0.29542742547E+02  0.13339746929E+03  0.12470282122E+03 0.  0.
         25    2    3    3    0    0 -0.95005931175E+01  0.35791846639E+02  0.87640631898E+02  0.14792977494E+03  0.11327409413E+03 0.  0.
          5    1    4    4  502    0  0.35861241784E+02 -0.11040141410E+02 -0.69612083357E+02  0.79220234372E+02  0.47000000000E+01 0. -1.
         -5    1    4    4    0  502 -0.26360648667E+02 -0.24751705229E+02  0.40069340810E+02  0.54177234913E+02  0.47000000000E+01 0. -1.
          5    1    5    5  503    0 -0.49350944358E+02  0.46353350222E+02  0.81380339500E+02  0.10596696864E+03  0.47000000000E+01 0.  1.
         -5    1    5    5    0  503  0.39850351241E+02 -0.10561503583E+02  0.62602923988E+01  0.41962806303E+02  0.47000000000E+01 0.  1.
<mgrwt>
<rscale>  0 0.27526288E+03</rscale>
<asrwt>0</asrwt>
<pdfrwt beam="1">  1        2 0.17171489E-01 0.27526288E+03</pdfrwt>
<pdfrwt beam="2">  1       -2 0.26109626E-01 0.27526288E+03</pdfrwt>
<totfact> 0.43388160E+03</totfact>
</mgrwt>
</event>
<event>
 9    1  0.7997082E-001  0.2734331E+03  0.7818608E-02  0.1099331E+00
         -1   -1    0    0    0  501 -0.00000000000E+00  0.00000000000E+00  0.11531948412E+02  0.11531948412E+02  0.00000000000E+00 0.  1.
          1   -1    0    0  501    0  0.00000000000E+00 -0.00000000000E+00 -0.16208371242E+04  0.16208371242E+04  0.00000000000E+00 0.  1.
         35    2    1    2    0    0  0.00000000000E+00  0.14210854715E-13 -0.16093051758E+04  0.16323690726E+04  0.27343306384E+03 0.  0.
         25    2    3    3    0    0  0.11523337532E+02  0.49007027173E+02 -0.89249832712E+03  0.90274506501E+03  0.12594011460E+03 0.  0.
         25    2    3    3    0    0 -0.11523337532E+02 -0.49007027173E+02 -0.71680684870E+03  0.72962400763E+03  0.12650951804E+03 0.  0.
          5    1    4    4  502    0 -0.45617856239E+02  0.35894993906E+00 -0.55886624465E+03  0.56074476107E+03  0.47000000000E+01 0. -1.
         -5    1    4    4    0  502  0.57141193771E+02  0.48648077234E+02 -0.33363208246E+03  0.34200030394E+03  0.47000000000E+01 0. -1.
          5    1    5    5  503    0 -0.48491435761E+02 -0.64439545890E+02 -0.29396953743E+03  0.30486727170E+03  0.47000000000E+01 0. -1.
         -5    1    5    5    0  503  0.36968098228E+02  0.15432518717E+02 -0.42283731126E+03  0.42475673593E+03  0.47000000000E+01 0. -1.
<mgrwt>
<rscale>  0 0.27343306E+03</rscale>
<asrwt>0</asrwt>
<pdfrwt beam="1">  1        1 0.24935964E+00 0.27343306E+03</pdfrwt>
<pdfrwt beam="2">  1       -1 0.17741453E-02 0.27343306E+03</pdfrwt>
<totfact> 0.48664883E+03</totfact>
</mgrwt>
</event>
<event>
 9    1  0.7997082E-001  0.2754097E+03  0.7818608E-02  0.1098223E+00
          1   -1    0    0  501    0  0.00000000000E+00  0.00000000000E+00  0.36713652124E+03  0.36713652124E+03  0.00000000000E+00 0.  1.
         -1   -1    0    0    0  501 -0.00000000000E+00 -0.00000000000E+00 -0.51650073096E+02  0.51650073096E+02  0.00000000000E+00 0.  1.
         35    2    1    2    0    0 -0.71054273576E-14  0.17763568394E-14  0.31548644814E+03  0.41878659433E+03  0.27540971775E+03 0.  0.
         25    2    3    3    0    0 -0.56122358889E+02 -0.60627697457E+01  0.13920242189E+03  0.19508839427E+03  0.12448168932E+03 0.  0.
         25    2    3    3    0    0  0.56122358889E+02  0.60627697457E+01  0.17628402626E+03  0.22369820006E+03  0.12561190411E+03 0.  0.
          5    1    4    4  502    0  0.65394442813E+01 -0.13190357968E+02  0.13031265924E+03  0.13122587028E+03  0.47000000000E+01 0.  1.
         -5    1    4    4    0  502 -0.62661803171E+02  0.71275882225E+01  0.88897626522E+01  0.63862523991E+02  0.47000000000E+01 0.  1.
          5    1    5    5  503    0  0.10295286831E+02  0.51495637513E+02  0.23395126485E+02  0.57682021090E+02  0.47000000000E+01 0.  1.
         -5    1    5    5    0  503  0.45827072058E+02 -0.45432867767E+02  0.15288889977E+03  0.16601617897E+03  0.47000000000E+01 0.  1.
<mgrwt>
<rscale>  0 0.27540972E+03</rscale>
<asrwt>0</asrwt>
<pdfrwt beam="1">  1        1 0.56482540E-01 0.27540972E+03</pdfrwt>
<pdfrwt beam="2">  1       -1 0.79461653E-02 0.27540972E+03</pdfrwt>
<totfact> 0.58529912E+03</totfact>
</mgrwt>
</event>
<event>
 9    1  0.7997082E-001  0.2772976E+03  0.7818608E-02  0.1097174E+00
         -2   -1    0    0    0  501 -0.00000000000E+00  0.00000000000E+00  0.12713059025E+02  0.12713059025E+02  0.00000000000E+00 0.  1.
          2   -1    0    0  501    0  0.00000000000E+00 -0.00000000000E+00 -0.15121057450E+04  0.15121057450E+04  0.00000000000E+00 0.  1.
         35    2    1    2    0    0  0.00000000000E+00  0.00000000000E+00 -0.14993926860E+04  0.15248188041E+04  0.27729759890E+03 0.  0.
         25    2    3    3    0    0  0.39232420479E+02 -0.16529422682E+02 -0.53198540271E+03  0.54807115063E+03  0.12474418956E+03 0.  0.
         25    2    3    3    0    0 -0.39232420479E+02  0.16529422682E+02 -0.96740728330E+03  0.97674765343E+03  0.12785430014E+03 0.  0.
          5    1    4    4  502    0 -0.43474531247E+02  0.93872802504E+01 -0.16420584878E+03  0.17018756321E+03  0.47000000000E+01 0. -1.
         -5    1    4    4    0  502  0.82706951726E+02 -0.25916702933E+02 -0.36777955393E+03  0.37788358742E+03  0.47000000000E+01 0. -1.
          5    1    5    5  503    0 -0.66915776505E+02  0.42959051863E+02 -0.38987262979E+03  0.39792707717E+03  0.47000000000E+01 0. -1.
         -5    1    5    5    0  503  0.27683356026E+02 -0.26429629181E+02 -0.57753465351E+03  0.57882057626E+03  0.47000000000E+01 0. -1.
<mgrwt>
<rscale>  0 0.27729760E+03</rscale>
<asrwt>0</asrwt>
<pdfrwt beam="1">  1        2 0.23263166E+00 0.27729760E+03</pdfrwt>
<pdfrwt beam="2">  1       -2 0.19558551E-02 0.27729760E+03</pdfrwt>
<totfact> 0.10740869E+04</totfact>
</mgrwt>
</event>
<event>
 9    1  0.7997082E-001  0.2771423E+03  0.7818608E-02  0.1097260E+00
          2   -1    0    0  501    0  0.00000000000E+00  0.00000000000E+00  0.20356569276E+04  0.20356569276E+04  0.00000000000E+00 0.  1.
         -2   -1    0    0    0  501 -0.00000000000E+00 -0.00000000000E+00 -0.94328087200E+01  0.94328087200E+01  0.00000000000E+00 0.  1.
         35    2    1    2    0    0 -0.35527136788E-14 -0.35527136788E-14  0.20262241189E+04  0.20450897363E+04  0.27714229138E+03 0.  0.
         25    2    3    3    0    0 -0.16927320200E+02 -0.12017768210E+02  0.14328884040E+04  0.14384771797E+04  0.12496582547E+03 0.  0.
         25    2    3    3    0    0  0.16927320200E+02  0.12017768210E+02  0.59333571494E+03  0.60661255659E+03  0.12450125408E+03 0.  0.
          5    1    4    4  502    0 -0.38218713749E+02 -0.37341910510E+02  0.13108262438E+04  0.13119232522E+04  0.47000000000E+01 0. -1.
         -5    1    4    4    0  502  0.21291393549E+02  0.25324142300E+02  0.12206216017E+03  0.12655392750E+03  0.47000000000E+01 0. -1.
          5    1    5    5  503    0 -0.41820911520E+01 -0.29159670491E+02  0.51237603530E+03  0.51324367295E+03  0.47000000000E+01 0. -1.
         -5    1    5    5    0  503  0.21109411352E+02  0.41177438701E+02  0.80959679640E+02  0.93368883644E+02  0.47000000000E+01 0. -1.
<mgrwt>
<rscale>  0 0.27714229E+03</rscale>
<asrwt>0</asrwt>
<pdfrwt beam="1">  1        2 0.31317764E+00 0.27714229E+03</pdfrwt>
<pdfrwt beam="2">  1       -2 0.14512030E-02 0.27714229E+03</pdfrwt>
<totfact> 0.88113981E+03</totfact>
</mgrwt>
</event>
<event>
 9    1  0.7997082E-001  0.2805240E+03  0.7818608E-02  0.1095403E+00
         -1   -1    0    0    0  501 -0.00000000000E+00  0.00000000000E+00  0.19535233382E+02  0.19535233382E+02  0.00000000000E+00 0. -1.
          1   -1    0    0  501    0  0.00000000000E+00 -0.00000000000E+00 -0.10070739007E+04  0.10070739007E+04  0.00000000000E+00 0. -1.
         35    2    1    2    0    0  0.00000000000E+00 -0.71054273576E-14 -0.98753866729E+03  0.10266091340E+04  0.28052396463E+03 0.  0.
         25    2    3    3    0    0  0.45033580847E+02  0.34792302816E+02 -0.38298701080E+03  0.40674935054E+03  0.12460921308E+03 0.  0.
         25    2    3    3    0    0 -0.45033580847E+02 -0.34792302816E+02 -0.60455165648E+03  0.61985978351E+03  0.12451874604E+03 0.  0.
          5    1    4    4  502    0  0.63344647607E+02  0.71249274567E+02 -0.25180763280E+03  0.26929199290E+03  0.47000000000E+01 0.  1.
         -5    1    4    4    0  502 -0.18311066759E+02 -0.36456971752E+02 -0.13117937801E+03  0.13745735764E+03  0.47000000000E+01 0.  1.
          5    1    5    5  503    0 -0.67279226162E+02 -0.32636495216E+02 -0.18374402291E+03  0.19843283762E+03  0.47000000000E+01 0.  1.
         -5    1    5    5    0  503  0.22245645315E+02 -0.21558075993E+01 -0.42080763357E+03  0.42142694588E+03  0.47000000000E+01 0.  1.
<mgrwt>
<rscale>  0 0.28052396E+03</rscale>
<asrwt>0</asrwt>
<pdfrwt beam="1">  1        1 0.15493448E+00 0.28052396E+03</pdfrwt>
<pdfrwt beam="2">  1       -1 0.30054198E-02 0.28052396E+03</pdfrwt>
<totfact> 0.59421802E+03</totfact>
</mgrwt>
</event>
<event>
 9    1  0.7997082E-001  0.2730479E+03  0.7818608E-02  0.1099548E+00
          1   -1    0    0  501    0  0.00000000000E+00  0.00000000000E+00  0.15476529507E+04  0.15476529507E+04  0.00000000000E+00 0.  1.
         -1   -1    0    0    0  501 -0.00000000000E+00 -0.00000000000E+00 -0.12043261009E+02  0.12043261009E+02  0.00000000000E+00 0.  1.
         35    2    1    2    0    0 -0.71054273576E-14  0.71054273576E-14  0.15356096897E+04  0.15596962117E+04  0.27304789643E+03 0.  0.
         25    2    3    3    0    0  0.21982874764E+02  0.21643799761E+02  0.50696041393E+03  0.52300069454E+03  0.12477645751E+03 0.  0.
         25    2    3    3    0    0 -0.21982874764E+02 -0.21643799761E+02  0.10286492758E+04  0.10366955172E+04  0.12516613734E+03 0.  0.
          5    1    4    4  502    0 -0.22094335366E+02 -0.42380529128E+02  0.14456668478E+03  0.15233478018E+03  0.47000000000E+01 0.  1.
         -5    1    4    4    0  502  0.44077210130E+02  0.64024328889E+02  0.36239372915E+03  0.37066591436E+03  0.47000000000E+01 0.  1.
          5    1    5    5  503    0 -0.14347541381E+02  0.45710592133E+02  0.66585990492E+03  0.66759779296E+03  0.47000000000E+01 0. -1.
         -5    1    5    5    0  503 -0.76353333828E+01 -0.67354391893E+02  0.36278937083E+03  0.36909772420E+03  0.47000000000E+01 0. -1.
<mgrwt>
<rscale>  0 0.27304790E+03</rscale>
<asrwt>0</asrwt>
<pdfrwt beam="1">  1        1 0.23810030E+00 0.27304790E+03</pdfrwt>
<pdfrwt beam="2">  1       -1 0.18528106E-02 0.27304790E+03</pdfrwt>
<totfact> 0.51030399E+03</totfact>
</mgrwt>
</event>
<event>
 9    1  0.7997082E-001  0.2771501E+03  0.7818608E-02  0.1097256E+00
          2   -1    0    0  501    0  0.00000000000E+00  0.00000000000E+00  0.30274035222E+04  0.30274035222E+04  0.00000000000E+00 0.  1.
         -2   -1    0    0    0  501 -0.00000000000E+00 -0.00000000000E+00 -0.63430717638E+01  0.63430717638E+01  0.00000000000E+00 0.  1.
         35    2    1    2    0    0  0.00000000000E+00  0.35527136788E-14  0.30210604504E+04  0.30337465939E+04  0.27715005177E+03 0.  0.
         25    2    3    3    0    0  0.38267602351E+02  0.25883182944E+02  0.19534288112E+04  0.19578747618E+04  0.12351159472E+03 0.  0.
         25    2    3    3    0    0 -0.38267602351E+02 -0.25883182944E+02  0.10676316392E+04  0.10758718321E+04  0.12461353672E+03 0.  0.
          5    1    4    4  502    0 -0.40347622305E+02 -0.10331114226E+01  0.99830829202E+03  0.99913489272E+03  0.47000000000E+01 0. -1.
         -5    1    4    4    0  502  0.78615224656E+02  0.26916294367E+02  0.95512051915E+03  0.95873986907E+03  0.47000000000E+01 0. -1.
          5    1    5    5  503    0 -0.61964956288E+02  0.30725499374E+02  0.47107909939E+03  0.47615262259E+03  0.47000000000E+01 0.  1.
         -5    1    5    5    0  503  0.23697353937E+02 -0.56608682318E+02  0.59655253983E+03  0.59971920953E+03  0.47000000000E+01 0.  1.
<mgrwt>
<rscale>  0 0.27715005E+03</rscale>
<asrwt>0</asrwt>
<pdfrwt beam="1">  1        2 0.46575323E+00 0.27715005E+03</pdfrwt>
<pdfrwt beam="2">  1       -2 0.97585961E-03 0.27715005E+03</pdfrwt>
<totfact> 0.44328612E+03</totfact>
</mgrwt>
</event>
<event>
 9    1  0.7997082E-001  0.2747346E+03  0.7818608E-02  0.1098600E+00
         -1   -1    0    0    0  501 -0.00000000000E+00  0.00000000000E+00  0.21000931039E+02  0.21000931039E+02  0.00000000000E+00 0. -1.
          1   -1    0    0  501    0  0.00000000000E+00 -0.00000000000E+00 -0.89852098408E+03  0.89852098408E+03  0.00000000000E+00 0. -1.
         35    2    1    2    0    0  0.71054273576E-14  0.00000000000E+00 -0.87752005304E+03  0.91952191512E+03  0.27473461539E+03 0.  0.
         25    2    3    3    0    0  0.38570633993E+02  0.65257777064E+01 -0.32730040783E+03  0.35341336003E+03  0.12745652789E+03 0.  0.
         25    2    3    3    0    0 -0.38570633993E+02 -0.65257777064E+01 -0.55021964522E+03  0.56610855509E+03  0.12730655358E+03 0.  0.
          5    1    4    4  502    0  0.37903563524E+02 -0.57503639952E+02 -0.16318247776E+03  0.17718340719E+03  0.47000000000E+01 0.  1.
         -5    1    4    4    0  502  0.66707046872E+00  0.64029417658E+02 -0.16411793006E+03  0.17622995283E+03  0.47000000000E+01 0.  1.
          5    1    5    5  503    0 -0.21538202069E+02 -0.54278716295E+02 -0.12728587289E+03  0.14012086436E+03  0.47000000000E+01 0.  1.
         -5    1    5    5    0  503 -0.17032431923E+02  0.47752938589E+02 -0.42293377233E+03  0.42598769074E+03  0.47000000000E+01 0.  1.
<mgrwt>
<rscale>  0 0.27473462E+03</rscale>
<asrwt>0</asrwt>
<pdfrwt beam="1">  1        1 0.13823400E+00 0.27473462E+03</pdfrwt>
<pdfrwt beam="2">  1       -1 0.32309124E-02 0.27473462E+03</pdfrwt>
<totfact> 0.64630519E+03</totfact>
</mgrwt>
</event>
<event>
 9    1  0.7997082E-001  0.2760940E+03  0.7818608E-02  0.1097842E+00
         -2   -1    0    0    0  501 -0.00000000000E+00  0.00000000000E+00  0.14013445171E+02  0.14013445171E+02  0.00000000000E+00 0. -1.
          2   -1    0    0  501    0  0.00000000000E+00 -0.00000000000E+00 -0.13599068204E+04  0.13599068204E+04  0.00000000000E+00 0. -1.
         35    2    1    2    0    0  0.71054273576E-14  0.00000000000E+00 -0.13458933752E+04  0.13739202655E+04  0.27609403953E+03 0.  0.
         25    2    3    3    0    0  0.36733423827E+02  0.37609078028E+02 -0.55117977826E+03  0.56785455272E+03  0.12607877660E+03 0.  0.
         25    2    3    3    0    0 -0.36733423827E+02 -0.37609078028E+02 -0.79471359693E+03  0.80606571281E+03  0.12413075786E+03 0.  0.
          5    1    4    4  502    0  0.45067639047E+02  0.36352369724E+02 -0.55458639705E+03  0.55762061356E+03  0.47000000000E+01 0. -1.
         -5    1    4    4    0  502 -0.83342152197E+01  0.12567083039E+01  0.34066187941E+01  0.10233939158E+02  0.47000000000E+01 0. -1.
          5    1    5    5  503    0 -0.75891401743E+02 -0.16391503129E+02 -0.32311898104E+03  0.33234944282E+03  0.47000000000E+01 0. -1.
         -5    1    5    5    0  503  0.39157977916E+02 -0.21217574899E+02 -0.47159461589E+03  0.47371626999E+03  0.47000000000E+01 0. -1.
<mgrwt>
<rscale>  0 0.27609404E+03</rscale>
<asrwt>0</asrwt>
<pdfrwt beam="1">  1        2 0.20921641E+00 0.27609404E+03</pdfrwt>
<pdfrwt beam="2">  1       -2 0.21559149E-02 0.27609404E+03</pdfrwt>
<totfact> 0.11244986E+04</totfact>
</mgrwt>
</event>
<event>
 9    1  0.7997082E-001  0.2751341E+03  0.7818608E-02  0.1098377E+00
         -1   -1    0    0    0  501 -0.00000000000E+00  0.00000000000E+00  0.15512637483E+02  0.15512637483E+02  0.00000000000E+00 0.  1.
          1   -1    0    0  501    0  0.00000000000E+00 -0.00000000000E+00 -0.12199532887E+04  0.12199532887E+04  0.00000000000E+00 0.  1.
         35    2    1    2    0    0  0.00000000000E+00  0.00000000000E+00 -0.12044406513E+04  0.12354659262E+04  0.27513409905E+03 0.  0.
         25    2    3    3    0    0  0.12666139184E+01 -0.56595738351E+02 -0.50863063369E+03  0.52619484316E+03  0.12235689408E+03 0.  0.
         25    2    3    3    0    0 -0.12666139184E+01  0.56595738351E+02 -0.69581001756E+03  0.70927108305E+03  0.12533637466E+03 0.  0.
          5    1    4    4  502    0  0.17427066279E+02 -0.73077595317E+02 -0.16057278306E+03  0.17734076304E+03  0.47000000000E+01 0. -1.
         -5    1    4    4    0  502 -0.16160452360E+02  0.16481856966E+02 -0.34805785064E+03  0.34885408012E+03  0.47000000000E+01 0. -1.
          5    1    5    5  503    0 -0.57643057721E+02  0.28313140525E+02 -0.21856432657E+03  0.22785260780E+03  0.47000000000E+01 0. -1.
         -5    1    5    5    0  503  0.56376443803E+02  0.28282597826E+02 -0.47724569098E+03  0.48141847526E+03  0.47000000000E+01 0. -1.
<mgrwt>
<rscale>  0 0.27513410E+03</rscale>
<asrwt>0</asrwt>
<pdfrwt beam="1">  1        1 0.18768514E+00 0.27513410E+03</pdfrwt>
<pdfrwt beam="2">  1       -1 0.23865594E-02 0.27513410E+03</pdfrwt>
<totfact> 0.58627202E+03</totfact>
</mgrwt>
</event>
<event>
 9    1  0.7997082E-001  0.2735293E+03  0.7818608E-02  0.1099277E+00
         -2   -1    0    0    0  501 -0.00000000000E+00  0.00000000000E+00  0.15356047566E+02  0.15356047566E+02  0.00000000000E+00 0. -1.
          2   -1    0    0  501    0  0.00000000000E+00 -0.00000000000E+00 -0.12180589556E+04  0.12180589556E+04  0.00000000000E+00 0. -1.
         35    2    1    2    0    0  0.00000000000E+00  0.00000000000E+00 -0.12027029080E+04  0.12334150032E+04  0.27352931295E+03 0.  0.
         25    2    3    3    0    0 -0.49496785639E+01 -0.52888403210E+02 -0.55102589663E+03  0.56758020887E+03  0.12528396637E+03 0.  0.
         25    2    3    3    0    0  0.49496785639E+01  0.52888403210E+02 -0.65167701139E+03  0.66583479429E+03  0.12582274673E+03 0.  0.
          5    1    4    4  502    0 -0.30168575278E+01 -0.61893540943E+02 -0.55347586210E+03  0.55695379680E+03  0.47000000000E+01 0. -1.
         -5    1    4    4    0  502 -0.19328210361E+01  0.90051377338E+01  0.24499654667E+01  0.10626412073E+02  0.47000000000E+01 0. -1.
          5    1    5    5  503    0 -0.40457052705E+01  0.53666017100E+02 -0.96722329484E+02  0.11078676881E+03  0.47000000000E+01 0.  1.
         -5    1    5    5    0  503  0.89953838344E+01 -0.77761389055E+00 -0.55495468191E+03  0.55504802548E+03  0.47000000000E+01 0.  1.
<mgrwt>
<rscale>  0 0.27352931E+03</rscale>
<asrwt>0</asrwt>
<pdfrwt beam="1">  1        2 0.18739374E+00 0.27352931E+03</pdfrwt>
<pdfrwt beam="2">  1       -2 0.23624682E-02 0.27352931E+03</pdfrwt>
<totfact> 0.11776440E+04</totfact>
</mgrwt>
</event>
<event>
 9    1  0.7997082E-001  0.2759600E+03  0.7818608E-02  0.1097916E+00
         -2   -1    0    0    0  501 -0.00000000000E+00  0.00000000000E+00  0.36356772657E+03  0.36356772657E+03  0.00000000000E+00 0.  1.
          2   -1    0    0  501    0  0.00000000000E+00 -0.00000000000E+00 -0.52365710029E+02  0.52365710029E+02  0.00000000000E+00 0.  1.
         35    2    1    2    0    0  0.14210854715E-13  0.00000000000E+00  0.31120201655E+03  0.41593343660E+03  0.27596001265E+03 0.  0.
         25    2    3    3    0    0  0.59028472923E+02  0.59768430271E+01  0.16439978917E+03  0.21514037690E+03  0.12545121692E+03 0.  0.
         25    2    3    3    0    0 -0.59028472923E+02 -0.59768430271E+01  0.14680222737E+03  0.20079305970E+03  0.12347823935E+03 0.  0.
          5    1    4    4  502    0  0.56003638578E+02 -0.50449594165E+02  0.12517379723E+03  0.14619212906E+03  0.47000000000E+01 0. -1.
         -5    1    4    4    0  502  0.30248343454E+01  0.56426437192E+02  0.39225991940E+02  0.68948247844E+02  0.47000000000E+01 0. -1.
          5    1    5    5  503    0 -0.81392383175E+02 -0.41289606666E+02  0.12031018420E+03  0.15108336136E+03  0.47000000000E+01 0. -1.
         -5    1    5    5    0  503  0.22363910252E+02  0.35312763639E+02  0.26492043171E+02  0.49709698339E+02  0.47000000000E+01 0. -1.
<mgrwt>
<rscale>  0 0.27596001E+03</rscale>
<asrwt>0</asrwt>
<pdfrwt beam="1">  1        2 0.80562633E-02 0.27596001E+03</pdfrwt>
<pdfrwt beam="2">  1       -2 0.55933495E-01 0.27596001E+03</pdfrwt>
<totfact> 0.25695975E+03</totfact>
</mgrwt>
</event>
<event>
 9    1  0.7997082E-001  0.2769347E+03  0.7818608E-02  0.1097375E+00
         -2   -1    0    0    0  501 -0.00000000000E+00  0.00000000000E+00  0.77614865670E+01  0.77614865670E+01  0.00000000000E+00 0.  1.
          2   -1    0    0  501    0  0.00000000000E+00 -0.00000000000E+00 -0.24703003503E+04  0.24703003503E+04  0.00000000000E+00 0.  1.
         35    2    1    2    0    0  0.00000000000E+00  0.71054273576E-14 -0.24625388638E+04  0.24780618369E+04  0.27693467089E+03 0.  0.
         25    2    3    3    0    0  0.54056880403E+02  0.20069649490E+02 -0.12096386463E+04  0.12176238270E+04  0.12671697699E+03 0.  0.
         25    2    3    3    0    0 -0.54056880403E+02 -0.20069649490E+02 -0.12529002175E+04  0.12604380099E+04  0.12498033755E+03 0.  0.
          5    1    4    4  502    0 -0.22000159605E+02  0.38879375087E+02 -0.74902547853E+03  0.75037115504E+03  0.47000000000E+01 0.  1.
         -5    1    4    4    0  502  0.76057040008E+02 -0.18809725597E+02 -0.46061316777E+03  0.46725267194E+03  0.47000000000E+01 0.  1.
          5    1    5    5  503    0 -0.68821632986E+02 -0.60061902703E+02 -0.71417409628E+03  0.72000734658E+03  0.47000000000E+01 0. -1.
         -5    1    5    5    0  503  0.14764752582E+02  0.39992253213E+02 -0.53872612118E+03  0.54043066333E+03  0.47000000000E+01 0. -1.
<mgrwt>
<rscale>  0 0.27693467E+03</rscale>
<asrwt>0</asrwt>
<pdfrwt beam="1">  1        2 0.38004688E+00 0.27693467E+03</pdfrwt>
<pdfrwt beam="2">  1       -2 0.11940728E-02 0.27693467E+03</pdfrwt>
<totfact> 0.68563249E+03</totfact>
</mgrwt>
</event>
<event>
 9    1  0.7997082E-001  0.2775839E+03  0.7818608E-02  0.1097016E+00
         -1   -1    0    0    0  501 -0.00000000000E+00  0.00000000000E+00  0.68427218367E+02  0.68427218367E+02  0.00000000000E+00 0.  1.
          1   -1    0    0  501    0  0.00000000000E+00 -0.00000000000E+00 -0.28151370296E+03  0.28151370296E+03  0.00000000000E+00 0.  1.
         35    2    1    2    0    0  0.00000000000E+00  0.00000000000E+00 -0.21308648460E+03  0.34994092133E+03  0.27758385851E+03 0.  0.
         25    2    3    3    0    0 -0.12809236319E+02 -0.59604617724E+02 -0.10552897616E+03  0.17456737067E+03  0.12498245919E+03 0.  0.
         25    2    3    3    0    0  0.12809236319E+02  0.59604617724E+02 -0.10755750844E+03  0.17537355066E+03  0.12438037490E+03 0.  0.
          5    1    4    4  502    0  0.19992503604E+02 -0.67328086787E+02 -0.11876558493E+03  0.13805841385E+03  0.47000000000E+01 0.  1.
         -5    1    4    4    0  502 -0.32801739923E+02  0.77234690632E+01  0.13236608773E+02  0.36508956821E+02  0.47000000000E+01 0.  1.
          5    1    5    5  503    0  0.28130074906E+02 -0.33263540524E+02 -0.40926240255E+02  0.59956745941E+02  0.47000000000E+01 0. -1.
         -5    1    5    5    0  503 -0.15320838588E+02  0.92868158248E+02 -0.66631268184E+02  0.11541680472E+03  0.47000000000E+01 0. -1.
<mgrwt>
<rscale>  0 0.27758386E+03</rscale>
<asrwt>0</asrwt>
<pdfrwt beam="1">  1        1 0.43309801E-01 0.27758386E+03</pdfrwt>
<pdfrwt beam="2">  1       -1 0.10527264E-01 0.27758386E+03</pdfrwt>
<totfact> 0.53111065E+03</totfact>
</mgrwt>
</event>
<event>
 9    1  0.7997082E-001  0.2762254E+03  0.7818608E-02  0.1097769E+00
         -2   -1    0    0    0  501 -0.00000000000E+00  0.00000000000E+00  0.54615894978E+01  0.54615894978E+01  0.00000000000E+00 0.  1.
          2   -1    0    0  501    0  0.00000000000E+00 -0.00000000000E+00 -0.34925958300E+04  0.34925958300E+04  0.00000000000E+00 0.  1.
         35    2    1    2    0    0  0.00000000000E+00  0.00000000000E+00 -0.34871342405E+04  0.34980574195E+04  0.27622544926E+03 0.  0.
         25    2    3    3    0    0  0.57973686665E+02 -0.64861766667E+01 -0.18223281713E+04  0.18275211252E+04  0.12470156535E+03 0.  0.
         25    2    3    3    0    0 -0.57973686665E+02  0.64861766667E+01 -0.16648060692E+04  0.16705362943E+04  0.12533652139E+03 0.  0.
          5    1    4    4  502    0  0.30926338007E+02 -0.59956644107E+02 -0.12977273693E+04  0.12994882271E+04  0.47000000000E+01 0. -1.
         -5    1    4    4    0  502  0.27047348658E+02  0.53470467440E+02 -0.52460080204E+03  0.52803289808E+03  0.47000000000E+01 0. -1.
          5    1    5    5  503    0 -0.65903248572E+02  0.50795652082E+02 -0.75097439883E+03  0.75558459099E+03  0.47000000000E+01 0.  1.
         -5    1    5    5    0  503  0.79295619066E+01 -0.44309475416E+02 -0.91383167042E+03  0.91495170333E+03  0.47000000000E+01 0.  1.
<mgrwt>
<rscale>  0 0.27622545E+03</rscale>
<asrwt>0</asrwt>
<pdfrwt beam="1">  1        2 0.53732377E+00 0.27622545E+03</pdfrwt>
<pdfrwt beam="2">  1       -2 0.84024246E-03 0.27622545E+03</pdfrwt>
<totfact> 0.28149047E+03</totfact>
</mgrwt>
</event>
<event>
 9    1  0.7997082E-001  0.2752255E+03  0.7818608E-02  0.1098326E+00
          2   -1    0    0  501    0  0.00000000000E+00  0.00000000000E+00  0.28843399617E+03  0.28843399617E+03  0.00000000000E+00 0. -1.
         -2   -1    0    0    0  501 -0.00000000000E+00 -0.00000000000E+00 -0.65655471214E+02  0.65655471214E+02  0.00000000000E+00 0. -1.
         35    2    1    2    0    0  0.00000000000E+00  0.00000000000E+00  0.22277852495E+03  0.35408946738E+03  0.27522550705E+03 0.  0.
         25    2    3    3    0    0  0.45728946911E+02 -0.27622057633E+02  0.94395729974E+02  0.16707704487E+03  0.12708292738E+03 0.  0.
         25    2    3    3    0    0 -0.45728946911E+02  0.27622057633E+02  0.12838279498E+03  0.18701242251E+03  0.12504954808E+03 0.  0.
          5    1    4    4  502    0  0.55375361630E+02  0.14228569691E+02 -0.60974425563E+01  0.57690135004E+02  0.47000000000E+01 0. -1.
         -5    1    4    4    0  502 -0.96464147185E+01 -0.41850627324E+02  0.10049317253E+03  0.10938690986E+03  0.47000000000E+01 0. -1.
          5    1    5    5  503    0  0.36142853235E+02 -0.16444988821E+02  0.57341665443E+02  0.69906366614E+02  0.47000000000E+01 0. -1.
         -5    1    5    5    0  503 -0.81871800146E+02  0.44067046454E+02  0.71041129534E+02  0.11710605590E+03  0.47000000000E+01 0. -1.
<mgrwt>
<rscale>  0 0.27522551E+03</rscale>
<asrwt>0</asrwt>
<pdfrwt beam="1">  1        2 0.44374460E-01 0.27522551E+03</pdfrwt>
<pdfrwt beam="2">  1       -2 0.10100842E-01 0.27522551E+03</pdfrwt>
<totfact> 0.73961497E+03</totfact>
</mgrwt>
</event>
<event>
 9    1  0.7997082E-001  0.2774570E+03  0.7818608E-02  0.1097086E+00
         -1   -1    0    0    0  501 -0.00000000000E+00  0.00000000000E+00  0.26960744306E+03  0.26960744306E+03  0.00000000000E+00 0. -1.
          1   -1    0    0  501    0  0.00000000000E+00 -0.00000000000E+00 -0.71383754974E+02  0.71383754974E+02  0.00000000000E+00 0. -1.
         35    2    1    2    0    0  0.00000000000E+00 -0.14210854715E-13  0.19822368809E+03  0.34099119803E+03  0.27745696354E+03 0.  0.
         25    2    3    3    0    0  0.52390316673E+02  0.23179635567E+02  0.70838550209E+02  0.15456616965E+03  0.12486216327E+03 0.  0.
         25    2    3    3    0    0 -0.52390316673E+02 -0.23179635567E+02  0.12738513788E+03  0.18642502839E+03  0.12347176629E+03 0.  0.
          5    1    4    4  502    0  0.38892786309E+02  0.66088210869E+02  0.81384020149E+01  0.77256870440E+02  0.47000000000E+01 0.  1.
         -5    1    4    4    0  502  0.13497530364E+02 -0.42908575302E+02  0.62700148194E+02  0.77309299207E+02  0.47000000000E+01 0.  1.
          5    1    5    5  503    0  0.33130876458E+02 -0.26917869356E+02  0.73615896936E+02  0.85226855787E+02  0.47000000000E+01 0.  1.
         -5    1    5    5    0  503 -0.85521193131E+02  0.37382337891E+01  0.53769240941E+02  0.10119817260E+03  0.47000000000E+01 0.  1.
<mgrwt>
<rscale>  0 0.27745696E+03</rscale>
<asrwt>0</asrwt>
<pdfrwt beam="1">  1        1 0.10982116E-01 0.27745696E+03</pdfrwt>
<pdfrwt beam="2">  1       -1 0.41478067E-01 0.27745696E+03</pdfrwt>
<totfact> 0.32568438E+03</totfact>
</mgrwt>
</event>
<event>
 9    1  0.7997082E-001  0.2746956E+03  0.7818608E-02  0.1098622E+00
          1   -1    0    0  501    0  0.00000000000E+00  0.00000000000E+00  0.13309841142E+04  0.13309841142E+04  0.00000000000E+00 0. -1.
         -1   -1    0    0    0  501 -0.00000000000E+00 -0.00000000000E+00 -0.14173282945E+02  0.14173282945E+02  0.00000000000E+00 0. -1.
         35    2    1    2    0    0  0.00000000000E+00 -0.35527136788E-14  0.13168108313E+04  0.13451573971E+04  0.27469557292E+03 0.  0.
         25    2    3    3    0    0  0.42439989362E+02 -0.27026944302E+02  0.86568409328E+03  0.87449522490E+03  0.11314300946E+03 0.  0.
         25    2    3    3    0    0 -0.42439989362E+02  0.27026944302E+02  0.45112673797E+03  0.47066217224E+03  0.12440232416E+03 0.  0.
          5    1    4    4  502    0  0.49874315217E+02  0.66616578045E+01  0.78492645210E+03  0.78655161955E+03  0.47000000000E+01 0. -1.
         -5    1    4    4    0  502 -0.74343258544E+01 -0.33688602107E+02  0.80757641183E+02  0.87943605351E+02  0.47000000000E+01 0. -1.
          5    1    5    5  503    0 -0.47612861432E+02  0.15314635925E+02  0.55727535723E+02  0.75027800748E+02  0.47000000000E+01 0. -1.
         -5    1    5    5    0  503  0.51728720698E+01  0.11712308377E+02  0.39539920225E+03  0.39563437150E+03  0.47000000000E+01 0. -1.
<mgrwt>
<rscale>  0 0.27469557E+03</rscale>
<asrwt>0</asrwt>
<pdfrwt beam="1">  1        1 0.20476669E+00 0.27469557E+03</pdfrwt>
<pdfrwt beam="2">  1       -1 0.21805061E-02 0.27469557E+03</pdfrwt>
<totfact> 0.56138113E+03</totfact>
</mgrwt>
</event>
<event>
 9    1  0.7997082E-001  0.2757701E+03  0.7818608E-02  0.1098022E+00
         -2   -1    0    0    0  501 -0.00000000000E+00  0.00000000000E+00  0.50200790962E+02  0.50200790962E+02  0.00000000000E+00 0.  1.
          2   -1    0    0  501    0  0.00000000000E+00 -0.00000000000E+00 -0.37872476544E+03  0.37872476544E+03  0.00000000000E+00 0.  1.
         35    2    1    2    0    0 -0.88817841970E-15 -0.71054273576E-14 -0.32852397447E+03  0.42892555640E+03  0.27577006931E+03 0.  0.
         25    2    3    3    0    0  0.58171812163E+01 -0.55943450732E+02 -0.19122612565E+03  0.23543667043E+03  0.12529758727E+03 0.  0.
         25    2    3    3    0    0 -0.58171812163E+01  0.55943450732E+02 -0.13729784882E+03  0.19348888597E+03  0.12419235252E+03 0.  0.
          5    1    4    4  502    0  0.20602552583E+02 -0.79541596298E+02 -0.61681828994E+02  0.10284973866E+03  0.47000000000E+01 0.  1.
         -5    1    4    4    0  502 -0.14785371367E+02  0.23598145565E+02 -0.12954429666E+03  0.13258693177E+03  0.47000000000E+01 0.  1.
          5    1    5    5  503    0  0.21873859734E+01  0.58373774729E+02 -0.28222940069E+01  0.58671437489E+02  0.47000000000E+01 0. -1.
         -5    1    5    5    0  503 -0.80045671896E+01 -0.24303239968E+01 -0.13447555482E+03  0.13481744848E+03  0.47000000000E+01 0. -1.
<mgrwt>
<rscale>  0 0.27577007E+03</rscale>
<asrwt>0</asrwt>
<pdfrwt beam="1">  1        2 0.58265347E-01 0.27577007E+03</pdfrwt>
<pdfrwt beam="2">  1       -2 0.77231988E-02 0.27577007E+03</pdfrwt>
<totfact> 0.84143082E+03</totfact>
</mgrwt>
</event>
<event>
 9    1  0.7997082E-001  0.2746489E+03  0.7818608E-02  0.1098648E+00
          2   -1    0    0  501    0  0.00000000000E+00  0.00000000000E+00  0.93460759786E+03  0.93460759786E+03  0.00000000000E+00 0. -1.
         -2   -1    0    0    0  501 -0.00000000000E+00 -0.00000000000E+00 -0.20177457802E+02  0.20177457802E+02  0.00000000000E+00 0. -1.
         35    2    1    2    0    0 -0.35527136788E-14  0.00000000000E+00  0.91443014006E+03  0.95478505566E+03  0.27464890582E+03 0.  0.
         25    2    3    3    0    0  0.63659304674E+00  0.53189013821E+02  0.43278434985E+03  0.45365976490E+03  0.12520148710E+03 0.  0.
         25    2    3    3    0    0 -0.63659304674E+00 -0.53189013821E+02  0.48164579021E+03  0.50112529076E+03  0.12772788800E+03 0.  0.
          5    1    4    4  502    0  0.32076178154E+02  0.69478639093E-01  0.24309642006E+02  0.40520793758E+02  0.47000000000E+01 0. -1.
         -5    1    4    4    0  502 -0.31439585107E+02  0.53119535181E+02  0.40847470784E+03  0.41313897114E+03  0.47000000000E+01 0. -1.
          5    1    5    5  503    0 -0.27056071710E+02  0.60193496567E+01  0.37622256740E+03  0.37727148555E+03  0.47000000000E+01 0. -1.
         -5    1    5    5    0  503  0.26419478663E+02 -0.59208363477E+02  0.10542322281E+03  0.12385380522E+03  0.47000000000E+01 0. -1.
<mgrwt>
<rscale>  0 0.27464891E+03</rscale>
<asrwt>0</asrwt>
<pdfrwt beam="1">  1        2 0.14378575E+00 0.27464891E+03</pdfrwt>
<pdfrwt beam="2">  1       -2 0.31042250E-02 0.27464891E+03</pdfrwt>
<totfact> 0.11581437E+04</totfact>
</mgrwt>
</event>
<event>
 9    1  0.7997082E-001  0.2767680E+03  0.7818608E-02  0.1097467E+00
         -3   -1    0    0    0  501 -0.00000000000E+00  0.00000000000E+00  0.58647128520E+02  0.58647128520E+02  0.00000000000E+00 0.  1.
          3   -1    0    0  501    0  0.00000000000E+00 -0.00000000000E+00 -0.32653148869E+03  0.32653148869E+03  0.00000000000E+00 0.  1.
         35    2    1    2    0    0  0.00000000000E+00  0.71054273576E-14 -0.26788436017E+03  0.38517861721E+03  0.27676801971E+03 0.  0.
         25    2    3    3    0    0 -0.48267184745E+02 -0.35422511402E+02 -0.15742019600E+03  0.21020975492E+03  0.12578770813E+03 0.  0.
         25    2    3    3    0    0  0.48267184745E+02  0.35422511402E+02 -0.11046416417E+03  0.17496886229E+03  0.12176738384E+03 0.  0.
          5    1    4    4  502    0 -0.16288017836E+02  0.45099942130E+02 -0.82661332317E+02  0.95678054775E+02  0.47000000000E+01 0.  1.
         -5    1    4    4    0  502 -0.31979166909E+02 -0.80522453531E+02 -0.74758863687E+02  0.11453170015E+03  0.47000000000E+01 0.  1.
          5    1    5    5  503    0  0.45220007331E+02  0.77971064369E+02 -0.58427480867E+02  0.10751835407E+03  0.47000000000E+01 0. -1.
         -5    1    5    5    0  503  0.30471774147E+01 -0.42548552967E+02 -0.52036683303E+02  0.67450508218E+02  0.47000000000E+01 0. -1.
<mgrwt>
<rscale>  0 0.27676802E+03</rscale>
<asrwt>0</asrwt>
<pdfrwt beam="1">  1        3 0.50235615E-01 0.27676802E+03</pdfrwt>
<pdfrwt beam="2">  1       -3 0.90226349E-02 0.27676802E+03</pdfrwt>
<totfact> 0.88146717E+02</totfact>
</mgrwt>
</event>
<event>
 9    1  0.7997082E-001  0.2758689E+03  0.7818608E-02  0.1097967E+00
         -1   -1    0    0    0  501 -0.00000000000E+00  0.00000000000E+00  0.24417954617E+02  0.24417954617E+02  0.00000000000E+00 0. -1.
          1   -1    0    0  501    0  0.00000000000E+00 -0.00000000000E+00 -0.77917713540E+03  0.77917713540E+03  0.00000000000E+00 0. -1.
         35    2    1    2    0    0  0.00000000000E+00  0.71054273576E-14 -0.75475918078E+03  0.80359509002E+03  0.27586889590E+03 0.  0.
         25    2    3    3    0    0  0.36667857568E+02 -0.24255395839E+02 -0.49440349426E+03  0.51171048300E+03  0.12441843618E+03 0.  0.
         25    2    3    3    0    0 -0.36667857568E+02  0.24255395839E+02 -0.26035568652E+03  0.29188460702E+03  0.12441336064E+03 0.  0.
          5    1    4    4  502    0 -0.53016421332E+01 -0.64995424366E+02 -0.17193061807E+03  0.18394221926E+03  0.47000000000E+01 0. -1.
         -5    1    4    4    0  502  0.41969499701E+02  0.40740028526E+02 -0.32247287620E+03  0.32776826374E+03  0.47000000000E+01 0. -1.
          5    1    5    5  503    0 -0.78674325731E+01 -0.10507367152E+02  0.10372910755E+02  0.17377817391E+02  0.47000000000E+01 0. -1.
         -5    1    5    5    0  503 -0.28800424995E+02  0.34762762992E+02 -0.27072859727E+03  0.27450678963E+03  0.47000000000E+01 0. -1.
<mgrwt>
<rscale>  0 0.27586890E+03</rscale>
<asrwt>0</asrwt>
<pdfrwt beam="1">  1        1 0.11987340E+00 0.27586890E+03</pdfrwt>
<pdfrwt beam="2">  1       -1 0.37566086E-02 0.27586890E+03</pdfrwt>
<totfact> 0.64687555E+03</totfact>
</mgrwt>
</event>
<event>
 9    1  0.7997082E-001  0.2762239E+03  0.7818608E-02  0.1097769E+00
         -3   -1    0    0    0  501 -0.00000000000E+00  0.00000000000E+00  0.79398539519E+02  0.79398539519E+02  0.00000000000E+00 0.  1.
          3   -1    0    0  501    0  0.00000000000E+00 -0.00000000000E+00 -0.24024253137E+03  0.24024253137E+03  0.00000000000E+00 0.  1.
         35    2    1    2    0    0  0.00000000000E+00  0.00000000000E+00 -0.16084399185E+03  0.31964107089E+03  0.27622386661E+03 0.  0.
         25    2    3    3    0    0 -0.11623736835E+02 -0.52954026238E+02 -0.51924664570E+02  0.14561223439E+03  0.12476983554E+03 0.  0.
         25    2    3    3    0    0  0.11623736835E+02  0.52954026238E+02 -0.10891932728E+03  0.17402883650E+03  0.12443221418E+03 0.  0.
          5    1    4    4  502    0  0.61806802911E+01 -0.71042469791E+02  0.15751300805E+02  0.73180781629E+02  0.47000000000E+01 0. -1.
         -5    1    4    4    0  502 -0.17804417126E+02  0.18088443552E+02 -0.67675965375E+02  0.72431452759E+02  0.47000000000E+01 0. -1.
          5    1    5    5  503    0  0.18547986070E+02 -0.64349514829E+01  0.22101456606E+02  0.29933271988E+02  0.47000000000E+01 0.  1.
         -5    1    5    5    0  503 -0.69242492346E+01  0.59388977721E+02 -0.13102078389E+03  0.14409556452E+03  0.47000000000E+01 0.  1.
<mgrwt>
<rscale>  0 0.27622387E+03</rscale>
<asrwt>0</asrwt>
<pdfrwt beam="1">  1        3 0.36960390E-01 0.27622387E+03</pdfrwt>
<pdfrwt beam="2">  1       -3 0.12215160E-01 0.27622387E+03</pdfrwt>
<totfact> 0.97057052E+02</totfact>
</mgrwt>
</event>
<event>
 9    1  0.7997082E-001  0.2607835E+03  0.7818608E-02  0.1106673E+00
          1   -1    0    0  501    0  0.00000000000E+00  0.00000000000E+00  0.60749926584E+03  0.60749926584E+03  0.00000000000E+00 0.  1.
         -1   -1    0    0    0  501 -0.00000000000E+00 -0.00000000000E+00 -0.27986880516E+02  0.27986880516E+02  0.00000000000E+00 0.  1.
         35    2    1    2    0    0  0.00000000000E+00  0.00000000000E+00  0.57951238533E+03  0.63548614636E+03  0.26078350689E+03 0.  0.
         25    2    3    3    0    0 -0.19810131226E+02  0.28597038691E+02  0.25308209940E+03  0.28429538572E+03  0.12475209571E+03 0.  0.
         25    2    3    3    0    0  0.19810131226E+02 -0.28597038691E+02  0.32643028593E+03  0.35119076064E+03  0.12477173906E+03 0.  0.
          5    1    4    4  502    0 -0.59229515448E+02  0.48332886280E+02  0.20526157831E+03  0.21908584831E+03  0.47000000000E+01 0. -1.
         -5    1    4    4    0  502  0.39419384222E+02 -0.19735847589E+02  0.47820521085E+02  0.65209537411E+02  0.47000000000E+01 0. -1.
          5    1    5    5  503    0  0.40007691213E+02 -0.81096354022E+01  0.31828077495E+03  0.32092230095E+03  0.47000000000E+01 0. -1.
         -5    1    5    5    0  503 -0.20197559987E+02 -0.20487403289E+02  0.81495109755E+01  0.30268459692E+02  0.47000000000E+01 0. -1.
<mgrwt>
<rscale>  0 0.26078351E+03</rscale>
<asrwt>0</asrwt>
<pdfrwt beam="1">  1        1 0.93461416E-01 0.26078351E+03</pdfrwt>
<pdfrwt beam="2">  1       -1 0.43056744E-02 0.26078351E+03</pdfrwt>
<totfact> 0.75675649E+03</totfact>
</mgrwt>
</event>
<event>
 9    1  0.7997082E-001  0.2786602E+03  0.7818608E-02  0.1096423E+00
         -2   -1    0    0    0  501 -0.00000000000E+00  0.00000000000E+00  0.25428736122E+02  0.25428736122E+02  0.00000000000E+00 0. -1.
          2   -1    0    0  501    0  0.00000000000E+00 -0.00000000000E+00 -0.76342282732E+03  0.76342282732E+03  0.00000000000E+00 0. -1.
         35    2    1    2    0    0  0.71054273576E-14  0.35527136788E-14 -0.73799409120E+03  0.78885156345E+03  0.27866020617E+03 0.  0.
         25    2    3    3    0    0  0.53076273940E+02  0.13086031514E+02 -0.34563899368E+03  0.37140953526E+03  0.12446041078E+03 0.  0.
         25    2    3    3    0    0 -0.53076273940E+02 -0.13086031514E+02 -0.39235509752E+03  0.41744202819E+03  0.13163202221E+03 0.  0.
          5    1    4    4  502    0  0.77098326643E+02  0.48730915384E+02 -0.20876399520E+03  0.22786695631E+03  0.47000000000E+01 0.  1.
         -5    1    4    4    0  502 -0.24022052702E+02 -0.35644883869E+02 -0.13687499848E+03  0.14354257895E+03  0.47000000000E+01 0.  1.
          5    1    5    5  503    0 -0.77656138569E+01 -0.10546434234E+02  0.69395402043E+01  0.15549252454E+02  0.47000000000E+01 0. -1.
         -5    1    5    5    0  503 -0.45310660084E+02 -0.25395972802E+01 -0.39929463773E+03  0.40189277574E+03  0.47000000000E+01 0. -1.
<mgrwt>
<rscale>  0 0.27866021E+03</rscale>
<asrwt>0</asrwt>
<pdfrwt beam="1">  1        2 0.11744965E+00 0.27866021E+03</pdfrwt>
<pdfrwt beam="2">  1       -2 0.39121138E-02 0.27866021E+03</pdfrwt>
<totfact> 0.10670426E+04</totfact>
</mgrwt>
</event>
<event>
 9    1  0.7997082E-001  0.2911452E+03  0.7818608E-02  0.1089753E+00
         -2   -1    0    0    0  501 -0.00000000000E+00  0.00000000000E+00  0.16890456774E+02  0.16890456774E+02  0.00000000000E+00 0.  1.
          2   -1    0    0  501    0  0.00000000000E+00 -0.00000000000E+00 -0.12546362776E+04  0.12546362776E+04  0.00000000000E+00 0.  1.
         35    2    1    2    0    0 -0.71054273576E-14  0.00000000000E+00 -0.12377458209E+04  0.12715267344E+04  0.29114518587E+03 0.  0.
         25    2    3    3    0    0 -0.96930279549E+01 -0.66632948710E+02 -0.78132391567E+03  0.79414672327E+03  0.12517209048E+03 0.  0.
         25    2    3    3    0    0  0.96930279549E+01  0.66632948710E+02 -0.45642190519E+03  0.47738001114E+03  0.12262469104E+03 0.  0.
          5    1    4    4  502    0  0.14993814685E+01 -0.53988638936E+02 -0.77272220682E+03  0.77462166261E+03  0.47000000000E+01 0. -1.
         -5    1    4    4    0  502 -0.11192409423E+02 -0.12644309774E+02 -0.86017088480E+01  0.19525060652E+02  0.47000000000E+01 0. -1.
          5    1    5    5  503    0 -0.55376322905E+02  0.18259899816E+02 -0.20317428694E+03  0.21142810114E+03  0.47000000000E+01 0. -1.
         -5    1    5    5    0  503  0.65069350860E+02  0.48373048894E+02 -0.25324761825E+03  0.26595191000E+03  0.47000000000E+01 0. -1.
<mgrwt>
<rscale>  0 0.29114519E+03</rscale>
<asrwt>0</asrwt>
<pdfrwt beam="1">  1        2 0.19302098E+00 0.29114519E+03</pdfrwt>
<pdfrwt beam="2">  1       -2 0.25985316E-02 0.29114519E+03</pdfrwt>
<totfact> 0.97686860E+03</totfact>
</mgrwt>
</event>
<event>
 9    1  0.7997082E-001  0.2732483E+03  0.7818608E-02  0.1099435E+00
          3   -1    0    0  501    0  0.00000000000E+00  0.00000000000E+00  0.34357786429E+03  0.34357786429E+03  0.00000000000E+00 0.  1.
         -3   -1    0    0    0  501 -0.00000000000E+00 -0.00000000000E+00 -0.54328772143E+02  0.54328772143E+02  0.00000000000E+00 0.  1.
         35    2    1    2    0    0 -0.71054273576E-14  0.71054273576E-14  0.28924909215E+03  0.39790663644E+03  0.27324833762E+03 0.  0.
         25    2    3    3    0    0  0.21755599125E+02  0.43393866256E+02  0.18078485636E+03  0.22513473296E+03  0.12508457129E+03 0.  0.
         25    2    3    3    0    0 -0.21755599125E+02 -0.43393866256E+02  0.10846423579E+03  0.17277190347E+03  0.12541653185E+03 0.  0.
          5    1    4    4  502    0  0.38329654577E+02  0.23569634870E+02  0.29137710132E+01  0.45335087619E+02  0.47000000000E+01 0.  1.
         -5    1    4    4    0  502 -0.16574055451E+02  0.19824231386E+02  0.17787108534E+03  0.17979964534E+03  0.47000000000E+01 0.  1.
          5    1    5    5  503    0  0.47536540462E+02 -0.82825215147E+00  0.64318985430E+02  0.80121349012E+02  0.47000000000E+01 0. -1.
         -5    1    5    5    0  503 -0.69292139587E+02 -0.42565614104E+02  0.44145250362E+02  0.92650554462E+02  0.47000000000E+01 0. -1.
<mgrwt>
<rscale>  0 0.27324834E+03</rscale>
<asrwt>0</asrwt>
<pdfrwt beam="1">  1        3 0.52858132E-01 0.27324834E+03</pdfrwt>
<pdfrwt beam="2">  1       -3 0.83582728E-02 0.27324834E+03</pdfrwt>
<totfact> 0.90099630E+02</totfact>
</mgrwt>
</event>
<event>
 9    1  0.7997082E-001  0.2756665E+03  0.7818608E-02  0.1098080E+00
          2   -1    0    0  501    0  0.00000000000E+00  0.00000000000E+00  0.15755132244E+04  0.15755132244E+04  0.00000000000E+00 0.  1.
         -2   -1    0    0    0  501 -0.00000000000E+00 -0.00000000000E+00 -0.12058292826E+02  0.12058292826E+02  0.00000000000E+00 0.  1.
         35    2    1    2    0    0  0.00000000000E+00  0.00000000000E+00  0.15634549316E+04  0.15875715172E+04  0.27566646376E+03 0.  0.
         25    2    3    3    0    0  0.48016618805E+02  0.30413735942E+02  0.70837827783E+03  0.72158239426E+03  0.12510306227E+03 0.  0.
         25    2    3    3    0    0 -0.48016618805E+02 -0.30413735942E+02  0.85507665375E+03  0.86598912297E+03  0.12470158901E+03 0.  0.
          5    1    4    4  502    0  0.53243442465E+02  0.22387768424E+02  0.70854634319E+03  0.71091215124E+03  0.47000000000E+01 0. -1.
         -5    1    4    4    0  502 -0.52268236600E+01  0.80259675178E+01 -0.16806535330E+00  0.10670243021E+02  0.47000000000E+01 0. -1.
          5    1    5    5  503    0 -0.69956373762E+02 -0.27454641589E+02  0.82458727184E+03  0.82801806167E+03  0.47000000000E+01 0.  1.
         -5    1    5    5    0  503  0.21939754956E+02 -0.29590943532E+01  0.30489381911E+02  0.37971061300E+02  0.47000000000E+01 0.  1.
<mgrwt>
<rscale>  0 0.27566646E+03</rscale>
<asrwt>0</asrwt>
<pdfrwt beam="1">  1        2 0.24238649E+00 0.27566646E+03</pdfrwt>
<pdfrwt beam="2">  1       -2 0.18551232E-02 0.27566646E+03</pdfrwt>
<totfact> 0.10738825E+04</totfact>
</mgrwt>
</event>
<event>
 9    1  0.7997082E-001  0.2759573E+03  0.7818608E-02  0.1097918E+00
          2   -1    0    0  501    0  0.00000000000E+00  0.00000000000E+00  0.63662236837E+03  0.63662236837E+03  0.00000000000E+00 0.  1.
         -2   -1    0    0    0  501 -0.00000000000E+00 -0.00000000000E+00 -0.29904877713E+02  0.29904877713E+02  0.00000000000E+00 0.  1.
         35    2    1    2    0    0  0.71054273576E-14  0.00000000000E+00  0.60671749066E+03  0.66652724608E+03  0.27595734508E+03 0.  0.
         25    2    3    3    0    0  0.37050019143E+02 -0.27081197176E+02  0.21763857797E+03  0.25497269140E+03  0.12465322932E+03 0.  0.
         25    2    3    3    0    0 -0.37050019143E+02  0.27081197176E+02  0.38907891268E+03  0.41155455468E+03  0.12605021231E+03 0.  0.
          5    1    4    4  502    0 -0.12198807542E+02 -0.67414212066E+02  0.12178261122E+03  0.13980908872E+03  0.47000000000E+01 0. -1.
         -5    1    4    4    0  502  0.49248826685E+02  0.40333014890E+02  0.95855966751E+02  0.11516360268E+03  0.47000000000E+01 0. -1.
          5    1    5    5  503    0 -0.65808068779E+02  0.37827343878E+02  0.36335065794E+03  0.37122419168E+03  0.47000000000E+01 0.  1.
         -5    1    5    5    0  503  0.28758049635E+02 -0.10746146702E+02  0.25728254744E+02  0.40330363002E+02  0.47000000000E+01 0.  1.
<mgrwt>
<rscale>  0 0.27595735E+03</rscale>
<asrwt>0</asrwt>
<pdfrwt beam="1">  1        2 0.97941892E-01 0.27595735E+03</pdfrwt>
<pdfrwt beam="2">  1       -2 0.46007509E-02 0.27595735E+03</pdfrwt>
<totfact> 0.10411707E+04</totfact>
</mgrwt>
</event>
<event>
 9    1  0.7997082E-001  0.2753509E+03  0.7818608E-02  0.1098256E+00
         -1   -1    0    0    0  501 -0.00000000000E+00  0.00000000000E+00  0.19381017648E+02  0.19381017648E+02  0.00000000000E+00 0. -1.
          1   -1    0    0  501    0  0.00000000000E+00 -0.00000000000E+00 -0.97799472773E+03  0.97799472773E+03  0.00000000000E+00 0. -1.
         35    2    1    2    0    0 -0.71054273576E-14  0.00000000000E+00 -0.95861371008E+03  0.99737574538E+03  0.27535092575E+03 0.  0.
         25    2    3    3    0    0 -0.31112444141E+02  0.46966708865E+00 -0.68271425975E+03  0.69388605180E+03  0.12004535664E+03 0.  0.
         25    2    3    3    0    0  0.31112444141E+02 -0.46966708865E+00 -0.27589945034E+03  0.30348969358E+03  0.12254502294E+03 0.  0.
          5    1    4    4  502    0  0.36417308978E+02  0.31525039469E+02 -0.31611131679E+03  0.31979447011E+03  0.47000000000E+01 0. -1.
         -5    1    4    4    0  502 -0.67529753119E+02 -0.31055372380E+02 -0.36660294295E+03  0.37409158169E+03  0.47000000000E+01 0. -1.
          5    1    5    5  503    0  0.55394531272E+02  0.31382713420E+02 -0.24358781368E+03  0.25181449873E+03  0.47000000000E+01 0. -1.
         -5    1    5    5    0  503 -0.24282087131E+02 -0.31852380509E+02 -0.32311636654E+02  0.51675194850E+02  0.47000000000E+01 0. -1.
<mgrwt>
<rscale>  0 0.27535093E+03</rscale>
<asrwt>0</asrwt>
<pdfrwt beam="1">  1        1 0.15046070E+00 0.27535093E+03</pdfrwt>
<pdfrwt beam="2">  1       -1 0.29816955E-02 0.27535093E+03</pdfrwt>
<totfact> 0.63198802E+03</totfact>
</mgrwt>
</event>
<event>
 9    1  0.7997082E-001  0.2902116E+03  0.7818608E-02  0.1090239E+00
          2   -1    0    0  501    0  0.00000000000E+00  0.00000000000E+00  0.19126957920E+03  0.19126957920E+03  0.00000000000E+00 0.  1.
         -2   -1    0    0    0  501 -0.00000000000E+00 -0.00000000000E+00 -0.11008389499E+03  0.11008389499E+03  0.00000000000E+00 0.  1.
         35    2    1    2    0    0  0.00000000000E+00  0.00000000000E+00  0.81185684209E+02  0.30135347419E+03  0.29021164878E+03 0.  0.
         25    2    3    3    0    0 -0.58083483508E+02  0.39306815659E+02  0.61651022808E+02  0.15679155828E+03  0.12595248041E+03 0.  0.
         25    2    3    3    0    0  0.58083483508E+02 -0.39306815659E+02  0.19534661401E+02  0.14456191591E+03  0.12489126360E+03 0.  0.
          5    1    4    4  502    0 -0.75908671539E+02 -0.21002525764E+02  0.47714216518E+02  0.92206122146E+02  0.47000000000E+01 0. -1.
         -5    1    4    4    0  502  0.17825188031E+02  0.60309341422E+02  0.13936806290E+02  0.64585436135E+02  0.47000000000E+01 0. -1.
          5    1    5    5  503    0 -0.48963674740E+01 -0.52659083105E+02  0.50225281895E+02  0.73086403588E+02  0.47000000000E+01 0. -1.
         -5    1    5    5    0  503  0.62979850982E+02  0.13352267447E+02 -0.30690620494E+02  0.71475512324E+02  0.47000000000E+01 0. -1.
<mgrwt>
<rscale>  0 0.29021165E+03</rscale>
<asrwt>0</asrwt>
<pdfrwt beam="1">  1        2 0.29426089E-01 0.29021165E+03</pdfrwt>
<pdfrwt beam="2">  1       -2 0.16935984E-01 0.29021165E+03</pdfrwt>
<totfact> 0.49820735E+03</totfact>
</mgrwt>
</event>
<event>
 9    1  0.7997082E-001  0.2781994E+03  0.7818608E-02  0.1096676E+00
         -1   -1    0    0    0  501 -0.00000000000E+00  0.00000000000E+00  0.25216521623E+02  0.25216521623E+02  0.00000000000E+00 0. -1.
          1   -1    0    0  501    0  0.00000000000E+00 -0.00000000000E+00 -0.76730337691E+03  0.76730337691E+03  0.00000000000E+00 0. -1.
         35    2    1    2    0    0  0.00000000000E+00  0.00000000000E+00 -0.74208685528E+03  0.79251989853E+03  0.27819936877E+03 0.  0.
         25    2    3    3    0    0  0.60179894276E+02  0.26339178016E+00 -0.38289032814E+03  0.40736720012E+03  0.12538478095E+03 0.  0.
         25    2    3    3    0    0 -0.60179894276E+02 -0.26339178016E+00 -0.35919652714E+03  0.38515269841E+03  0.12529472030E+03 0.  0.
          5    1    4    4  502    0  0.31369032171E+02  0.58545644534E+02 -0.25843109765E+03  0.26687137521E+03  0.47000000000E+01 0.  1.
         -5    1    4    4    0  502  0.28810862105E+02 -0.58282252754E+02 -0.12445923049E+03  0.14049582490E+03  0.47000000000E+01 0.  1.
          5    1    5    5  503    0 -0.53435070898E+02 -0.58847192280E+02 -0.19544715584E+03  0.21104497048E+03  0.47000000000E+01 0.  1.
         -5    1    5    5    0  503 -0.67448233782E+01  0.58583800500E+02 -0.16374937130E+03  0.17410772793E+03  0.47000000000E+01 0.  1.
<mgrwt>
<rscale>  0 0.27819937E+03</rscale>
<asrwt>0</asrwt>
<pdfrwt beam="1">  1        1 0.11804668E+00 0.27819937E+03</pdfrwt>
<pdfrwt beam="2">  1       -1 0.38794646E-02 0.27819937E+03</pdfrwt>
<totfact> 0.63136046E+03</totfact>
</mgrwt>
</event>
<event>
 9    1  0.7997082E-001  0.2768637E+03  0.7818608E-02  0.1097414E+00
          3   -1    0    0  501    0  0.00000000000E+00  0.00000000000E+00  0.85840308962E+02  0.85840308962E+02  0.00000000000E+00 0.  1.
         -3   -1    0    0    0  501 -0.00000000000E+00 -0.00000000000E+00 -0.22324458059E+03  0.22324458059E+03  0.00000000000E+00 0.  1.
         35    2    1    2    0    0 -0.53290705182E-14 -0.71054273576E-14 -0.13740427163E+03  0.30908488955E+03  0.27686374824E+03 0.  0.
         25    2    3    3    0    0 -0.23493373640E+01 -0.40485863737E+02 -0.17745929386E+02  0.12852531396E+03  0.12066156708E+03 0.  0.
         25    2    3    3    0    0  0.23493373640E+01  0.40485863737E+02 -0.11965834224E+03  0.18055957559E+03  0.12899231342E+03 0.  0.
          5    1    4    4  502    0  0.58900663463E+02 -0.21679298102E+02 -0.11459090795E+02  0.63974064154E+02  0.47000000000E+01 0. -1.
         -5    1    4    4    0  502 -0.61250000827E+02 -0.18806565635E+02 -0.62868385911E+01  0.64551249808E+02  0.47000000000E+01 0. -1.
          5    1    5    5  503    0  0.39870296429E+01  0.67476895680E+02 -0.13358170343E+03  0.14978380869E+03  0.47000000000E+01 0.  1.
         -5    1    5    5    0  503 -0.16376922789E+01 -0.26991031943E+02  0.13923361186E+02  0.30775766896E+02  0.47000000000E+01 0.  1.
<mgrwt>
<rscale>  0 0.27686375E+03</rscale>
<asrwt>0</asrwt>
<pdfrwt beam="1">  1        3 0.13206201E-01 0.27686375E+03</pdfrwt>
<pdfrwt beam="2">  1       -3 0.34345320E-01 0.27686375E+03</pdfrwt>
<totfact> 0.97800668E+02</totfact>
</mgrwt>
</event>
<event>
 9    1  0.7997082E-001  0.2781681E+03  0.7818608E-02  0.1096694E+00
         -1   -1    0    0    0  501 -0.00000000000E+00  0.00000000000E+00  0.33258542398E+03  0.33258542398E+03  0.00000000000E+00 0.  1.
          1   -1    0    0  501    0  0.00000000000E+00 -0.00000000000E+00 -0.58163602509E+02  0.58163602509E+02  0.00000000000E+00 0.  1.
         35    2    1    2    0    0  0.00000000000E+00  0.71054273576E-14  0.27442182147E+03  0.39074902649E+03  0.27816805281E+03 0.  0.
         25    2    3    3    0    0 -0.24163152196E+02  0.44593067497E+02  0.87186617621E+02  0.15971927680E+03  0.12383998343E+03 0.  0.
         25    2    3    3    0    0  0.24163152196E+02 -0.44593067497E+02  0.18723520385E+03  0.23102974969E+03  0.12548037331E+03 0.  0.
          5    1    4    4  502    0  0.68444060480E+01  0.62968399059E+02 -0.18589973949E+01  0.63540625159E+02  0.47000000000E+01 0.  1.
         -5    1    4    4    0  502 -0.31007558244E+02 -0.18375331563E+02  0.89045615016E+02  0.96178651643E+02  0.47000000000E+01 0.  1.
          5    1    5    5  503    0 -0.21797273201E+02 -0.61416671003E+02  0.16422128144E+03  0.17674232055E+03  0.47000000000E+01 0.  1.
         -5    1    5    5    0  503  0.45960425397E+02  0.16823603507E+02  0.23013922412E+02  0.54287429137E+02  0.47000000000E+01 0.  1.
<mgrwt>
<rscale>  0 0.27816805E+03</rscale>
<asrwt>0</asrwt>
<pdfrwt beam="1">  1        1 0.89482468E-02 0.27816805E+03</pdfrwt>
<pdfrwt beam="2">  1       -1 0.51166987E-01 0.27816805E+03</pdfrwt>
<totfact> 0.29269822E+03</totfact>
</mgrwt>
</event>
<event>
 9    1  0.7997082E-001  0.2713376E+03  0.7818608E-02  0.1100516E+00
          2   -1    0    0  501    0  0.00000000000E+00  0.00000000000E+00  0.11440989984E+04  0.11440989984E+04  0.00000000000E+00 0.  1.
         -2   -1    0    0    0  501 -0.00000000000E+00 -0.00000000000E+00 -0.16087788582E+02  0.16087788582E+02  0.00000000000E+00 0.  1.
         35    2    1    2    0    0  0.71054273576E-14 -0.35527136788E-14  0.11280112098E+04  0.11601867870E+04  0.27133759638E+03 0.  0.
         25    2    3    3    0    0  0.47015721428E+02 -0.22216937307E+02  0.57034184921E+03  0.58644779075E+03  0.12620267808E+03 0.  0.
         25    2    3    3    0    0 -0.47015721428E+02  0.22216937307E+02  0.55766936058E+03  0.57373899620E+03  0.12440759489E+03 0.  0.
          5    1    4    4  502    0  0.35334067692E+02 -0.30103374386E+02  0.56966754847E+03  0.57157494283E+03  0.47000000000E+01 0. -1.
         -5    1    4    4    0  502  0.11681653735E+02  0.78864370791E+01  0.67430073452E+00  0.14872847921E+02  0.47000000000E+01 0. -1.
          5    1    5    5  503    0  0.33505414588E+02  0.56888836987E+01  0.58445701011E+02  0.67771425920E+02  0.47000000000E+01 0. -1.
         -5    1    5    5    0  503 -0.80521136016E+02  0.16528053608E+02  0.49922365957E+03  0.50596757028E+03  0.47000000000E+01 0. -1.
<mgrwt>
<rscale>  0 0.27133760E+03</rscale>
<asrwt>0</asrwt>
<pdfrwt beam="1">  1        2 0.17601517E+00 0.27133760E+03</pdfrwt>
<pdfrwt beam="2">  1       -2 0.24750453E-02 0.27133760E+03</pdfrwt>
<totfact> 0.12114025E+04</totfact>
</mgrwt>
</event>
<event>
 9    1  0.7997082E-001  0.2761719E+03  0.7818608E-02  0.1097798E+00
          2   -1    0    0  501    0  0.00000000000E+00  0.00000000000E+00  0.20141876585E+04  0.20141876585E+04  0.00000000000E+00 0. -1.
         -2   -1    0    0    0  501 -0.00000000000E+00 -0.00000000000E+00 -0.94667089154E+01  0.94667089154E+01  0.00000000000E+00 0. -1.
         35    2    1    2    0    0  0.00000000000E+00  0.00000000000E+00  0.20047209495E+04  0.20236543674E+04  0.27617189041E+03 0.  0.
         25    2    3    3    0    0  0.12642364883E+02 -0.64913867210E+02  0.10224623738E+04  0.10314628736E+04  0.11879694534E+03 0.  0.
         25    2    3    3    0    0 -0.12642364883E+02  0.64913867210E+02  0.98225857576E+03  0.99219149379E+03  0.12344395959E+03 0.  0.
          5    1    4    4  502    0 -0.42689894182E+02 -0.65143526741E+02  0.49906172578E+03  0.50512454135E+03  0.47000000000E+01 0. -1.
         -5    1    4    4    0  502  0.55332259065E+02  0.22965953081E+00  0.52340064802E+03  0.52633833224E+03  0.47000000000E+01 0. -1.
          5    1    5    5  503    0  0.95828412339E+01  0.97080381945E+02  0.78400337145E+03  0.79006316700E+03  0.47000000000E+01 0.  1.
         -5    1    5    5    0  503 -0.22225206117E+02 -0.32166514735E+02  0.19825520430E+03  0.20212832679E+03  0.47000000000E+01 0.  1.
<mgrwt>
<rscale>  0 0.27617189E+03</rscale>
<asrwt>0</asrwt>
<pdfrwt beam="1">  1        2 0.30987468E+00 0.27617189E+03</pdfrwt>
<pdfrwt beam="2">  1       -2 0.14564184E-02 0.27617189E+03</pdfrwt>
<totfact> 0.89962847E+03</totfact>
</mgrwt>
</event>
<event>
 9    1  0.7997082E-001  0.2704324E+03  0.7818608E-02  0.1101032E+00
         -2   -1    0    0    0  501 -0.00000000000E+00  0.00000000000E+00  0.21036287122E+02  0.21036287122E+02  0.00000000000E+00 0.  1.
          2   -1    0    0  501    0  0.00000000000E+00 -0.00000000000E+00 -0.86913740921E+03  0.86913740921E+03  0.00000000000E+00 0.  1.
         35    2    1    2    0    0  0.00000000000E+00  0.71054273576E-14 -0.84810112209E+03  0.89017369634E+03  0.27043242475E+03 0.  0.
         25    2    3    3    0    0 -0.51458712970E+02 -0.12709313299E+02 -0.39921024700E+03  0.42156083326E+03  0.12464023844E+03 0.  0.
         25    2    3    3    0    0  0.51458712970E+02  0.12709313299E+02 -0.44889087509E+03  0.46861286308E+03  0.12363442854E+03 0.  0.
          5    1    4    4  502    0 -0.45804429494E+02  0.51894018928E+02 -0.17984900673E+03  0.19276615415E+03  0.47000000000E+01 0. -1.
         -5    1    4    4    0  502 -0.56542834764E+01 -0.64603332226E+02 -0.21936124027E+03  0.22879467911E+03  0.47000000000E+01 0. -1.
          5    1    5    5  503    0  0.25104379514E+02 -0.43133188002E+02 -0.78914691199E+02  0.93489679992E+02  0.47000000000E+01 0. -1.
         -5    1    5    5    0  503  0.26354333456E+02  0.55842501300E+02 -0.36997618389E+03  0.37512318309E+03  0.47000000000E+01 0. -1.
<mgrwt>
<rscale>  0 0.27043242E+03</rscale>
<asrwt>0</asrwt>
<pdfrwt beam="1">  1        2 0.13371344E+00 0.27043242E+03</pdfrwt>
<pdfrwt beam="2">  1       -2 0.32363520E-02 0.27043242E+03</pdfrwt>
<totfact> 0.11989264E+04</totfact>
</mgrwt>
</event>
<event>
 9    1  0.7997082E-001  0.2740184E+03  0.7818608E-02  0.1099002E+00
         -2   -1    0    0    0  501 -0.00000000000E+00  0.00000000000E+00  0.11173432797E+03  0.11173432797E+03  0.00000000000E+00 0.  1.
          2   -1    0    0  501    0  0.00000000000E+00 -0.00000000000E+00 -0.16800131716E+03  0.16800131716E+03  0.00000000000E+00 0.  1.
         35    2    1    2    0    0  0.35527136788E-14  0.00000000000E+00 -0.56266989184E+02  0.27973564513E+03  0.27401835173E+03 0.  0.
         25    2    3    3    0    0 -0.27595635452E+02  0.47814418306E+02 -0.32150303359E+02  0.14036179934E+03  0.12498021849E+03 0.  0.
         25    2    3    3    0    0  0.27595635452E+02 -0.47814418306E+02 -0.24116685826E+02  0.13937384580E+03  0.12568101155E+03 0.  0.
          5    1    4    4  502    0  0.90027340682E+01 -0.45810400682E+01 -0.66654280236E+02  0.67578977668E+02  0.47000000000E+01 0.  1.
         -5    1    4    4    0  502 -0.36598369520E+02  0.52395458374E+02  0.34503976878E+02  0.72782821669E+02  0.47000000000E+01 0.  1.
          5    1    5    5  503    0 -0.37023746181E+02 -0.54738622166E+02 -0.32296037204E+02  0.73703450102E+02  0.47000000000E+01 0. -1.
         -5    1    5    5    0  503  0.64619381633E+02  0.69242038602E+01  0.81793513781E+01  0.65670395695E+02  0.47000000000E+01 0. -1.
<mgrwt>
<rscale>  0 0.27401835E+03</rscale>
<asrwt>0</asrwt>
<pdfrwt beam="1">  1        2 0.25846356E-01 0.27401835E+03</pdfrwt>
<pdfrwt beam="2">  1       -2 0.17189897E-01 0.27401835E+03</pdfrwt>
<totfact> 0.55990688E+03</totfact>
</mgrwt>
</event>
<event>
 9    1  0.7997082E-001  0.2694585E+03  0.7818608E-02  0.1101590E+00
         -1   -1    0    0    0  501 -0.00000000000E+00  0.00000000000E+00  0.46963264692E+02  0.46963264692E+02  0.00000000000E+00 0. -1.
          1   -1    0    0  501    0  0.00000000000E+00 -0.00000000000E+00 -0.38651433499E+03  0.38651433499E+03  0.00000000000E+00 0. -1.
         35    2    1    2    0    0 -0.35527136788E-14  0.26645352591E-14 -0.33955107030E+03  0.43347759968E+03  0.26945853129E+03 0.  0.
         25    2    3    3    0    0 -0.28591979796E+02  0.12978431887E+00 -0.10979733417E+03  0.16893846277E+03  0.12516881185E+03 0.  0.
         25    2    3    3    0    0  0.28591979796E+02 -0.12978431887E+00 -0.22975373613E+03  0.26453913691E+03  0.12797131530E+03 0.  0.
          5    1    4    4  502    0 -0.23089406750E+02 -0.50013466107E+02 -0.88483314466E+01  0.55989735358E+02  0.47000000000E+01 0.  1.
         -5    1    4    4    0  502 -0.55025730464E+01  0.50143250426E+02 -0.10094900272E+03  0.11294872741E+03  0.47000000000E+01 0.  1.
          5    1    5    5  503    0 -0.31123308638E+02  0.74115529537E+01 -0.61348063397E+01  0.32913785965E+02  0.47000000000E+01 0. -1.
         -5    1    5    5    0  503  0.59715288434E+02 -0.75413372726E+01 -0.22361892979E+03  0.23162535095E+03  0.47000000000E+01 0. -1.
<mgrwt>
<rscale>  0 0.26945853E+03</rscale>
<asrwt>0</asrwt>
<pdfrwt beam="1">  1        1 0.59463746E-01 0.26945853E+03</pdfrwt>
<pdfrwt beam="2">  1       -1 0.72251174E-02 0.26945853E+03</pdfrwt>
<totfact> 0.63316959E+03</totfact>
</mgrwt>
</event>
<event>
 9    1  0.7997082E-001  0.2728741E+03  0.7818608E-02  0.1099646E+00
         -2   -1    0    0    0  501 -0.00000000000E+00  0.00000000000E+00  0.98884276183E+02  0.98884276183E+02  0.00000000000E+00 0.  1.
          2   -1    0    0  501    0  0.00000000000E+00 -0.00000000000E+00 -0.18825111643E+03  0.18825111643E+03  0.00000000000E+00 0.  1.
         35    2    1    2    0    0  0.71054273576E-14  0.00000000000E+00 -0.89366840250E+02  0.28713539262E+03  0.27287414967E+03 0.  0.
         25    2    3    3    0    0 -0.10822020504E+02  0.33905231521E+02 -0.88855752111E+02  0.15698593908E+03  0.12442893367E+03 0.  0.
         25    2    3    3    0    0  0.10822020504E+02 -0.33905231521E+02 -0.51108813912E+00  0.13014945354E+03  0.12518761198E+03 0.  0.
          5    1    4    4  502    0 -0.64911701723E+02  0.41254125135E+01 -0.30865383699E+02  0.72147834062E+02  0.47000000000E+01 0.  1.
         -5    1    4    4    0  502  0.54089681219E+02  0.29779819008E+02 -0.57990368411E+02  0.84838105017E+02  0.47000000000E+01 0.  1.
          5    1    5    5  503    0 -0.18861330864E+02  0.97010087259E+01 -0.51957075448E+02  0.56315957431E+02  0.47000000000E+01 0. -1.
         -5    1    5    5    0  503  0.29683351368E+02 -0.43606240247E+02  0.51445987309E+02  0.73833496105E+02  0.47000000000E+01 0. -1.
<mgrwt>
<rscale>  0 0.27287415E+03</rscale>
<asrwt>0</asrwt>
<pdfrwt beam="1">  1        2 0.28961710E-01 0.27287415E+03</pdfrwt>
<pdfrwt beam="2">  1       -2 0.15212966E-01 0.27287415E+03</pdfrwt>
<totfact> 0.60496409E+03</totfact>
</mgrwt>
</event>
<event>
 9    1  0.7997082E-001  0.2728752E+03  0.7818608E-02  0.1099645E+00
          2   -1    0    0  501    0  0.00000000000E+00  0.00000000000E+00  0.19623485978E+03  0.19623485978E+03  0.00000000000E+00 0.  1.
         -2   -1    0    0    0  501 -0.00000000000E+00 -0.00000000000E+00 -0.94861951040E+02  0.94861951040E+02  0.00000000000E+00 0.  1.
         35    2    1    2    0    0  0.35527136788E-14  0.00000000000E+00  0.10137290874E+03  0.29109681082E+03  0.27287522175E+03 0.  0.
         25    2    3    3    0    0  0.18258921215E+02 -0.49650421019E+02  0.64176484901E+02  0.15067145224E+03  0.12563722694E+03 0.  0.
         25    2    3    3    0    0 -0.18258921215E+02  0.49650421019E+02  0.37196423836E+02  0.14042535858E+03  0.12464812423E+03 0.  0.
          5    1    4    4  502    0 -0.46153734590E+02 -0.49116589441E+02  0.14277048576E+02  0.69054548662E+02  0.47000000000E+01 0. -1.
         -5    1    4    4    0  502  0.64412655804E+02 -0.53383157800E+00  0.49899436325E+02  0.81616903577E+02  0.47000000000E+01 0. -1.
          5    1    5    5  503    0  0.19850528115E+02  0.65344483485E+02  0.61776330224E+02  0.92208188163E+02  0.47000000000E+01 0. -1.
         -5    1    5    5    0  503 -0.38109449329E+02 -0.15694062466E+02 -0.24579906388E+02  0.48217170416E+02  0.47000000000E+01 0. -1.
<mgrwt>
<rscale>  0 0.27287522E+03</rscale>
<asrwt>0</asrwt>
<pdfrwt beam="1">  1        2 0.30189978E-01 0.27287522E+03</pdfrwt>
<pdfrwt beam="2">  1       -2 0.14594146E-01 0.27287522E+03</pdfrwt>
<totfact> 0.61898832E+03</totfact>
</mgrwt>
</event>
<event>
 9    1  0.7997082E-001  0.2772760E+03  0.7818608E-02  0.1097186E+00
          2   -1    0    0  501    0  0.00000000000E+00  0.00000000000E+00  0.55736265297E+03  0.55736265297E+03  0.00000000000E+00 0. -1.
         -2   -1    0    0    0  501 -0.00000000000E+00 -0.00000000000E+00 -0.34484715632E+02  0.34484715632E+02  0.00000000000E+00 0. -1.
         35    2    1    2    0    0  0.35527136788E-14 -0.14210854715E-13  0.52287793734E+03  0.59184736860E+03  0.27727598231E+03 0.  0.
         25    2    3    3    0    0  0.31566841736E+02  0.37496079905E+02  0.33288818405E+03  0.35911383048E+03  0.12548218462E+03 0.  0.
         25    2    3    3    0    0 -0.31566841736E+02 -0.37496079905E+02  0.18998975329E+03  0.23273353812E+03  0.12516537823E+03 0.  0.
          5    1    4    4  502    0  0.59507393778E+02 -0.17597539271E+02  0.23635799990E+03  0.24441357863E+03  0.47000000000E+01 0.  1.
         -5    1    4    4    0  502 -0.27940552043E+02  0.55093619177E+02  0.96530184151E+02  0.11470025185E+03  0.47000000000E+01 0.  1.
          5    1    5    5  503    0 -0.44167717036E+02 -0.56354324549E+02  0.19606908989E+03  0.20878643427E+03  0.47000000000E+01 0. -1.
         -5    1    5    5    0  503  0.12600875300E+02  0.18858244643E+02 -0.60793366036E+01  0.23947103852E+02  0.47000000000E+01 0. -1.
<mgrwt>
<rscale>  0 0.27727598E+03</rscale>
<asrwt>0</asrwt>
<pdfrwt beam="1">  1        2 0.85748094E-01 0.27727598E+03</pdfrwt>
<pdfrwt beam="2">  1       -2 0.53053413E-02 0.27727598E+03</pdfrwt>
<totfact> 0.97855746E+03</totfact>
</mgrwt>
</event>
<event>
 9    1  0.7997082E-001  0.2674874E+03  0.7818608E-02  0.1102726E+00
          2   -1    0    0  501    0  0.00000000000E+00  0.00000000000E+00  0.74104679184E+03  0.74104679184E+03  0.00000000000E+00 0.  1.
         -2   -1    0    0    0  501 -0.00000000000E+00 -0.00000000000E+00 -0.24137989754E+02  0.24137989754E+02  0.00000000000E+00 0.  1.
         35    2    1    2    0    0  0.00000000000E+00  0.00000000000E+00  0.71690880208E+03  0.76518478159E+03  0.26748741928E+03 0.  0.
         25    2    3    3    0    0  0.25795931983E+01  0.40074626712E+02  0.43040116998E+03  0.45010158557E+03  0.12543380804E+03 0.  0.
         25    2    3    3    0    0 -0.25795931983E+01 -0.40074626712E+02  0.28650763210E+03  0.31508319602E+03  0.12481252805E+03 0.  0.
          5    1    4    4  502    0 -0.21601737601E+02  0.70662670154E+02  0.15343827185E+03  0.17036795852E+03  0.47000000000E+01 0. -1.
         -5    1    4    4    0  502  0.24181330799E+02 -0.30588043441E+02  0.27696289813E+03  0.27973362705E+03  0.47000000000E+01 0. -1.
          5    1    5    5  503    0  0.12352063498E+02 -0.79474500670E+02  0.23468106516E+03  0.24812509360E+03  0.47000000000E+01 0. -1.
         -5    1    5    5    0  503 -0.14931656696E+02  0.39399873958E+02  0.51826566942E+02  0.66958102426E+02  0.47000000000E+01 0. -1.
<mgrwt>
<rscale>  0 0.26748742E+03</rscale>
<asrwt>0</asrwt>
<pdfrwt beam="1">  1        2 0.11400718E+00 0.26748742E+03</pdfrwt>
<pdfrwt beam="2">  1       -2 0.37135375E-02 0.26748742E+03</pdfrwt>
<totfact> 0.11955146E+04</totfact>
</mgrwt>
</event>
<event>
 9    1  0.7997082E-001  0.2734551E+03  0.7818608E-02  0.1099318E+00
          2   -1    0    0  501    0  0.00000000000E+00  0.00000000000E+00  0.59840535529E+03  0.59840535529E+03  0.00000000000E+00 0.  1.
         -2   -1    0    0    0  501 -0.00000000000E+00 -0.00000000000E+00 -0.31240396580E+02  0.31240396580E+02  0.00000000000E+00 0.  1.
         35    2    1    2    0    0  0.00000000000E+00 -0.71054273576E-14  0.56716495871E+03  0.62964575187E+03  0.27345508307E+03 0.  0.
         25    2    3    3    0    0  0.11713960993E+02  0.42441646829E+02  0.20573432674E+03  0.24469804874E+03  0.12494803555E+03 0.  0.
         25    2    3    3    0    0 -0.11713960993E+02 -0.42441646829E+02  0.36143063197E+03  0.38494770313E+03  0.12495648104E+03 0.  0.
          5    1    4    4  502    0  0.14575225006E+02 -0.42497871403E+02  0.51249835787E+02  0.68316483560E+02  0.47000000000E+01 0. -1.
         -5    1    4    4    0  502 -0.28612640130E+01  0.84939518232E+02  0.15448449096E+03  0.17638156518E+03  0.47000000000E+01 0. -1.
          5    1    5    5  503    0 -0.16669027864E+02  0.16626965614E+02  0.62288879445E+01  0.24803256248E+02  0.47000000000E+01 0. -1.
         -5    1    5    5    0  503  0.49550668710E+01 -0.59068612443E+02  0.35520174402E+03  0.36014444688E+03  0.47000000000E+01 0. -1.
<mgrwt>
<rscale>  0 0.27345508E+03</rscale>
<asrwt>0</asrwt>
<pdfrwt beam="1">  1        2 0.92062354E-01 0.27345508E+03</pdfrwt>
<pdfrwt beam="2">  1       -2 0.48062153E-02 0.27345508E+03</pdfrwt>
<totfact> 0.10473227E+04</totfact>
</mgrwt>
</event>
<event>
 9    1  0.7997082E-001  0.2845391E+03  0.7818608E-02  0.1093235E+00
         -2   -1    0    0    0  501 -0.00000000000E+00  0.00000000000E+00  0.43946620713E+02  0.43946620713E+02  0.00000000000E+00 0.  1.
          2   -1    0    0  501    0  0.00000000000E+00 -0.00000000000E+00 -0.46057299244E+03  0.46057299244E+03  0.00000000000E+00 0.  1.
         35    2    1    2    0    0  0.00000000000E+00  0.00000000000E+00 -0.41662637172E+03  0.50451961315E+03  0.28453911231E+03 0.  0.
         25    2    3    3    0    0 -0.70542937100E+01  0.27427409500E+02 -0.31856579523E+03  0.34312164911E+03  0.12428304127E+03 0.  0.
         25    2    3    3    0    0  0.70542937100E+01 -0.27427409500E+02 -0.98060576495E+02  0.16139796404E+03  0.12502559851E+03 0.  0.
          5    1    4    4  502    0  0.77163800426E+01  0.57433103521E+02 -0.64559389600E+02  0.86879852017E+02  0.47000000000E+01 0. -1.
         -5    1    4    4    0  502 -0.14770673753E+02 -0.30005694021E+02 -0.25400640563E+03  0.25624179709E+03  0.47000000000E+01 0. -1.
          5    1    5    5  503    0  0.15094735625E+02 -0.75841135284E+02 -0.71371047885E+02  0.10533586911E+03  0.47000000000E+01 0. -1.
         -5    1    5    5    0  503 -0.80404419145E+01  0.48413725784E+02 -0.26689528610E+02  0.56062094930E+02  0.47000000000E+01 0. -1.
<mgrwt>
<rscale>  0 0.28453911E+03</rscale>
<asrwt>0</asrwt>
<pdfrwt beam="1">  1        2 0.70857382E-01 0.28453911E+03</pdfrwt>
<pdfrwt beam="2">  1       -2 0.67610187E-02 0.28453911E+03</pdfrwt>
<totfact> 0.83629153E+03</totfact>
</mgrwt>
</event>
<event>
 9    1  0.7997082E-001  0.2709351E+03  0.7818608E-02  0.1100746E+00
          1   -1    0    0  501    0  0.00000000000E+00  0.00000000000E+00  0.21570100334E+04  0.21570100334E+04  0.00000000000E+00 0.  1.
         -1   -1    0    0    0  501 -0.00000000000E+00 -0.00000000000E+00 -0.85078218710E+01  0.85078218710E+01  0.00000000000E+00 0.  1.
         35    2    1    2    0    0  0.00000000000E+00 -0.35527136788E-14  0.21485022115E+04  0.21655178552E+04  0.27093510026E+03 0.  0.
         25    2    3    3    0    0 -0.35786782168E+02 -0.24951456572E+02  0.12939169806E+04  0.13005677865E+04  0.12390377556E+03 0.  0.
         25    2    3    3    0    0  0.35786782168E+02  0.24951456572E+02  0.85458523084E+03  0.86495006869E+03  0.12617224578E+03 0.  0.
          5    1    4    4  502    0 -0.46068831942E+02  0.41710949932E+02  0.52583636018E+03  0.52951686310E+03  0.47000000000E+01 0.  1.
         -5    1    4    4    0  502  0.10282049774E+02 -0.66662406504E+02  0.76808062047E+03  0.77105092343E+03  0.47000000000E+01 0.  1.
          5    1    5    5  503    0 -0.37474499878E+02 -0.17280487818E+02  0.42994144469E+03  0.43194292362E+03  0.47000000000E+01 0. -1.
         -5    1    5    5    0  503  0.73261282046E+02  0.42231944390E+02  0.42464378615E+03  0.43300714507E+03  0.47000000000E+01 0. -1.
<mgrwt>
<rscale>  0 0.27093510E+03</rscale>
<asrwt>0</asrwt>
<pdfrwt beam="1">  1        1 0.33184726E+00 0.27093510E+03</pdfrwt>
<pdfrwt beam="2">  1       -1 0.13088974E-02 0.27093510E+03</pdfrwt>
<totfact> 0.33938929E+03</totfact>
</mgrwt>
</event>
<event>
 9    1  0.7997082E-001  0.2806847E+03  0.7818608E-02  0.1095316E+00
         -1   -1    0    0    0  501 -0.00000000000E+00  0.00000000000E+00  0.10564321008E+04  0.10564321008E+04  0.00000000000E+00 0. -1.
          1   -1    0    0  501    0  0.00000000000E+00 -0.00000000000E+00 -0.18643866330E+02  0.18643866330E+02  0.00000000000E+00 0. -1.
         35    2    1    2    0    0  0.00000000000E+00  0.17763568394E-14  0.10377882345E+04  0.10750759672E+04  0.28068472616E+03 0.  0.
         25    2    3    3    0    0  0.53360041411E+01  0.14057615957E+02  0.27815475486E+03  0.30517016532E+03  0.12463014340E+03 0.  0.
         25    2    3    3    0    0 -0.53360041411E+01 -0.14057615957E+02  0.75963347963E+03  0.76990580183E+03  0.12444207813E+03 0.  0.
          5    1    4    4  502    0 -0.57827418378E+02  0.19590984514E+02  0.12020176067E+03  0.13490133528E+03  0.47000000000E+01 0. -1.
         -5    1    4    4    0  502  0.63163422519E+02 -0.55333685570E+01  0.15795299419E+03  0.17026883004E+03  0.47000000000E+01 0. -1.
          5    1    5    5  503    0 -0.46196650607E+02  0.10264545516E+02  0.12937525164E+03  0.13783880861E+03  0.47000000000E+01 0. -1.
         -5    1    5    5    0  503  0.40860646466E+02 -0.24322161473E+02  0.63025822800E+03  0.63206699322E+03  0.47000000000E+01 0. -1.
<mgrwt>
<rscale>  0 0.28068473E+03</rscale>
<asrwt>0</asrwt>
<pdfrwt beam="1">  1        1 0.28682879E-02 0.28068473E+03</pdfrwt>
<pdfrwt beam="2">  1       -1 0.16252797E+00 0.28068473E+03</pdfrwt>
<totfact> 0.11071818E+03</totfact>
</mgrwt>
</event>
<event>
 9    1  0.7997082E-001  0.2732910E+03  0.7818608E-02  0.1099411E+00
          2   -1    0    0  501    0  0.00000000000E+00  0.00000000000E+00  0.24774305609E+04  0.24774305609E+04  0.00000000000E+00 0. -1.
         -2   -1    0    0    0  501 -0.00000000000E+00 -0.00000000000E+00 -0.75368388375E+01  0.75368388375E+01  0.00000000000E+00 0. -1.
         35    2    1    2    0    0  0.00000000000E+00  0.14210854715E-13  0.24698937221E+04  0.24849673997E+04  0.27329101609E+03 0.  0.
         25    2    3    3    0    0  0.17975613732E+02  0.51584396816E+02  0.10338746141E+04  0.10425365620E+04  0.12248139748E+03 0.  0.
         25    2    3    3    0    0 -0.17975613732E+02 -0.51584396816E+02  0.14360191080E+04  0.14424308378E+04  0.12438557214E+03 0.  0.
          5    1    4    4  502    0 -0.10544513479E+02 -0.33761985183E+02  0.15495800868E+03  0.15901299589E+03  0.47000000000E+01 0. -1.
         -5    1    4    4    0  502  0.28520127211E+02  0.85346381999E+02  0.87891660540E+03  0.88352356608E+03  0.47000000000E+01 0. -1.
          5    1    5    5  503    0 -0.34094933820E+02  0.32180464872E+02  0.67208968697E+03  0.67373932954E+03  0.47000000000E+01 0. -1.
         -5    1    5    5    0  503  0.16119320088E+02 -0.83764861688E+02  0.76392942101E+03  0.76869150822E+03  0.47000000000E+01 0. -1.
<mgrwt>
<rscale>  0 0.27329102E+03</rscale>
<asrwt>0</asrwt>
<pdfrwt beam="1">  1        2 0.38114251E+00 0.27329102E+03</pdfrwt>
<pdfrwt beam="2">  1       -2 0.11595156E-02 0.27329102E+03</pdfrwt>
<totfact> 0.70925547E+03</totfact>
</mgrwt>
</event>
<event>
 9    1  0.7997082E-001  0.2760443E+03  0.7818608E-02  0.1097869E+00
          2   -1    0    0  501    0  0.00000000000E+00  0.00000000000E+00  0.76217278804E+03  0.76217278804E+03  0.00000000000E+00 0. -1.
         -2   -1    0    0    0  501 -0.00000000000E+00 -0.00000000000E+00 -0.24994475881E+02  0.24994475881E+02  0.00000000000E+00 0. -1.
         35    2    1    2    0    0  0.00000000000E+00 -0.71054273576E-14  0.73717831216E+03  0.78716726392E+03  0.27604426723E+03 0.  0.
         25    2    3    3    0    0 -0.34993966235E+02 -0.51267264212E+02  0.34939998318E+03  0.37514257531E+03  0.12164988084E+03 0.  0.
         25    2    3    3    0    0  0.34993966235E+02  0.51267264212E+02  0.38777832899E+03  0.41202468862E+03  0.12465713597E+03 0.  0.
          5    1    4    4  502    0 -0.64270687564E+02 -0.21883179291E+02  0.92311493140E+02  0.11468695035E+03  0.47000000000E+01 0. -1.
         -5    1    4    4    0  502  0.29276721329E+02 -0.29384084921E+02  0.25708849004E+03  0.26045562495E+03  0.47000000000E+01 0. -1.
          5    1    5    5  503    0  0.62853526685E+02  0.64386790515E+02  0.35714491589E+03  0.36833518099E+03  0.47000000000E+01 0. -1.
         -5    1    5    5    0  503 -0.27859560450E+02 -0.13119526303E+02  0.30633413092E+02  0.43689507625E+02  0.47000000000E+01 0. -1.
<mgrwt>
<rscale>  0 0.27604427E+03</rscale>
<asrwt>0</asrwt>
<pdfrwt beam="1">  1        2 0.11725733E+00 0.27604427E+03</pdfrwt>
<pdfrwt beam="2">  1       -2 0.38453046E-02 0.27604427E+03</pdfrwt>
<totfact> 0.10969043E+04</totfact>
</mgrwt>
</event>
<event>
 9    1  0.7997082E-001  0.2748549E+03  0.7818608E-02  0.1098533E+00
          2   -1    0    0  501    0  0.00000000000E+00  0.00000000000E+00  0.40614419058E+03  0.40614419058E+03  0.00000000000E+00 0. -1.
         -2   -1    0    0    0  501 -0.00000000000E+00 -0.00000000000E+00 -0.46501485928E+02  0.46501485928E+02  0.00000000000E+00 0. -1.
         35    2    1    2    0    0  0.00000000000E+00  0.00000000000E+00  0.35964270465E+03  0.45264567651E+03  0.27485493165E+03 0.  0.
         25    2    3    3    0    0  0.49142041692E+01 -0.50715076684E+02  0.22298653711E+03  0.26039843616E+03  0.12445152237E+03 0.  0.
         25    2    3    3    0    0 -0.49142041692E+01  0.50715076684E+02  0.13665616755E+03  0.19224724035E+03  0.12525144664E+03 0.  0.
          5    1    4    4  502    0  0.34915552567E+01 -0.22207222984E+02 -0.10410554845E+02  0.25215498467E+02  0.47000000000E+01 0. -1.
         -5    1    4    4    0  502  0.14226489125E+01 -0.28507853699E+02  0.23339709195E+03  0.23518293770E+03  0.47000000000E+01 0. -1.
          5    1    5    5  503    0  0.57147093839E+02  0.70140027563E+01  0.72865513767E+02  0.92986341284E+02  0.47000000000E+01 0. -1.
         -5    1    5    5    0  503 -0.62061298008E+02  0.43701073927E+02  0.63790653781E+02  0.99260899062E+02  0.47000000000E+01 0. -1.
<mgrwt>
<rscale>  0 0.27485493E+03</rscale>
<asrwt>0</asrwt>
<pdfrwt beam="1">  1        2 0.62483719E-01 0.27485493E+03</pdfrwt>
<pdfrwt beam="2">  1       -2 0.71540750E-02 0.27485493E+03</pdfrwt>
<totfact> 0.87841247E+03</totfact>
</mgrwt>
</event>
<event>
 9    1  0.7997082E-001  0.2692401E+03  0.7818608E-02  0.1101715E+00
         -2   -1    0    0    0  501 -0.00000000000E+00  0.00000000000E+00  0.15298032302E+03  0.15298032302E+03  0.00000000000E+00 0. -1.
          2   -1    0    0  501    0  0.00000000000E+00 -0.00000000000E+00 -0.11846333504E+03  0.11846333504E+03  0.00000000000E+00 0. -1.
         35    2    1    2    0    0  0.00000000000E+00  0.35527136788E-14  0.34516987982E+02  0.27144365806E+03  0.26924011039E+03 0.  0.
         25    2    3    3    0    0 -0.43930953171E+02  0.19829861241E+02  0.12589588797E+02  0.13436459719E+03  0.12478860199E+03 0.  0.
         25    2    3    3    0    0  0.43930953171E+02 -0.19829861241E+02  0.21927399185E+02  0.13707906088E+03  0.12643854655E+03 0.  0.
          5    1    4    4  502    0 -0.20918945301E+02  0.38962013421E+02  0.62064153566E+02  0.76352406120E+02  0.47000000000E+01 0. -1.
         -5    1    4    4    0  502 -0.23012007870E+02 -0.19132152181E+02 -0.49474564769E+02  0.58012191066E+02  0.47000000000E+01 0. -1.
          5    1    5    5  503    0  0.53686412899E+02 -0.45928168769E+02 -0.30832561619E+02  0.77229298018E+02  0.47000000000E+01 0.  1.
         -5    1    5    5    0  503 -0.97554597272E+01  0.26098307528E+02  0.52759960804E+02  0.59849762860E+02  0.47000000000E+01 0.  1.
<mgrwt>
<rscale>  0 0.26924011E+03</rscale>
<asrwt>0</asrwt>
<pdfrwt beam="1">  1        2 0.18225129E-01 0.26924011E+03</pdfrwt>
<pdfrwt beam="2">  1       -2 0.23535434E-01 0.26924011E+03</pdfrwt>
<totfact> 0.48574900E+03</totfact>
</mgrwt>
</event>
<event>
 9    1  0.7997082E-001  0.2733913E+03  0.7818608E-02  0.1099354E+00
         -2   -1    0    0    0  501 -0.00000000000E+00  0.00000000000E+00  0.45771085070E+02  0.45771085070E+02  0.00000000000E+00 0. -1.
          2   -1    0    0  501    0  0.00000000000E+00 -0.00000000000E+00 -0.40824247301E+03  0.40824247301E+03  0.00000000000E+00 0. -1.
         35    2    1    2    0    0 -0.71054273576E-14 -0.17763568394E-14 -0.36247138794E+03  0.45401355808E+03  0.27339130170E+03 0.  0.
         25    2    3    3    0    0  0.35408550473E+02  0.11268552654E+02 -0.25458054884E+03  0.28566539274E+03  0.12414795623E+03 0.  0.
         25    2    3    3    0    0 -0.35408550473E+02 -0.11268552654E+02 -0.10789083910E+03  0.16834816534E+03  0.12377368818E+03 0.  0.
          5    1    4    4  502    0  0.16023978119E+02  0.37927044197E+02 -0.24836142498E+03  0.25179498799E+03  0.47000000000E+01 0.  1.
         -5    1    4    4    0  502  0.19384572354E+02 -0.26658491543E+02 -0.62191238613E+01  0.33870404755E+02  0.47000000000E+01 0.  1.
          5    1    5    5  503    0  0.24052380597E+01  0.13230692584E+02  0.24544708705E+02  0.28379026090E+02  0.47000000000E+01 0. -1.
         -5    1    5    5    0  503 -0.37813788533E+02 -0.24499245237E+02 -0.13243554780E+03  0.13996913925E+03  0.47000000000E+01 0. -1.
<mgrwt>
<rscale>  0 0.27339130E+03</rscale>
<asrwt>0</asrwt>
<pdfrwt beam="1">  1        2 0.62806536E-01 0.27339130E+03</pdfrwt>
<pdfrwt beam="2">  1       -2 0.70417053E-02 0.27339130E+03</pdfrwt>
<totfact> 0.89501024E+03</totfact>
</mgrwt>
</event>
<event>
 9    1  0.7997082E-001  0.2790182E+03  0.7818608E-02  0.1096226E+00
         -2   -1    0    0    0  501 -0.00000000000E+00  0.00000000000E+00  0.12780048705E+02  0.12780048705E+02  0.00000000000E+00 0.  1.
          2   -1    0    0  501    0  0.00000000000E+00 -0.00000000000E+00 -0.15229046726E+04  0.15229046726E+04  0.00000000000E+00 0.  1.
         35    2    1    2    0    0  0.14210854715E-13  0.35527136788E-14 -0.15101246239E+04  0.15356847214E+04  0.27901824951E+03 0.  0.
         25    2    3    3    0    0  0.57565868935E+02  0.17471130331E+02 -0.90225653581E+03  0.91218151000E+03  0.11995491286E+03 0.  0.
         25    2    3    3    0    0 -0.57565868935E+02 -0.17471130331E+02 -0.60786808813E+03  0.62350321135E+03  0.12503428463E+03 0.  0.
          5    1    4    4  502    0  0.79700968335E+02  0.24683722520E+02 -0.36682997448E+03  0.37622845545E+03  0.47000000000E+01 0.  1.
         -5    1    4    4    0  502 -0.22135099400E+02 -0.72125921893E+01 -0.53542656133E+03  0.53595305456E+03  0.47000000000E+01 0.  1.
          5    1    5    5  503    0 -0.51431069288E+02  0.44700206510E+01 -0.59433350705E+03  0.59658992916E+03  0.47000000000E+01 0.  1.
         -5    1    5    5    0  503 -0.61347996466E+01 -0.21941150982E+02 -0.13534581082E+02  0.26913282189E+02  0.47000000000E+01 0.  1.
<mgrwt>
<rscale>  0 0.27901825E+03</rscale>
<asrwt>0</asrwt>
<pdfrwt beam="1">  1        2 0.23429298E+00 0.27901825E+03</pdfrwt>
<pdfrwt beam="2">  1       -2 0.19661617E-02 0.27901825E+03</pdfrwt>
<totfact> 0.10518732E+04</totfact>
</mgrwt>
</event>
<event>
 9    1  0.7997082E-001  0.2799756E+03  0.7818608E-02  0.1095702E+00
          2   -1    0    0  501    0  0.00000000000E+00  0.00000000000E+00  0.19947799505E+04  0.19947799505E+04  0.00000000000E+00 0.  1.
         -2   -1    0    0    0  501 -0.00000000000E+00 -0.00000000000E+00 -0.98239323284E+01  0.98239323284E+01  0.00000000000E+00 0.  1.
         35    2    1    2    0    0  0.14210854715E-13  0.00000000000E+00  0.19849560182E+04  0.20046038828E+04  0.27997559353E+03 0.  0.
         25    2    3    3    0    0  0.48586586373E+02  0.35374115853E+02  0.10869310716E+04  0.10959236756E+04  0.12656051514E+03 0.  0.
         25    2    3    3    0    0 -0.48586586373E+02 -0.35374115853E+02  0.89802494657E+03  0.90868020718E+03  0.12505570681E+03 0.  0.
          5    1    4    4  502    0  0.85902694900E+02  0.49276203964E+02  0.82618025825E+03  0.83210776128E+03  0.47000000000E+01 0.  1.
         -5    1    4    4    0  502 -0.37316108526E+02 -0.13902088110E+02  0.26075081334E+03  0.26381591435E+03  0.47000000000E+01 0.  1.
          5    1    5    5  503    0 -0.46681354425E+02  0.37493480271E+02  0.28097830149E+03  0.28732526137E+03  0.47000000000E+01 0. -1.
         -5    1    5    5    0  503 -0.19052319487E+01 -0.72867596124E+02  0.61704664508E+03  0.62135494581E+03  0.47000000000E+01 0. -1.
<mgrwt>
<rscale>  0 0.27997559E+03</rscale>
<asrwt>0</asrwt>
<pdfrwt beam="1">  1        2 0.30688890E+00 0.27997559E+03</pdfrwt>
<pdfrwt beam="2">  1       -2 0.15113758E-02 0.27997559E+03</pdfrwt>
<totfact> 0.87255694E+03</totfact>
</mgrwt>
</event>
<event>
 9    1  0.7997082E-001  0.2762939E+03  0.7818608E-02  0.1097731E+00
         -2   -1    0    0    0  501 -0.00000000000E+00  0.00000000000E+00  0.43750966821E+02  0.43750966821E+02  0.00000000000E+00 0. -1.
          2   -1    0    0  501    0  0.00000000000E+00 -0.00000000000E+00 -0.43620939784E+03  0.43620939784E+03  0.00000000000E+00 0. -1.
         35    2    1    2    0    0  0.71054273576E-14  0.71054273576E-14 -0.39245843102E+03  0.47996036466E+03  0.27629392242E+03 0.  0.
         25    2    3    3    0    0  0.45630984052E+02  0.26601957267E+02 -0.15913338406E+03  0.20963757477E+03  0.12583571829E+03 0.  0.
         25    2    3    3    0    0 -0.45630984052E+02 -0.26601957267E+02 -0.23332504696E+03  0.27032278989E+03  0.12587288175E+03 0.  0.
          5    1    4    4  502    0  0.26269817403E+02 -0.34807984980E+02 -0.70577699348E+01  0.44425232033E+02  0.47000000000E+01 0.  1.
         -5    1    4    4    0  502  0.19361166649E+02  0.61409942248E+02 -0.15207561413E+03  0.16521234274E+03  0.47000000000E+01 0.  1.
          5    1    5    5  503    0 -0.38770059555E+02  0.46723693872E+02 -0.12764850368E+03  0.14143002361E+03  0.47000000000E+01 0.  1.
         -5    1    5    5    0  503 -0.68609244970E+01 -0.73325651140E+02 -0.10567654328E+03  0.12889276628E+03  0.47000000000E+01 0.  1.
<mgrwt>
<rscale>  0 0.27629392E+03</rscale>
<asrwt>0</asrwt>
<pdfrwt beam="1">  1        2 0.67109140E-01 0.27629392E+03</pdfrwt>
<pdfrwt beam="2">  1       -2 0.67309178E-02 0.27629392E+03</pdfrwt>
<totfact> 0.89307059E+03</totfact>
</mgrwt>
</event>
<event>
 9    1  0.7997082E-001  0.3123347E+03  0.7818608E-02  0.1079232E+00
          1   -1    0    0  501    0  0.00000000000E+00  0.00000000000E+00  0.14401858721E+04  0.14401858721E+04  0.00000000000E+00 0. -1.
         -1   -1    0    0    0  501 -0.00000000000E+00 -0.00000000000E+00 -0.16934091272E+02  0.16934091272E+02  0.00000000000E+00 0. -1.
         35    2    1    2    0    0  0.00000000000E+00  0.00000000000E+00  0.14232517809E+04  0.14571199634E+04  0.31233468592E+03 0.  0.
         25    2    3    3    0    0 -0.84804069671E+02 -0.37129382439E+02  0.64370890402E+03  0.66228336368E+03  0.12525086599E+03 0.  0.
         25    2    3    3    0    0  0.84804069671E+02  0.37129382439E+02  0.77954287684E+03  0.79483659972E+03  0.12453032619E+03 0.  0.
          5    1    4    4  502    0  0.31618100594E+01 -0.55947333315E+02  0.36695860465E+03  0.37124225066E+03  0.47000000000E+01 0. -1.
         -5    1    4    4    0  502 -0.87965879731E+02  0.18817950877E+02  0.27675029936E+03  0.29104111302E+03  0.47000000000E+01 0. -1.
          5    1    5    5  503    0  0.26394496351E+02  0.65799631243E+02  0.21273015044E+03  0.22428211657E+03  0.47000000000E+01 0.  1.
         -5    1    5    5    0  503  0.58409573321E+02 -0.28670248804E+02  0.56681272640E+03  0.57055448314E+03  0.47000000000E+01 0.  1.
<mgrwt>
<rscale>  0 0.31233469E+03</rscale>
<asrwt>0</asrwt>
<pdfrwt beam="1">  1        1 0.22156696E+00 0.31233469E+03</pdfrwt>
<pdfrwt beam="2">  1       -1 0.26052459E-02 0.31233469E+03</pdfrwt>
<totfact> 0.36500523E+03</totfact>
</mgrwt>
</event>
<event>
 9    1  0.7997082E-001  0.2732632E+03  0.7818608E-02  0.1099426E+00
         -2   -1    0    0    0  501 -0.00000000000E+00  0.00000000000E+00  0.25717387011E+02  0.25717387011E+02  0.00000000000E+00 0. -1.
          2   -1    0    0  501    0  0.00000000000E+00 -0.00000000000E+00 -0.72589772647E+03  0.72589772647E+03  0.00000000000E+00 0. -1.
         35    2    1    2    0    0  0.00000000000E+00  0.00000000000E+00 -0.70018033946E+03  0.75161511348E+03  0.27326319007E+03 0.  0.
         25    2    3    3    0    0 -0.70566530569E+01  0.32306609988E+02 -0.47335375796E+03  0.49054645086E+03  0.12441272795E+03 0.  0.
         25    2    3    3    0    0  0.70566530569E+01 -0.32306609988E+02 -0.22682658150E+03  0.26106866262E+03  0.12495213134E+03 0.  0.
          5    1    4    4  502    0 -0.15870204305E+02  0.30254453856E+02 -0.47806952367E+03  0.47931175119E+03  0.47000000000E+01 0.  1.
         -5    1    4    4    0  502  0.88135512480E+01  0.20521561324E+01  0.47157657152E+01  0.11234699670E+02  0.47000000000E+01 0.  1.
          5    1    5    5  503    0 -0.40535087362E+02  0.95539440202E+01 -0.23518732390E+02  0.48058213939E+02  0.47000000000E+01 0.  1.
         -5    1    5    5    0  503  0.47591740419E+02 -0.41860554009E+02 -0.20330784911E+03  0.21301044868E+03  0.47000000000E+01 0.  1.
<mgrwt>
<rscale>  0 0.27326319E+03</rscale>
<asrwt>0</asrwt>
<pdfrwt beam="1">  1        2 0.11167659E+00 0.27326319E+03</pdfrwt>
<pdfrwt beam="2">  1       -2 0.39565205E-02 0.27326319E+03</pdfrwt>
<totfact> 0.11159235E+04</totfact>
</mgrwt>
</event>
<event>
 9    1  0.7997082E-001  0.2796275E+03  0.7818608E-02  0.1095893E+00
         -3   -1    0    0    0  501 -0.00000000000E+00  0.00000000000E+00  0.28588375766E+02  0.28588375766E+02  0.00000000000E+00 0. -1.
          3   -1    0    0  501    0  0.00000000000E+00 -0.00000000000E+00 -0.68377024278E+03  0.68377024278E+03  0.00000000000E+00 0. -1.
         35    2    1    2    0    0  0.71054273576E-14  0.00000000000E+00 -0.65518186701E+03  0.71235861855E+03  0.27962747103E+03 0.  0.
         25    2    3    3    0    0 -0.21840696583E+02  0.86854200241E+00 -0.47703622774E+03  0.49364323652E+03  0.12506922878E+03 0.  0.
         25    2    3    3    0    0  0.21840696583E+02 -0.86854200241E+00 -0.17814563927E+03  0.21871538203E+03  0.12499111629E+03 0.  0.
          5    1    4    4  502    0 -0.19790255173E+02 -0.35891402079E+02 -0.43740318752E+03  0.43934438131E+03  0.47000000000E+01 0. -1.
         -5    1    4    4    0  502 -0.20504414107E+01  0.36759944082E+02 -0.39633040227E+02  0.54298855204E+02  0.47000000000E+01 0. -1.
          5    1    5    5  503    0 -0.38664590536E+02  0.16375151533E+02 -0.16791867761E+02  0.45465953987E+02  0.47000000000E+01 0.  1.
         -5    1    5    5    0  503  0.60505287119E+02 -0.17243693536E+02 -0.16135377151E+03  0.17324942804E+03  0.47000000000E+01 0.  1.
<mgrwt>
<rscale>  0 0.27962747E+03</rscale>
<asrwt>0</asrwt>
<pdfrwt beam="1">  1        3 0.10519542E+00 0.27962747E+03</pdfrwt>
<pdfrwt beam="2">  1       -3 0.43982118E-02 0.27962747E+03</pdfrwt>
<totfact> 0.57307957E+02</totfact>
</mgrwt>
</event>
<event>
 9    1  0.7997082E-001  0.2754533E+03  0.7818608E-02  0.1098198E+00
          2   -1    0    0  501    0  0.00000000000E+00  0.00000000000E+00  0.12477931335E+02  0.12477931335E+02  0.00000000000E+00 0.  1.
         -2   -1    0    0    0  501 -0.00000000000E+00 -0.00000000000E+00 -0.15201740124E+04  0.15201740124E+04  0.00000000000E+00 0.  1.
         35    2    1    2    0    0  0.00000000000E+00  0.00000000000E+00 -0.15076960811E+04  0.15326519438E+04  0.27545327694E+03 0.  0.
         25    2    3    3    0    0 -0.41577273341E+02  0.36362683498E+02 -0.62255641292E+03  0.63740325348E+03  0.12512196398E+03 0.  0.
         25    2    3    3    0    0  0.41577273341E+02 -0.36362683498E+02 -0.88513966817E+03  0.89524869028E+03  0.12225821391E+03 0.  0.
          5    1    4    4  502    0 -0.21023649364E+02  0.54752902759E+02 -0.11594616353E+03  0.13002106379E+03  0.47000000000E+01 0.  1.
         -5    1    4    4    0  502 -0.20553623977E+02 -0.18390219262E+02 -0.50661024939E+03  0.50738218969E+03  0.47000000000E+01 0.  1.
          5    1    5    5  503    0  0.32970211009E+02  0.26167547154E+02 -0.11567390450E+03  0.12318407982E+03  0.47000000000E+01 0.  1.
         -5    1    5    5    0  503  0.86070623317E+01 -0.62530230652E+02 -0.76946576367E+03  0.77206461046E+03  0.47000000000E+01 0.  1.
<mgrwt>
<rscale>  0 0.27545328E+03</rscale>
<asrwt>0</asrwt>
<pdfrwt beam="1">  1        2 0.19196829E-02 0.27545328E+03</pdfrwt>
<pdfrwt beam="2">  1       -2 0.23387278E+00 0.27545328E+03</pdfrwt>
<totfact> 0.51817321E+02</totfact>
</mgrwt>
</event>
<event>
 9    1  0.7997082E-001  0.2838065E+03  0.7818608E-02  0.1093628E+00
          2   -1    0    0  501    0  0.00000000000E+00  0.00000000000E+00  0.12839017907E+03  0.12839017907E+03  0.00000000000E+00 0. -1.
         -2   -1    0    0    0  501 -0.00000000000E+00 -0.00000000000E+00 -0.15683857230E+03  0.15683857230E+03  0.00000000000E+00 0. -1.
         35    2    1    2    0    0  0.00000000000E+00 -0.26645352591E-14 -0.28448393232E+02  0.28522875137E+03  0.28380650015E+03 0.  0.
         25    2    3    3    0    0  0.77994487162E+01  0.47811432448E+01 -0.81527581182E+02  0.14938315665E+03  0.12483945797E+03 0.  0.
         25    2    3    3    0    0 -0.77994487162E+01 -0.47811432448E+01  0.53079187950E+02  0.13584559472E+03  0.12471140557E+03 0.  0.
          5    1    4    4  502    0 -0.37853413685E+02 -0.27140449216E+02  0.42387758520E+01  0.47005767008E+02  0.47000000000E+01 0.  1.
         -5    1    4    4    0  502  0.45652862401E+02  0.31921592461E+02 -0.85766357034E+02  0.10237738964E+03  0.47000000000E+01 0.  1.
          5    1    5    5  503    0 -0.45962564213E+02 -0.21261484535E+01 -0.22177267644E+02  0.51293264825E+02  0.47000000000E+01 0.  1.
         -5    1    5    5    0  503  0.38163115497E+02 -0.26549947913E+01  0.75256455593E+02  0.84552329893E+02  0.47000000000E+01 0.  1.
<mgrwt>
<rscale>  0 0.28380650E+03</rscale>
<asrwt>0</asrwt>
<pdfrwt beam="1">  1        2 0.19752335E-01 0.28380650E+03</pdfrwt>
<pdfrwt beam="2">  1       -2 0.24129011E-01 0.28380650E+03</pdfrwt>
<totfact> 0.42455670E+03</totfact>
</mgrwt>
</event>
<event>
 9    1  0.7997082E-001  0.2747448E+03  0.7818608E-02  0.1098594E+00
         -2   -1    0    0    0  501 -0.00000000000E+00  0.00000000000E+00  0.81705625152E+02  0.81705625152E+02  0.00000000000E+00 0. -1.
          2   -1    0    0  501    0  0.00000000000E+00 -0.00000000000E+00 -0.23096552692E+03  0.23096552692E+03  0.00000000000E+00 0. -1.
         35    2    1    2    0    0 -0.71054273576E-14 -0.17763568394E-14 -0.14925990177E+03  0.31267115208E+03  0.27474484720E+03 0.  0.
         25    2    3    3    0    0  0.56396795988E+02 -0.43885813592E+01 -0.66822890589E+02  0.15279093741E+03  0.12521946176E+03 0.  0.
         25    2    3    3    0    0 -0.56396795988E+02  0.43885813592E+01 -0.82437011183E+02  0.15988021466E+03  0.12476363246E+03 0.  0.
          5    1    4    4  502    0  0.76567004674E+00 -0.50172509071E+02 -0.62738180031E+02  0.80473822767E+02  0.47000000000E+01 0.  1.
         -5    1    4    4    0  502  0.55631125941E+02  0.45783927712E+02 -0.40847105580E+01  0.72317114645E+02  0.47000000000E+01 0.  1.
          5    1    5    5  503    0  0.38665602996E+02 -0.61192186967E+01 -0.12707041351E+02  0.41425023746E+02  0.47000000000E+01 0. -1.
         -5    1    5    5    0  503 -0.95062398984E+02  0.10507800056E+02 -0.69729969832E+02  0.11845519092E+03  0.47000000000E+01 0. -1.
<mgrwt>
<rscale>  0 0.27474485E+03</rscale>
<asrwt>0</asrwt>
<pdfrwt beam="1">  1        2 0.35533157E-01 0.27474485E+03</pdfrwt>
<pdfrwt beam="2">  1       -2 0.12570096E-01 0.27474485E+03</pdfrwt>
<totfact> 0.66159937E+03</totfact>
</mgrwt>
</event>
<event>
 9    1  0.7997082E-001  0.2789334E+03  0.7818608E-02  0.1096273E+00
          1   -1    0    0  501    0  0.00000000000E+00  0.00000000000E+00  0.17213574065E+04  0.17213574065E+04  0.00000000000E+00 0. -1.
         -1   -1    0    0    0  501 -0.00000000000E+00 -0.00000000000E+00 -0.11299782111E+02  0.11299782111E+02  0.00000000000E+00 0. -1.
         35    2    1    2    0    0  0.71054273576E-14  0.00000000000E+00  0.17100576244E+04  0.17326571886E+04  0.27893342308E+03 0.  0.
         25    2    3    3    0    0  0.43589528965E+02  0.41634858123E+02  0.97669693370E+03  0.98650873004E+03  0.12501626175E+03 0.  0.
         25    2    3    3    0    0 -0.43589528965E+02 -0.41634858123E+02  0.73336069069E+03  0.74614845857E+03  0.12363701360E+03 0.  0.
          5    1    4    4  502    0 -0.11329578347E+02 -0.29671666590E+02  0.96314153610E+02  0.10152474245E+03  0.47000000000E+01 0. -1.
         -5    1    4    4    0  502  0.54919107311E+02  0.71306524713E+02  0.88038278009E+03  0.88498398759E+03  0.47000000000E+01 0. -1.
          5    1    5    5  503    0 -0.11453372128E+02 -0.76696584229E+02  0.29023746598E+03  0.30045535846E+03  0.47000000000E+01 0.  1.
         -5    1    5    5    0  503 -0.32136156837E+02  0.35061726107E+02  0.44312322471E+03  0.44569310011E+03  0.47000000000E+01 0.  1.
<mgrwt>
<rscale>  0 0.27893342E+03</rscale>
<asrwt>0</asrwt>
<pdfrwt beam="1">  1        1 0.26482401E+00 0.27893342E+03</pdfrwt>
<pdfrwt beam="2">  1       -1 0.17384294E-02 0.27893342E+03</pdfrwt>
<totfact> 0.43094829E+03</totfact>
</mgrwt>
</event>
<event>
 9    1  0.7997082E-001  0.2735672E+03  0.7818608E-02  0.1099255E+00
         -1   -1    0    0    0  501 -0.00000000000E+00  0.00000000000E+00  0.11085885443E+03  0.11085885443E+03  0.00000000000E+00 0. -1.
          1   -1    0    0  501    0  0.00000000000E+00 -0.00000000000E+00 -0.16877095967E+03  0.16877095967E+03  0.00000000000E+00 0. -1.
         35    2    1    2    0    0  0.00000000000E+00  0.00000000000E+00 -0.57912105249E+02  0.27962981410E+03  0.27356721477E+03 0.  0.
         25    2    3    3    0    0 -0.57444268905E+02  0.16046931224E+02 -0.16794530760E+02  0.13845882400E+03  0.12382019887E+03 0.  0.
         25    2    3    3    0    0  0.57444268905E+02 -0.16046931224E+02 -0.41117574489E+02  0.14117099010E+03  0.12116618952E+03 0.  0.
          5    1    4    4  502    0 -0.45449966894E+02  0.68325743380E+02 -0.47541932634E+00  0.82197461777E+02  0.47000000000E+01 0.  1.
         -5    1    4    4    0  502 -0.11994302011E+02 -0.52278812156E+02 -0.16319111433E+02  0.56261362223E+02  0.47000000000E+01 0.  1.
          5    1    5    5  503    0  0.59920394713E+02  0.35789866144E+01  0.29952608321E+02  0.67249621508E+02  0.47000000000E+01 0.  1.
         -5    1    5    5    0  503 -0.24761258080E+01 -0.19625917838E+02 -0.71070182810E+02  0.73921368593E+02  0.47000000000E+01 0.  1.
<mgrwt>
<rscale>  0 0.27356721E+03</rscale>
<asrwt>0</asrwt>
<pdfrwt beam="1">  1        1 0.25964763E-01 0.27356721E+03</pdfrwt>
<pdfrwt beam="2">  1       -1 0.17055208E-01 0.27356721E+03</pdfrwt>
<totfact> 0.47300833E+03</totfact>
</mgrwt>
</event>
<event>
 9    1  0.7997082E-001  0.2770947E+03  0.7818608E-02  0.1097286E+00
         -1   -1    0    0    0  501 -0.00000000000E+00  0.00000000000E+00  0.58217077152E+02  0.58217077152E+02  0.00000000000E+00 0.  1.
          1   -1    0    0  501    0  0.00000000000E+00 -0.00000000000E+00 -0.32972067358E+03  0.32972067358E+03  0.00000000000E+00 0.  1.
         35    2    1    2    0    0 -0.35527136788E-14  0.00000000000E+00 -0.27150359643E+03  0.38793775073E+03  0.27709474114E+03 0.  0.
         25    2    3    3    0    0 -0.73444101994E+01 -0.37595724572E+02 -0.73482160729E+02  0.15072410808E+03  0.12589976150E+03 0.  0.
         25    2    3    3    0    0  0.73444101994E+01  0.37595724572E+02 -0.19802143570E+03  0.23721364264E+03  0.12486170107E+03 0.  0.
          5    1    4    4  502    0 -0.21847261648E+02  0.23002775720E+02 -0.81634161366E+02  0.87707792323E+02  0.47000000000E+01 0. -1.
         -5    1    4    4    0  502  0.14502851448E+02 -0.60598500292E+02  0.81520006366E+01  0.63016315762E+02  0.47000000000E+01 0. -1.
          5    1    5    5  503    0 -0.53874342399E+02 -0.34066706643E+01 -0.10764215659E+03  0.12051130258E+03  0.47000000000E+01 0. -1.
         -5    1    5    5    0  503  0.61218752599E+02  0.41002395236E+02 -0.90379279107E+02  0.11670234007E+03  0.47000000000E+01 0. -1.
<mgrwt>
<rscale>  0 0.27709474E+03</rscale>
<asrwt>0</asrwt>
<pdfrwt beam="1">  1        1 0.50726259E-01 0.27709474E+03</pdfrwt>
<pdfrwt beam="2">  1       -1 0.89564732E-02 0.27709474E+03</pdfrwt>
<totfact> 0.55852338E+03</totfact>
</mgrwt>
</event>
<event>
 9    1  0.7997082E-001  0.2786629E+03  0.7818608E-02  0.1096422E+00
          2   -1    0    0  501    0  0.00000000000E+00  0.00000000000E+00  0.15446804161E+04  0.15446804161E+04  0.00000000000E+00 0.  1.
         -2   -1    0    0    0  501 -0.00000000000E+00 -0.00000000000E+00 -0.12567807927E+02  0.12567807927E+02  0.00000000000E+00 0.  1.
         35    2    1    2    0    0 -0.35527136788E-14  0.71054273576E-14  0.15321126082E+04  0.15572482241E+04  0.27866285564E+03 0.  0.
         25    2    3    3    0    0  0.45175718269E+01 -0.52611945246E+02  0.59625038301E+03  0.61160224210E+03  0.12551636570E+03 0.  0.
         25    2    3    3    0    0 -0.45175718269E+01  0.52611945246E+02  0.93586222520E+03  0.94564598197E+03  0.12497917195E+03 0.  0.
          5    1    4    4  502    0 -0.20620672017E+02 -0.77143525626E+02  0.22749688000E+03  0.24114986226E+03  0.47000000000E+01 0.  1.
         -5    1    4    4    0  502  0.25138243844E+02  0.24531580380E+02  0.36875350302E+03  0.37045237984E+03  0.47000000000E+01 0.  1.
          5    1    5    5  503    0  0.29928731855E+02 -0.14362908762E+02  0.61957869667E+03  0.62048519201E+03  0.47000000000E+01 0.  1.
         -5    1    5    5    0  503 -0.34446303682E+02  0.66974854007E+02  0.31628352853E+03  0.32516078996E+03  0.47000000000E+01 0.  1.
<mgrwt>
<rscale>  0 0.27866286E+03</rscale>
<asrwt>0</asrwt>
<pdfrwt beam="1">  1        2 0.23764299E+00 0.27866286E+03</pdfrwt>
<pdfrwt beam="2">  1       -2 0.19335101E-02 0.27866286E+03</pdfrwt>
<totfact> 0.10496213E+04</totfact>
</mgrwt>
</event>
<event>
 9    1  0.7997082E-001  0.2757846E+03  0.7818608E-02  0.1098014E+00
         -2   -1    0    0    0  501 -0.00000000000E+00  0.00000000000E+00  0.97929835846E+02  0.97929835846E+02  0.00000000000E+00 0. -1.
          2   -1    0    0  501    0  0.00000000000E+00 -0.00000000000E+00 -0.19416234250E+03  0.19416234250E+03  0.00000000000E+00 0. -1.
         35    2    1    2    0    0  0.00000000000E+00 -0.71054273576E-14 -0.96232506658E+02  0.29209217835E+03  0.27578459949E+03 0.  0.
         25    2    3    3    0    0 -0.11024846764E+02 -0.78917797584E+01 -0.10765322372E+03  0.16618257849E+03  0.12587138428E+03 0.  0.
         25    2    3    3    0    0  0.11024846764E+02  0.78917797584E+01  0.11420717066E+02  0.12590959986E+03  0.12465539349E+03 0.  0.
          5    1    4    4  502    0 -0.11238110699E+02 -0.23110374623E+02  0.22852107491E+02  0.34708692918E+02  0.47000000000E+01 0.  1.
         -5    1    4    4    0  502  0.21326393571E+00  0.15218594865E+02 -0.13050533121E+03  0.13147388557E+03  0.47000000000E+01 0.  1.
          5    1    5    5  503    0  0.52424766303E+02 -0.36436094516E+02  0.11682514943E+02  0.65073160834E+02  0.47000000000E+01 0. -1.
         -5    1    5    5    0  503 -0.41399919539E+02  0.44327874274E+02 -0.26179787695E+00  0.60836439029E+02  0.47000000000E+01 0. -1.
<mgrwt>
<rscale>  0 0.27578460E+03</rscale>
<asrwt>0</asrwt>
<pdfrwt beam="1">  1        2 0.29871130E-01 0.27578460E+03</pdfrwt>
<pdfrwt beam="2">  1       -2 0.15066129E-01 0.27578460E+03</pdfrwt>
<totfact> 0.59443362E+03</totfact>
</mgrwt>
</event>
<event>
 9    1  0.7997082E-001  0.2860408E+03  0.7818608E-02  0.1092435E+00
         -1   -1    0    0    0  501 -0.00000000000E+00  0.00000000000E+00  0.18160160923E+03  0.18160160923E+03  0.00000000000E+00 0.  1.
          1   -1    0    0  501    0  0.00000000000E+00 -0.00000000000E+00 -0.11263573314E+03  0.11263573314E+03  0.00000000000E+00 0.  1.
         35    2    1    2    0    0  0.71054273576E-14  0.71054273576E-14  0.68965876097E+02  0.29423734237E+03  0.28604076908E+03 0.  0.
         25    2    3    3    0    0  0.41171479273E+02 -0.51150835915E+02  0.10386340530E+02  0.14129508526E+03  0.12467929391E+03 0.  0.
         25    2    3    3    0    0 -0.41171479273E+02  0.51150835915E+02  0.58579535567E+02  0.15294225710E+03  0.12509305856E+03 0.  0.
          5    1    4    4  502    0  0.31789861841E+02 -0.33347439443E+02  0.66761436964E+02  0.81251624592E+02  0.47000000000E+01 0. -1.
         -5    1    4    4    0  502  0.93816174327E+01 -0.17803396471E+02 -0.56375096434E+02  0.60043460672E+02  0.47000000000E+01 0. -1.
          5    1    5    5  503    0 -0.33101683571E+02 -0.30462402187E+02  0.54320912970E+02  0.70686144244E+02  0.47000000000E+01 0. -1.
         -5    1    5    5    0  503 -0.80697957021E+01  0.81613238102E+02  0.42586225971E+01  0.82256112858E+02  0.47000000000E+01 0. -1.
<mgrwt>
<rscale>  0 0.28604077E+03</rscale>
<asrwt>0</asrwt>
<pdfrwt beam="1">  1        1 0.17328574E-01 0.28604077E+03</pdfrwt>
<pdfrwt beam="2">  1       -1 0.27938709E-01 0.28604077E+03</pdfrwt>
<totfact> 0.35417568E+03</totfact>
</mgrwt>
</event>
<event>
 9    1  0.7997082E-001  0.2748214E+03  0.7818608E-02  0.1098551E+00
          2   -1    0    0  501    0  0.00000000000E+00  0.00000000000E+00  0.19736178731E+04  0.19736178731E+04  0.00000000000E+00 0. -1.
         -2   -1    0    0    0  501 -0.00000000000E+00 -0.00000000000E+00 -0.95670513718E+01  0.95670513718E+01  0.00000000000E+00 0. -1.
         35    2    1    2    0    0 -0.71054273576E-14  0.00000000000E+00  0.19640508217E+04  0.19831849245E+04  0.27482142260E+03 0.  0.
         25    2    3    3    0    0 -0.23203284701E+02 -0.50036745976E+02  0.11051445014E+04  0.11135611766E+04  0.12502822312E+03 0.  0.
         25    2    3    3    0    0  0.23203284701E+02  0.50036745976E+02  0.85890632030E+03  0.86962374789E+03  0.12443201951E+03 0.  0.
          5    1    4    4  502    0 -0.43760936904E+02 -0.73009970393E+02  0.10065227093E+04  0.10101264920E+04  0.47000000000E+01 0.  1.
         -5    1    4    4    0  502  0.20557652202E+02  0.22973224416E+02  0.98621792105E+02  0.10343468462E+03  0.47000000000E+01 0.  1.
          5    1    5    5  503    0 -0.38639948433E+02 -0.15426155990E+02  0.18303126045E+03  0.18775927196E+03  0.47000000000E+01 0.  1.
         -5    1    5    5    0  503  0.61843233135E+02  0.65462901966E+02  0.67587505984E+03  0.68186447593E+03  0.47000000000E+01 0.  1.
<mgrwt>
<rscale>  0 0.27482142E+03</rscale>
<asrwt>0</asrwt>
<pdfrwt beam="1">  1        2 0.30363319E+00 0.27482142E+03</pdfrwt>
<pdfrwt beam="2">  1       -2 0.14718556E-02 0.27482142E+03</pdfrwt>
<totfact> 0.93044280E+03</totfact>
</mgrwt>
</event>
<event>
 9    1  0.7997082E-001  0.2611375E+03  0.7818608E-02  0.1106462E+00
         -2   -1    0    0    0  501 -0.00000000000E+00  0.00000000000E+00  0.27805997843E+02  0.27805997843E+02  0.00000000000E+00 0. -1.
          2   -1    0    0  501    0  0.00000000000E+00 -0.00000000000E+00 -0.61311232711E+03  0.61311232711E+03  0.00000000000E+00 0. -1.
         35    2    1    2    0    0  0.00000000000E+00  0.00000000000E+00 -0.58530632927E+03  0.64091832495E+03  0.26113751202E+03 0.  0.
         25    2    3    3    0    0  0.31869527434E+02 -0.23243525865E+02 -0.30242544394E+03  0.32945629616E+03  0.12459684452E+03 0.  0.
         25    2    3    3    0    0 -0.31869527434E+02  0.23243525865E+02 -0.28288088533E+03  0.31146202879E+03  0.12422186531E+03 0.  0.
          5    1    4    4  502    0  0.19998140732E+02 -0.71010539540E+02 -0.23135993405E+03  0.24288254659E+03  0.47000000000E+01 0. -1.
         -5    1    4    4    0  502  0.11871386701E+02  0.47767013676E+02 -0.71065509895E+02  0.86573749569E+02  0.47000000000E+01 0. -1.
          5    1    5    5  503    0  0.40430032964E+02 -0.20015026311E+02 -0.11344114884E+03  0.12217271829E+03  0.47000000000E+01 0. -1.
         -5    1    5    5    0  503 -0.72299560398E+02  0.43258552176E+02 -0.16943973648E+03  0.18928931050E+03  0.47000000000E+01 0. -1.
<mgrwt>
<rscale>  0 0.26113751E+03</rscale>
<asrwt>0</asrwt>
<pdfrwt beam="1">  1        2 0.94324973E-01 0.26113751E+03</pdfrwt>
<pdfrwt beam="2">  1       -2 0.42778458E-02 0.26113751E+03</pdfrwt>
<totfact> 0.12119288E+04</totfact>
</mgrwt>
</event>
<event>
 9    1  0.7997082E-001  0.2815764E+03  0.7818608E-02  0.1094831E+00
          2   -1    0    0  501    0  0.00000000000E+00  0.00000000000E+00  0.50803616172E+03  0.50803616172E+03  0.00000000000E+00 0. -1.
         -2   -1    0    0    0  501 -0.00000000000E+00 -0.00000000000E+00 -0.39015561588E+02  0.39015561588E+02  0.00000000000E+00 0. -1.
         35    2    1    2    0    0  0.71054273576E-14 -0.71054273576E-14  0.46902060013E+03  0.54705172331E+03  0.28157639217E+03 0.  0.
         25    2    3    3    0    0 -0.60285722392E+02 -0.34947828284E+01  0.25641768894E+03  0.29315604413E+03  0.12862291077E+03 0.  0.
         25    2    3    3    0    0  0.60285722392E+02  0.34947828284E+01  0.21260291119E+03  0.25389567918E+03  0.12496574022E+03 0.  0.
          5    1    4    4  502    0  0.23641039212E+02  0.30314164813E+02  0.14212857558E+03  0.14731079159E+03  0.47000000000E+01 0. -1.
         -5    1    4    4    0  502 -0.83926761603E+02 -0.33808947642E+02  0.11428911336E+03  0.14584525253E+03  0.47000000000E+01 0. -1.
          5    1    5    5  503    0  0.52569676941E+02 -0.30263682282E+02  0.21024352328E+03  0.21886957413E+03  0.47000000000E+01 0.  1.
         -5    1    5    5    0  503  0.77160454506E+01  0.33758465110E+02  0.23593879154E+01  0.35026105055E+02  0.47000000000E+01 0.  1.
<mgrwt>
<rscale>  0 0.28157639E+03</rscale>
<asrwt>0</asrwt>
<pdfrwt beam="1">  1        2 0.78159404E-01 0.28157639E+03</pdfrwt>
<pdfrwt beam="2">  1       -2 0.60023945E-02 0.28157639E+03</pdfrwt>
<totfact> 0.90030897E+03</totfact>
</mgrwt>
</event>
<event>
 9    1  0.7997082E-001  0.2818355E+03  0.7818608E-02  0.1094691E+00
          2   -1    0    0  501    0  0.00000000000E+00  0.00000000000E+00  0.66700417079E+03  0.66700417079E+03  0.00000000000E+00 0.  1.
         -2   -1    0    0    0  501 -0.00000000000E+00 -0.00000000000E+00 -0.29771644422E+02  0.29771644422E+02  0.00000000000E+00 0.  1.
         35    2    1    2    0    0  0.00000000000E+00  0.71054273576E-14  0.63723252636E+03  0.69677581521E+03  0.28183549103E+03 0.  0.
         25    2    3    3    0    0  0.37979928235E+02  0.48275070027E+02  0.30166728597E+03  0.33229038123E+03  0.12506313886E+03 0.  0.
         25    2    3    3    0    0 -0.37979928235E+02 -0.48275070027E+02  0.33556524040E+03  0.36448543398E+03  0.12834579729E+03 0.  0.
          5    1    4    4  502    0 -0.11896060937E+01  0.29493564111E+02  0.25491479722E+01  0.29997893960E+02  0.47000000000E+01 0.  1.
         -5    1    4    4    0  502  0.39169534329E+02  0.18781505916E+02  0.29911813799E+03  0.30229248727E+03  0.47000000000E+01 0.  1.
          5    1    5    5  503    0 -0.11351687649E+01  0.42973348337E+02  0.88445569270E+02  0.98451541374E+02  0.47000000000E+01 0.  1.
         -5    1    5    5    0  503 -0.36844759471E+02 -0.91248418364E+02  0.24711967113E+03  0.26603389260E+03  0.47000000000E+01 0.  1.
<mgrwt>
<rscale>  0 0.28183549E+03</rscale>
<asrwt>0</asrwt>
<pdfrwt beam="1">  1        2 0.10261602E+00 0.28183549E+03</pdfrwt>
<pdfrwt beam="2">  1       -2 0.45802535E-02 0.28183549E+03</pdfrwt>
<totfact> 0.99249853E+03</totfact>
</mgrwt>
</event>
<event>
 9    1  0.7997082E-001  0.2768258E+03  0.7818608E-02  0.1097435E+00
          1   -1    0    0  501    0  0.00000000000E+00  0.00000000000E+00  0.89278465920E+03  0.89278465920E+03  0.00000000000E+00 0. -1.
         -1   -1    0    0    0  501 -0.00000000000E+00 -0.00000000000E+00 -0.21458849345E+02  0.21458849345E+02  0.00000000000E+00 0. -1.
         35    2    1    2    0    0  0.71054273576E-14  0.00000000000E+00  0.87132580986E+03  0.91424350855E+03  0.27682580443E+03 0.  0.
         25    2    3    3    0    0 -0.48084412547E+02 -0.33645286249E+02  0.50347504757E+03  0.52143603631E+03  0.12232865741E+03 0.  0.
         25    2    3    3    0    0  0.48084412547E+02  0.33645286249E+02  0.36785076228E+03  0.39280747223E+03  0.12465717353E+03 0.  0.
          5    1    4    4  502    0  0.19202076756E+02 -0.36145895172E+02  0.36572527933E+03  0.36803847004E+03  0.47000000000E+01 0. -1.
         -5    1    4    4    0  502 -0.67286489303E+02  0.25006089235E+01  0.13774976824E+03  0.15339756627E+03  0.47000000000E+01 0. -1.
          5    1    5    5  503    0 -0.41784156445E+02  0.42473075204E+01  0.13450990899E+03  0.14099276920E+03  0.47000000000E+01 0.  1.
         -5    1    5    5    0  503  0.89868568992E+02  0.29397978728E+02  0.23334085329E+03  0.25181470303E+03  0.47000000000E+01 0.  1.
<mgrwt>
<rscale>  0 0.27682580E+03</rscale>
<asrwt>0</asrwt>
<pdfrwt beam="1">  1        1 0.13735146E+00 0.27682580E+03</pdfrwt>
<pdfrwt beam="2">  1       -1 0.33013621E-02 0.27682580E+03</pdfrwt>
<totfact> 0.63267129E+03</totfact>
</mgrwt>
</event>
<event>
 9    1  0.7997082E-001  0.2870344E+03  0.7818608E-02  0.1091908E+00
         -2   -1    0    0    0  501 -0.00000000000E+00  0.00000000000E+00  0.64706797544E+03  0.64706797544E+03  0.00000000000E+00 0. -1.
          2   -1    0    0  501    0  0.00000000000E+00 -0.00000000000E+00 -0.31831559029E+02  0.31831559029E+02  0.00000000000E+00 0. -1.
         35    2    1    2    0    0  0.00000000000E+00  0.00000000000E+00  0.61523641641E+03  0.67889953447E+03  0.28703437046E+03 0.  0.
         25    2    3    3    0    0  0.68760824042E+02  0.63565529327E+01  0.27151925409E+03  0.30674471277E+03  0.12490459071E+03 0.  0.
         25    2    3    3    0    0 -0.68760824042E+02 -0.63565529327E+01  0.34371716232E+03  0.37215482170E+03  0.12485698601E+03 0.  0.
          5    1    4    4  502    0 -0.32334240189E+02 -0.16967882839E+02  0.95758800498E+02  0.10259264111E+03  0.47000000000E+01 0. -1.
         -5    1    4    4    0  502  0.10109506423E+03  0.23324435771E+02  0.17576045360E+03  0.20415207166E+03  0.47000000000E+01 0. -1.
          5    1    5    5  503    0 -0.96482148142E+02  0.23923442833E+02  0.21381779147E+03  0.23584162902E+03  0.47000000000E+01 0.  1.
         -5    1    5    5    0  503  0.27721324101E+02 -0.30279995766E+02  0.12989937085E+03  0.13631319268E+03  0.47000000000E+01 0.  1.
<mgrwt>
<rscale>  0 0.28703437E+03</rscale>
<asrwt>0</asrwt>
<pdfrwt beam="1">  1        2 0.48971634E-02 0.28703437E+03</pdfrwt>
<pdfrwt beam="2">  1       -2 0.99548909E-01 0.28703437E+03</pdfrwt>
<totfact> 0.14018069E+03</totfact>
</mgrwt>
</event>
<event>
 9    1  0.7997082E-001  0.2763553E+03  0.7818608E-02  0.1097696E+00
         -2   -1    0    0    0  501 -0.00000000000E+00  0.00000000000E+00  0.80180865130E+02  0.80180865130E+02  0.00000000000E+00 0. -1.
          2   -1    0    0  501    0  0.00000000000E+00 -0.00000000000E+00 -0.23812487826E+03  0.23812487826E+03  0.00000000000E+00 0. -1.
         35    2    1    2    0    0  0.14210854715E-13  0.35527136788E-14 -0.15794401313E+03  0.31830574339E+03  0.27635526952E+03 0.  0.
         25    2    3    3    0    0 -0.41546168362E+02 -0.16561516588E+02 -0.12251006489E+03  0.18076250269E+03  0.12516388633E+03 0.  0.
         25    2    3    3    0    0  0.41546168362E+02  0.16561516588E+02 -0.35433948241E+02  0.13754324070E+03  0.12514875324E+03 0.  0.
          5    1    4    4  502    0  0.36056326044E+02  0.24184444705E+02 -0.28507530639E+02  0.52150889894E+02  0.47000000000E+01 0. -1.
         -5    1    4    4    0  502 -0.77602494406E+02 -0.40745961293E+02 -0.94002534249E+02  0.12861161279E+03  0.47000000000E+01 0. -1.
          5    1    5    5  503    0 -0.28685852072E+02 -0.32077762971E+02 -0.28231144478E+02  0.51681220040E+02  0.47000000000E+01 0.  1.
         -5    1    5    5    0  503  0.70232020434E+02  0.48639279559E+02 -0.72028037625E+01  0.85862020662E+02  0.47000000000E+01 0.  1.
<mgrwt>
<rscale>  0 0.27635527E+03</rscale>
<asrwt>0</asrwt>
<pdfrwt beam="1">  1        2 0.36634596E-01 0.27635527E+03</pdfrwt>
<pdfrwt beam="2">  1       -2 0.12335518E-01 0.27635527E+03</pdfrwt>
<totfact> 0.66004453E+03</totfact>
</mgrwt>
</event>
<event>
 9    1  0.7997082E-001  0.2790651E+03  0.7818608E-02  0.1096201E+00
          1   -1    0    0  501    0  0.00000000000E+00  0.00000000000E+00  0.37859284362E+03  0.37859284362E+03  0.00000000000E+00 0.  1.
         -1   -1    0    0    0  501 -0.00000000000E+00 -0.00000000000E+00 -0.51425526507E+02  0.51425526507E+02  0.00000000000E+00 0.  1.
         35    2    1    2    0    0  0.00000000000E+00  0.00000000000E+00  0.32716731711E+03  0.43001837013E+03  0.27906512727E+03 0.  0.
         25    2    3    3    0    0 -0.59737436448E+02 -0.20899911532E+01  0.13439500569E+03  0.19290407564E+03  0.12480799442E+03 0.  0.
         25    2    3    3    0    0  0.59737436448E+02  0.20899911532E+01  0.19277231142E+03  0.23711429448E+03  0.12445519362E+03 0.  0.
          5    1    4    4  502    0  0.12320191465E+02 -0.15318643738E+00  0.11812365349E+03  0.11885746968E+03  0.47000000000E+01 0. -1.
         -5    1    4    4    0  502 -0.72057627913E+02 -0.19368047158E+01  0.16271352195E+02  0.74046605967E+02  0.47000000000E+01 0. -1.
          5    1    5    5  503    0 -0.81844089537E+01 -0.23275894723E+02  0.15147211918E+03  0.15354036835E+03  0.47000000000E+01 0. -1.
         -5    1    5    5    0  503  0.67921845402E+02  0.25365885877E+02  0.41300192243E+02  0.83573926128E+02  0.47000000000E+01 0. -1.
<mgrwt>
<rscale>  0 0.27906513E+03</rscale>
<asrwt>0</asrwt>
<pdfrwt beam="1">  1        1 0.58245051E-01 0.27906513E+03</pdfrwt>
<pdfrwt beam="2">  1       -1 0.79116197E-02 0.27906513E+03</pdfrwt>
<totfact> 0.56681508E+03</totfact>
</mgrwt>
</event>
<event>
 9    1  0.7997082E-001  0.2808685E+03  0.7818608E-02  0.1095216E+00
          2   -1    0    0  501    0  0.00000000000E+00  0.00000000000E+00  0.74161532335E+03  0.74161532335E+03  0.00000000000E+00 0. -1.
         -2   -1    0    0    0  501 -0.00000000000E+00 -0.00000000000E+00 -0.26593002697E+02  0.26593002697E+02  0.00000000000E+00 0. -1.
         35    2    1    2    0    0  0.00000000000E+00  0.00000000000E+00  0.71502232065E+03  0.76820832604E+03  0.28086849801E+03 0.  0.
         25    2    3    3    0    0  0.52208050204E+02 -0.26423525845E+02  0.43483409944E+03  0.45594410611E+03  0.12401794482E+03 0.  0.
         25    2    3    3    0    0 -0.52208050204E+02  0.26423525845E+02  0.28018822121E+03  0.31226421993E+03  0.12481835010E+03 0.  0.
          5    1    4    4  502    0  0.24663304571E+02  0.15157044447E+02  0.14648114067E+02  0.32782187762E+02  0.47000000000E+01 0. -1.
         -5    1    4    4    0  502  0.27544745633E+02 -0.41580570291E+02  0.42018598537E+03  0.42316191835E+03  0.47000000000E+01 0. -1.
          5    1    5    5  503    0 -0.30392176046E+02 -0.24079590714E+02  0.15736225105E+02  0.42109735624E+02  0.47000000000E+01 0.  1.
         -5    1    5    5    0  503 -0.21815874158E+02  0.50503116559E+02  0.26445199610E+03  0.27015448430E+03  0.47000000000E+01 0.  1.
<mgrwt>
<rscale>  0 0.28086850E+03</rscale>
<asrwt>0</asrwt>
<pdfrwt beam="1">  1        2 0.11409465E+00 0.28086850E+03</pdfrwt>
<pdfrwt beam="2">  1       -2 0.40912317E-02 0.28086850E+03</pdfrwt>
<totfact> 0.10344424E+04</totfact>
</mgrwt>
</event>
<event>
 9    1  0.7997082E-001  0.2600751E+03  0.7818608E-02  0.1107098E+00
          2   -1    0    0  501    0  0.00000000000E+00  0.00000000000E+00  0.88386197657E+02  0.88386197657E+02  0.00000000000E+00 0.  1.
         -2   -1    0    0    0  501 -0.00000000000E+00 -0.00000000000E+00 -0.19131683970E+03  0.19131683970E+03  0.00000000000E+00 0.  1.
         35    2    1    2    0    0  0.00000000000E+00  0.71054273576E-14 -0.10293064204E+03  0.27970303735E+03  0.26007512767E+03 0.  0.
         25    2    3    3    0    0 -0.34053460338E+02  0.86363790315E+01 -0.51030524397E+02  0.13976931435E+03  0.12528815431E+03 0.  0.
         25    2    3    3    0    0  0.34053460338E+02 -0.86363790315E+01 -0.51900117641E+02  0.13993372300E+03  0.12511434537E+03 0.  0.
          5    1    4    4  502    0 -0.22681616858E+02 -0.56797120474E+02 -0.37294457434E+02  0.71786734101E+02  0.47000000000E+01 0.  1.
         -5    1    4    4    0  502 -0.11371843480E+02  0.65433499506E+02 -0.13736066963E+02  0.67982580249E+02  0.47000000000E+01 0.  1.
          5    1    5    5  503    0  0.51237065292E+00 -0.41892099380E+02 -0.75841720379E+02  0.86771349327E+02  0.47000000000E+01 0. -1.
         -5    1    5    5    0  503  0.33541089685E+02  0.33255720348E+02  0.23941602738E+02  0.53162373675E+02  0.47000000000E+01 0. -1.
<mgrwt>
<rscale>  0 0.26007513E+03</rscale>
<asrwt>0</asrwt>
<pdfrwt beam="1">  1        2 0.13597877E-01 0.26007513E+03</pdfrwt>
<pdfrwt beam="2">  1       -2 0.29433360E-01 0.26007513E+03</pdfrwt>
<totfact> 0.46030141E+03</totfact>
</mgrwt>
</event>
<event>
 9    1  0.7997082E-001  0.2750606E+03  0.7818608E-02  0.1098418E+00
         -2   -1    0    0    0  501 -0.00000000000E+00  0.00000000000E+00  0.58507092089E+03  0.58507092089E+03  0.00000000000E+00 0.  1.
          2   -1    0    0  501    0  0.00000000000E+00 -0.00000000000E+00 -0.32328702995E+02  0.32328702995E+02  0.00000000000E+00 0.  1.
         35    2    1    2    0    0  0.00000000000E+00 -0.35527136788E-14  0.55274221790E+03  0.61739962389E+03  0.27506060447E+03 0.  0.
         25    2    3    3    0    0  0.17237778551E+02 -0.12426484435E+01  0.15941969755E+03  0.20388874651E+03  0.12592575512E+03 0.  0.
         25    2    3    3    0    0 -0.17237778551E+02  0.12426484435E+01  0.39332252035E+03  0.41351087737E+03  0.12645139584E+03 0.  0.
          5    1    4    4  502    0  0.18105649970E+02 -0.18835101157E+02 -0.13658366474E+02  0.29853250596E+02  0.47000000000E+01 0. -1.
         -5    1    4    4    0  502 -0.86787141914E+00  0.17592452713E+02  0.17307806402E+03  0.17403549592E+03  0.47000000000E+01 0. -1.
          5    1    5    5  503    0  0.18203686292E+01 -0.51507041707E+02  0.30075584182E+03  0.30517610568E+03  0.47000000000E+01 0.  1.
         -5    1    5    5    0  503 -0.19058147180E+02  0.52749690150E+02  0.92566678528E+02  0.10833477170E+03  0.47000000000E+01 0.  1.
<mgrwt>
<rscale>  0 0.27506060E+03</rscale>
<asrwt>0</asrwt>
<pdfrwt beam="1">  1        2 0.49736471E-02 0.27506060E+03</pdfrwt>
<pdfrwt beam="2">  1       -2 0.90010903E-01 0.27506060E+03</pdfrwt>
<totfact> 0.17280382E+03</totfact>
</mgrwt>
</event>
<event>
 9    1  0.7997082E-001  0.2766126E+03  0.7818608E-02  0.1097554E+00
         -1   -1    0    0    0  501 -0.00000000000E+00  0.00000000000E+00  0.78379493322E+03  0.78379493322E+03  0.00000000000E+00 0. -1.
          1   -1    0    0  501    0  0.00000000000E+00 -0.00000000000E+00 -0.24405147718E+02  0.24405147718E+02  0.00000000000E+00 0. -1.
         35    2    1    2    0    0  0.00000000000E+00  0.00000000000E+00  0.75938978550E+03  0.80820008094E+03  0.27661258920E+03 0.  0.
         25    2    3    3    0    0  0.13919335950E+02 -0.30919690731E+02  0.53699257603E+03  0.55232894463E+03  0.12472554339E+03 0.  0.
         25    2    3    3    0    0 -0.13919335950E+02  0.30919690731E+02  0.22239720947E+03  0.25587113631E+03  0.12190055139E+03 0.  0.
          5    1    4    4  502    0 -0.26091406535E+02 -0.31111154716E+02  0.48419297295E+03  0.48591520917E+03  0.47000000000E+01 0.  1.
         -5    1    4    4    0  502  0.40010742485E+02  0.19146398435E+00  0.52799603079E+02  0.66413735462E+02  0.47000000000E+01 0.  1.
          5    1    5    5  503    0  0.47735721221E+02  0.40499718807E+01  0.44219959824E+02  0.65365099247E+02  0.47000000000E+01 0.  1.
         -5    1    5    5    0  503 -0.61655057172E+02  0.26869718851E+02  0.17817724965E+03  0.19050603706E+03  0.47000000000E+01 0.  1.
<mgrwt>
<rscale>  0 0.27661259E+03</rscale>
<asrwt>0</asrwt>
<pdfrwt beam="1">  1        1 0.37546387E-02 0.27661259E+03</pdfrwt>
<pdfrwt beam="2">  1       -1 0.12058382E+00 0.27661259E+03</pdfrwt>
<totfact> 0.16238065E+03</totfact>
</mgrwt>
</event>
<event>
 9    1  0.7997082E-001  0.2798358E+03  0.7818608E-02  0.1095779E+00
         -2   -1    0    0    0  501 -0.00000000000E+00  0.00000000000E+00  0.14283392528E+02  0.14283392528E+02  0.00000000000E+00 0.  1.
          2   -1    0    0  501    0  0.00000000000E+00 -0.00000000000E+00 -0.13706138912E+04  0.13706138912E+04  0.00000000000E+00 0.  1.
         35    2    1    2    0    0 -0.71054273576E-14  0.00000000000E+00 -0.13563304987E+04  0.13848972838E+04  0.27983578193E+03 0.  0.
         25    2    3    3    0    0 -0.24201174262E+02  0.58575332685E+02 -0.66256050200E+03  0.67715674330E+03  0.12465179398E+03 0.  0.
         25    2    3    3    0    0  0.24201174262E+02 -0.58575332685E+02 -0.69376999670E+03  0.70774054047E+03  0.12475214570E+03 0.  0.
          5    1    4    4  502    0 -0.24276063029E+02 -0.34175385918E+02 -0.29716220400E+03  0.30014121630E+03  0.47000000000E+01 0. -1.
         -5    1    4    4    0  502  0.74888767052E-01  0.92750718603E+02 -0.36539829801E+03  0.37701552699E+03  0.47000000000E+01 0. -1.
          5    1    5    5  503    0  0.36253267640E+01 -0.67325996295E+02 -0.67442447980E+03  0.67780262741E+03  0.47000000000E+01 0.  1.
         -5    1    5    5    0  503  0.20575847498E+02  0.87506636106E+01 -0.19345516907E+02  0.29937913058E+02  0.47000000000E+01 0.  1.
<mgrwt>
<rscale>  0 0.27983578E+03</rscale>
<asrwt>0</asrwt>
<pdfrwt beam="1">  1        2 0.21086375E+00 0.27983578E+03</pdfrwt>
<pdfrwt beam="2">  1       -2 0.21974442E-02 0.27983578E+03</pdfrwt>
<totfact> 0.10789942E+04</totfact>
</mgrwt>
</event>
<event>
 9    1  0.7997082E-001  0.2792943E+03  0.7818608E-02  0.1096075E+00
          2   -1    0    0  501    0  0.00000000000E+00  0.00000000000E+00  0.33538336865E+04  0.33538336865E+04  0.00000000000E+00 0. -1.
         -2   -1    0    0    0  501 -0.00000000000E+00 -0.00000000000E+00 -0.58146375069E+01  0.58146375069E+01  0.00000000000E+00 0. -1.
         35    2    1    2    0    0 -0.35527136788E-14  0.00000000000E+00  0.33480190489E+04  0.33596483240E+04  0.27929430460E+03 0.  0.
         25    2    3    3    0    0  0.13276405707E+02  0.55230370979E+02  0.19364335228E+04  0.19412781296E+04  0.12473704933E+03 0.  0.
         25    2    3    3    0    0 -0.13276405707E+02 -0.55230370979E+02  0.14115855261E+04  0.14183701943E+04  0.12638692081E+03 0.  0.
          5    1    4    4  502    0 -0.26588375177E+02 -0.31221105944E+02  0.66151319362E+03  0.66279973936E+03  0.47000000000E+01 0. -1.
         -5    1    4    4    0  502  0.39864780884E+02  0.86451476923E+02  0.12749203292E+04  0.12784783903E+04  0.47000000000E+01 0. -1.
          5    1    5    5  503    0  0.88395663082E+01 -0.93539213951E+02  0.95110530633E+03  0.95574636605E+03  0.47000000000E+01 0.  1.
         -5    1    5    5    0  503 -0.22115972016E+02  0.38308842972E+02  0.46048021980E+03  0.46262382829E+03  0.47000000000E+01 0.  1.
<mgrwt>
<rscale>  0 0.27929430E+03</rscale>
<asrwt>0</asrwt>
<pdfrwt beam="1">  1        2 0.51597287E+00 0.27929430E+03</pdfrwt>
<pdfrwt beam="2">  1       -2 0.89456230E-03 0.27929430E+03</pdfrwt>
<totfact> 0.31627881E+03</totfact>
</mgrwt>
</event>
<event>
 9    1  0.7997082E-001  0.2726089E+03  0.7818608E-02  0.1099796E+00
          2   -1    0    0  501    0  0.00000000000E+00  0.00000000000E+00  0.11164675750E+04  0.11164675750E+04  0.00000000000E+00 0. -1.
         -2   -1    0    0    0  501 -0.00000000000E+00 -0.00000000000E+00 -0.16640790067E+02  0.16640790067E+02  0.00000000000E+00 0. -1.
         35    2    1    2    0    0 -0.14210854715E-13  0.35527136788E-14  0.10998267849E+04  0.11331083651E+04  0.27260889591E+03 0.  0.
         25    2    3    3    0    0 -0.44333003887E+02 -0.67174273262E+01  0.68196785604E+03  0.69485331511E+03  0.12542102609E+03 0.  0.
         25    2    3    3    0    0  0.44333003887E+02  0.67174273262E+01  0.41785892888E+03  0.43825504994E+03  0.12430150961E+03 0.  0.
          5    1    4    4  502    0  0.21971613783E+02  0.28335650551E+02  0.75129976121E+02  0.83380238764E+02  0.47000000000E+01 0. -1.
         -5    1    4    4    0  502 -0.66304617669E+02 -0.35053077877E+02  0.60683787992E+03  0.61147307635E+03  0.47000000000E+01 0. -1.
          5    1    5    5  503    0 -0.10393655540E+02  0.50902426118E+02  0.10130454114E+03  0.11394641335E+03  0.47000000000E+01 0. -1.
         -5    1    5    5    0  503  0.54726659426E+02 -0.44184998792E+02  0.31655438774E+03  0.32430863659E+03  0.47000000000E+01 0. -1.
<mgrwt>
<rscale>  0 0.27260890E+03</rscale>
<asrwt>0</asrwt>
<pdfrwt beam="1">  1        2 0.17176418E+00 0.27260890E+03</pdfrwt>
<pdfrwt beam="2">  1       -2 0.25601224E-02 0.27260890E+03</pdfrwt>
<totfact> 0.11958520E+04</totfact>
</mgrwt>
</event>
<event>
 9    1  0.7997082E-001  0.2749460E+03  0.7818608E-02  0.1098482E+00
         -1   -1    0    0    0  501 -0.00000000000E+00  0.00000000000E+00  0.14591571779E+04  0.14591571779E+04  0.00000000000E+00 0.  1.
          1   -1    0    0  501    0  0.00000000000E+00 -0.00000000000E+00 -0.12951878497E+02  0.12951878497E+02  0.00000000000E+00 0.  1.
         35    2    1    2    0    0  0.14210854715E-13  0.00000000000E+00  0.14462052994E+04  0.14721090564E+04  0.27494600543E+03 0.  0.
         25    2    3    3    0    0  0.52747631066E+02 -0.18067446836E+02  0.78294502247E+03  0.79475975999E+03  0.12462512855E+03 0.  0.
         25    2    3    3    0    0 -0.52747631066E+02  0.18067446836E+02  0.66326027688E+03  0.67734929636E+03  0.12561500376E+03 0.  0.
          5    1    4    4  502    0  0.75341179721E+02  0.20940466501E+02  0.64063105868E+03  0.64540300576E+03  0.47000000000E+01 0. -1.
         -5    1    4    4    0  502 -0.22593548656E+02 -0.39007913337E+02  0.14231396379E+03  0.14935675423E+03  0.47000000000E+01 0. -1.
          5    1    5    5  503    0 -0.46970280288E+02 -0.39457405181E+02  0.17192050349E+03  0.18259749060E+03  0.47000000000E+01 0. -1.
         -5    1    5    5    0  503 -0.57773507777E+01  0.57524852017E+02  0.49133977339E+03  0.49475180576E+03  0.47000000000E+01 0. -1.
<mgrwt>
<rscale>  0 0.27494601E+03</rscale>
<asrwt>0</asrwt>
<pdfrwt beam="1">  1        1 0.19925979E-02 0.27494601E+03</pdfrwt>
<pdfrwt beam="2">  1       -1 0.22448559E+00 0.27494601E+03</pdfrwt>
<totfact> 0.70144804E+02</totfact>
</mgrwt>
</event>
<event>
 9    1  0.7997082E-001  0.2742613E+03  0.7818608E-02  0.1098865E+00
          2   -1    0    0  501    0  0.00000000000E+00  0.00000000000E+00  0.19146054105E+04  0.19146054105E+04  0.00000000000E+00 0. -1.
         -2   -1    0    0    0  501 -0.00000000000E+00 -0.00000000000E+00 -0.98217691289E+01  0.98217691289E+01  0.00000000000E+00 0. -1.
         35    2    1    2    0    0  0.00000000000E+00  0.00000000000E+00  0.19047836414E+04  0.19244271796E+04  0.27426127918E+03 0.  0.
         25    2    3    3    0    0 -0.48468514048E+02 -0.28997993647E+01  0.79523613577E+03  0.80656952498E+03  0.12568325789E+03 0.  0.
         25    2    3    3    0    0  0.48468514048E+02  0.28997993647E+01  0.11095475056E+04  0.11178576546E+04  0.12709234109E+03 0.  0.
          5    1    4    4  502    0 -0.57025591432E+02 -0.24810017378E+02  0.17346205821E+03  0.18433293433E+03  0.47000000000E+01 0. -1.
         -5    1    4    4    0  502  0.85570773842E+01  0.21910218013E+02  0.62177407756E+03  0.62223659065E+03  0.47000000000E+01 0. -1.
          5    1    5    5  503    0  0.53936495940E+02  0.58308315263E+02  0.59898331373E+03  0.60424507060E+03  0.47000000000E+01 0. -1.
         -5    1    5    5    0  503 -0.54679818927E+01 -0.55408515898E+02  0.51056419187E+03  0.51361258404E+03  0.47000000000E+01 0. -1.
<mgrwt>
<rscale>  0 0.27426128E+03</rscale>
<asrwt>0</asrwt>
<pdfrwt beam="1">  1        2 0.29455438E+00 0.27426128E+03</pdfrwt>
<pdfrwt beam="2">  1       -2 0.15110429E-02 0.27426128E+03</pdfrwt>
<totfact> 0.96158799E+03</totfact>
</mgrwt>
</event>
<event>
 9    1  0.7997082E-001  0.2702975E+03  0.7818608E-02  0.1101109E+00
          1   -1    0    0  501    0  0.00000000000E+00  0.00000000000E+00  0.67163896348E+03  0.67163896348E+03  0.00000000000E+00 0.  1.
         -1   -1    0    0    0  501 -0.00000000000E+00 -0.00000000000E+00 -0.27194937899E+02  0.27194937899E+02  0.00000000000E+00 0.  1.
         35    2    1    2    0    0  0.00000000000E+00  0.71054273576E-14  0.64444402559E+03  0.69883390138E+03  0.27029746505E+03 0.  0.
         25    2    3    3    0    0 -0.43846283256E+01 -0.45645444942E+02  0.36028634618E+03  0.38491965874E+03  0.12749180690E+03 0.  0.
         25    2    3    3    0    0  0.43846283256E+01  0.45645444942E+02  0.28415767940E+03  0.31391424265E+03  0.12527503089E+03 0.  0.
          5    1    4    4  502    0  0.55155192682E+02 -0.17586096969E+02  0.24771636799E+03  0.25443438261E+03  0.47000000000E+01 0.  1.
         -5    1    4    4    0  502 -0.59539821007E+02 -0.28059347972E+02  0.11256997819E+03  0.13048527612E+03  0.47000000000E+01 0.  1.
          5    1    5    5  503    0 -0.50815821176E+02  0.95021700992E+01  0.20133066055E+03  0.20791503985E+03  0.47000000000E+01 0. -1.
         -5    1    5    5    0  503  0.55200449501E+02  0.36143274843E+02  0.82827018848E+02  0.10599920279E+03  0.47000000000E+01 0. -1.
<mgrwt>
<rscale>  0 0.27029747E+03</rscale>
<asrwt>0</asrwt>
<pdfrwt beam="1">  1        1 0.10332906E+00 0.27029747E+03</pdfrwt>
<pdfrwt beam="2">  1       -1 0.41838371E-02 0.27029747E+03</pdfrwt>
<totfact> 0.68606906E+03</totfact>
</mgrwt>
</event>
<event>
 9    1  0.7997082E-001  0.2765790E+03  0.7818608E-02  0.1097572E+00
         -1   -1    0    0    0  501 -0.00000000000E+00  0.00000000000E+00  0.15199337451E+03  0.15199337451E+03  0.00000000000E+00 0. -1.
          1   -1    0    0  501    0  0.00000000000E+00 -0.00000000000E+00 -0.12582114411E+03  0.12582114411E+03  0.00000000000E+00 0. -1.
         35    2    1    2    0    0 -0.71054273576E-14  0.71054273576E-14  0.26172230398E+02  0.27781451863E+03  0.27657896000E+03 0.  0.
         25    2    3    3    0    0 -0.24861892842E+02 -0.21800784766E+02 -0.37251061583E+02  0.13466545347E+03  0.12511496648E+03 0.  0.
         25    2    3    3    0    0  0.24861892842E+02  0.21800784766E+02  0.63423291981E+02  0.14314906515E+03  0.12399900385E+03 0.  0.
          5    1    4    4  502    0  0.16081551595E+02 -0.42834835473E+02  0.28616634463E+02  0.54170482735E+02  0.47000000000E+01 0. -1.
         -5    1    4    4    0  502 -0.40943444437E+02  0.21034050707E+02 -0.65867696046E+02  0.80494970737E+02  0.47000000000E+01 0. -1.
          5    1    5    5  503    0 -0.29088216255E+01  0.31046511841E+02  0.94845315537E+02  0.99950342771E+02  0.47000000000E+01 0. -1.
         -5    1    5    5    0  503  0.27770714467E+02 -0.92457270749E+01 -0.31422023556E+02  0.43198722383E+02  0.47000000000E+01 0. -1.
<mgrwt>
<rscale>  0 0.27657896E+03</rscale>
<asrwt>0</asrwt>
<pdfrwt beam="1">  1        1 0.19357099E-01 0.27657896E+03</pdfrwt>
<pdfrwt beam="2">  1       -1 0.23383596E-01 0.27657896E+03</pdfrwt>
<totfact> 0.41254356E+03</totfact>
</mgrwt>
</event>
<event>
 9    1  0.7997082E-001  0.2779247E+03  0.7818608E-02  0.1096828E+00
          1   -1    0    0  501    0  0.00000000000E+00  0.00000000000E+00  0.73288821382E+02  0.73288821382E+02  0.00000000000E+00 0. -1.
         -1   -1    0    0    0  501 -0.00000000000E+00 -0.00000000000E+00 -0.26348545660E+03  0.26348545660E+03  0.00000000000E+00 0. -1.
         35    2    1    2    0    0  0.00000000000E+00 -0.35527136788E-14 -0.19019663522E+03  0.33677427798E+03  0.27792472769E+03 0.  0.
         25    2    3    3    0    0 -0.12554037495E+02  0.84188603702E+01 -0.26298400430E+02  0.12866988605E+03  0.12504340304E+03 0.  0.
         25    2    3    3    0    0  0.12554037495E+02 -0.84188603702E+01 -0.16389823479E+03  0.20810439193E+03  0.12734333711E+03 0.  0.
          5    1    4    4  502    0 -0.11003173352E+02 -0.36665005075E+02  0.35226872215E+02  0.52234231564E+02  0.47000000000E+01 0. -1.
         -5    1    4    4    0  502 -0.15508641424E+01  0.45083865445E+02 -0.61525272645E+02  0.76435654489E+02  0.47000000000E+01 0. -1.
          5    1    5    5  503    0  0.24723582266E+02 -0.33308115010E+02 -0.17346646719E+03  0.17841914495E+03  0.47000000000E+01 0.  1.
         -5    1    5    5    0  503 -0.12169544771E+02  0.24889254640E+02  0.95682324064E+01  0.29685246973E+02  0.47000000000E+01 0.  1.
<mgrwt>
<rscale>  0 0.27792473E+03</rscale>
<asrwt>0</asrwt>
<pdfrwt beam="1">  1        1 0.11275203E-01 0.27792473E+03</pdfrwt>
<pdfrwt beam="2">  1       -1 0.40536225E-01 0.27792473E+03</pdfrwt>
<totfact> 0.32758270E+03</totfact>
</mgrwt>
</event>
<event>
 9    1  0.7997082E-001  0.2779510E+03  0.7818608E-02  0.1096813E+00
         -2   -1    0    0    0  501 -0.00000000000E+00  0.00000000000E+00  0.85197508241E+01  0.85197508241E+01  0.00000000000E+00 0.  1.
          2   -1    0    0  501    0  0.00000000000E+00 -0.00000000000E+00 -0.22669905621E+04  0.22669905621E+04  0.00000000000E+00 0.  1.
         35    2    1    2    0    0  0.71054273576E-14  0.00000000000E+00 -0.22584708113E+04  0.22755103129E+04  0.27795103677E+03 0.  0.
         25    2    3    3    0    0 -0.20916379898E+02 -0.41408236252E+02 -0.14790928861E+04  0.14848598393E+04  0.12223272753E+03 0.  0.
         25    2    3    3    0    0  0.20916379898E+02  0.41408236252E+02 -0.77937792516E+03  0.79065047361E+03  0.12468393726E+03 0.  0.
          5    1    4    4  502    0  0.47487942267E+02 -0.36540100874E+02 -0.81721086893E+03  0.81941807274E+03  0.47000000000E+01 0. -1.
         -5    1    4    4    0  502 -0.68404322166E+02 -0.48681353776E+01 -0.66188201720E+03  0.66544176659E+03  0.47000000000E+01 0. -1.
          5    1    5    5  503    0 -0.34580915542E+02  0.64012750918E+02 -0.42061605096E+03  0.42688807002E+03  0.47000000000E+01 0. -1.
         -5    1    5    5    0  503  0.55497295441E+02 -0.22604514666E+02 -0.35876187421E+03  0.36376240360E+03  0.47000000000E+01 0. -1.
<mgrwt>
<rscale>  0 0.27795104E+03</rscale>
<asrwt>0</asrwt>
<pdfrwt beam="1">  1        2 0.34876766E+00 0.27795104E+03</pdfrwt>
<pdfrwt beam="2">  1       -2 0.13107313E-02 0.27795104E+03</pdfrwt>
<totfact> 0.77073757E+03</totfact>
</mgrwt>
</event>
<event>
 9    1  0.7997082E-001  0.2734244E+03  0.7818608E-02  0.1099336E+00
          2   -1    0    0  501    0  0.00000000000E+00  0.00000000000E+00  0.26367499216E+03  0.26367499216E+03  0.00000000000E+00 0.  1.
         -2   -1    0    0    0  501 -0.00000000000E+00 -0.00000000000E+00 -0.70883568123E+02  0.70883568123E+02  0.00000000000E+00 0.  1.
         35    2    1    2    0    0  0.00000000000E+00  0.00000000000E+00  0.19279142403E+03  0.33455856028E+03  0.27342439005E+03 0.  0.
         25    2    3    3    0    0  0.16212167884E+02  0.49347991704E+02  0.10863458553E+03  0.17399720719E+03  0.12560054245E+03 0.  0.
         25    2    3    3    0    0 -0.16212167884E+02 -0.49347991704E+02  0.84156838501E+02  0.16056135309E+03  0.12648919308E+03 0.  0.
          5    1    4    4  502    0 -0.24971679747E+02  0.40064991727E+02  0.12082402816E+03  0.12980494649E+03  0.47000000000E+01 0. -1.
         -5    1    4    4    0  502  0.41183847631E+02  0.92829999768E+01 -0.12189442632E+02  0.44192260702E+02  0.47000000000E+01 0. -1.
          5    1    5    5  503    0 -0.70898737541E+02 -0.37500764847E+02  0.44794096319E+02  0.91986626278E+02  0.47000000000E+01 0.  1.
         -5    1    5    5    0  503  0.54686569656E+02 -0.11847226857E+02  0.39362742182E+02  0.68574726810E+02  0.47000000000E+01 0.  1.
<mgrwt>
<rscale>  0 0.27342439E+03</rscale>
<asrwt>0</asrwt>
<pdfrwt beam="1">  1        2 0.40565383E-01 0.27342439E+03</pdfrwt>
<pdfrwt beam="2">  1       -2 0.10905164E-01 0.27342439E+03</pdfrwt>
<totfact> 0.72067666E+03</totfact>
</mgrwt>
</event>
<event>
 9    1  0.7997082E-001  0.2752973E+03  0.7818608E-02  0.1098286E+00
          2   -1    0    0  501    0  0.00000000000E+00  0.00000000000E+00  0.18057248862E+04  0.18057248862E+04  0.00000000000E+00 0.  1.
         -2   -1    0    0    0  501 -0.00000000000E+00 -0.00000000000E+00 -0.10492823326E+02  0.10492823326E+02  0.00000000000E+00 0.  1.
         35    2    1    2    0    0 -0.71054273576E-14 -0.17763568394E-14  0.17952320629E+04  0.18162177095E+04  0.27529730988E+03 0.  0.
         25    2    3    3    0    0  0.54719096921E+02  0.10316669590E+02  0.83617170440E+03  0.84737169357E+03  0.12551914029E+03 0.  0.
         25    2    3    3    0    0 -0.54719096921E+02 -0.10316669590E+02  0.95906035845E+03  0.96884601593E+03  0.12555962013E+03 0.  0.
          5    1    4    4  502    0 -0.15010909698E+02  0.37259013473E+02  0.55249010618E+03  0.55396838260E+03  0.47000000000E+01 0.  1.
         -5    1    4    4    0  502  0.69730006618E+02 -0.26942343883E+02  0.28368159822E+03  0.29340331097E+03  0.47000000000E+01 0.  1.
          5    1    5    5  503    0 -0.66969819269E+02 -0.85418730526E+01  0.95087310710E+03  0.95327838331E+03  0.47000000000E+01 0.  1.
         -5    1    5    5    0  503  0.12250722348E+02 -0.17747965373E+01  0.81872513508E+01  0.15567632623E+02  0.47000000000E+01 0.  1.
<mgrwt>
<rscale>  0 0.27529731E+03</rscale>
<asrwt>0</asrwt>
<pdfrwt beam="1">  1        2 0.27780358E+00 0.27529731E+03</pdfrwt>
<pdfrwt beam="2">  1       -2 0.16142819E-02 0.27529731E+03</pdfrwt>
<totfact> 0.99572909E+03</totfact>
</mgrwt>
</event>
<event>
 9    1  0.7997082E-001  0.2727763E+03  0.7818608E-02  0.1099701E+00
          1   -1    0    0  501    0  0.00000000000E+00  0.00000000000E+00  0.12091887810E+04  0.12091887810E+04  0.00000000000E+00 0. -1.
         -1   -1    0    0    0  501 -0.00000000000E+00 -0.00000000000E+00 -0.15383637548E+02  0.15383637548E+02  0.00000000000E+00 0. -1.
         35    2    1    2    0    0  0.00000000000E+00  0.00000000000E+00  0.11938051434E+04  0.12245724185E+04  0.27277625947E+03 0.  0.
         25    2    3    3    0    0  0.28220200260E+02 -0.40421763675E+02  0.49083491616E+03  0.50895059011E+03  0.12522575443E+03 0.  0.
         25    2    3    3    0    0 -0.28220200260E+02  0.40421763675E+02  0.70297022727E+03  0.71562182841E+03  0.12456790193E+03 0.  0.
          5    1    4    4  502    0 -0.21242586556E+02  0.21997630551E+02  0.37343507581E+02  0.48495059459E+02  0.47000000000E+01 0. -1.
         -5    1    4    4    0  502  0.49462786817E+02 -0.62419394226E+02  0.45349140858E+03  0.46045553066E+03  0.47000000000E+01 0. -1.
          5    1    5    5  503    0  0.74014005649E+01  0.31577929110E+02  0.65100028427E+03  0.65182467463E+03  0.47000000000E+01 0. -1.
         -5    1    5    5    0  503 -0.35621600825E+02  0.88438345653E+01  0.51969942995E+02  0.63797153777E+02  0.47000000000E+01 0. -1.
<mgrwt>
<rscale>  0 0.27277626E+03</rscale>
<asrwt>0</asrwt>
<pdfrwt beam="1">  1        1 0.18602897E+00 0.27277626E+03</pdfrwt>
<pdfrwt beam="2">  1       -1 0.23667144E-02 0.27277626E+03</pdfrwt>
<totfact> 0.60376006E+03</totfact>
</mgrwt>
</event>
<event>
 9    1  0.7997082E-001  0.2757116E+03  0.7818608E-02  0.1098054E+00
         -1   -1    0    0    0  501 -0.00000000000E+00  0.00000000000E+00  0.33924208221E+02  0.33924208221E+02  0.00000000000E+00 0. -1.
          1   -1    0    0  501    0  0.00000000000E+00 -0.00000000000E+00 -0.56019665149E+03  0.56019665149E+03  0.00000000000E+00 0. -1.
         35    2    1    2    0    0 -0.53290705182E-14  0.00000000000E+00 -0.52627244327E+03  0.59412085971E+03  0.27571164538E+03 0.  0.
         25    2    3    3    0    0 -0.74125165859E+01 -0.14967221022E+02 -0.15021637085E+03  0.19639113389E+03  0.12540158011E+03 0.  0.
         25    2    3    3    0    0  0.74125165859E+01  0.14967221022E+02 -0.37605607242E+03  0.39772972582E+03  0.12842041149E+03 0.  0.
          5    1    4    4  502    0 -0.40057767220E+01  0.46805113251E+02 -0.18338774599E+02  0.50647463188E+02  0.47000000000E+01 0.  1.
         -5    1    4    4    0  502 -0.34067398639E+01 -0.61772334273E+02 -0.13187759625E+03  0.14574367070E+03  0.47000000000E+01 0.  1.
          5    1    5    5  503    0 -0.26745663918E+02 -0.48355830964E+02 -0.19824364809E+03  0.20585492691E+03  0.47000000000E+01 0.  1.
         -5    1    5    5    0  503  0.34158180503E+02  0.63323051985E+02 -0.17781242434E+03  0.19187479891E+03  0.47000000000E+01 0.  1.
<mgrwt>
<rscale>  0 0.27571165E+03</rscale>
<asrwt>0</asrwt>
<pdfrwt beam="1">  1        1 0.86184096E-01 0.27571165E+03</pdfrwt>
<pdfrwt beam="2">  1       -1 0.52191092E-02 0.27571165E+03</pdfrwt>
<totfact> 0.63578872E+03</totfact>
</mgrwt>
</event>
<event>
 9    1  0.7997082E-001  0.2758323E+03  0.7818608E-02  0.1097987E+00
          2   -1    0    0  501    0  0.00000000000E+00  0.00000000000E+00  0.60645769017E+03  0.60645769017E+03  0.00000000000E+00 0. -1.
         -2   -1    0    0    0  501 -0.00000000000E+00 -0.00000000000E+00 -0.31363885784E+02  0.31363885784E+02  0.00000000000E+00 0. -1.
         35    2    1    2    0    0  0.00000000000E+00  0.17763568394E-14  0.57509380438E+03  0.63782157595E+03  0.27583233840E+03 0.  0.
         25    2    3    3    0    0 -0.43393694249E+02 -0.86090613346E+01  0.34219428558E+03  0.36827108276E+03  0.12872269683E+03 0.  0.
         25    2    3    3    0    0  0.43393694249E+02  0.86090613346E+01  0.23289951880E+03  0.26955049319E+03  0.12828933658E+03 0.  0.
          5    1    4    4  502    0 -0.71751803343E+02 -0.13583700039E+02  0.97824066812E+02  0.12216577359E+03  0.47000000000E+01 0.  1.
         -5    1    4    4    0  502  0.28358109095E+02  0.49746387039E+01  0.24437021877E+03  0.24610530917E+03  0.47000000000E+01 0.  1.
          5    1    5    5  503    0  0.59992310264E+02  0.45949356709E+02  0.75725841268E+02  0.10708367620E+03  0.47000000000E+01 0. -1.
         -5    1    5    5    0  503 -0.16598616015E+02 -0.37340295374E+02  0.15717367754E+03  0.16246681699E+03  0.47000000000E+01 0. -1.
<mgrwt>
<rscale>  0 0.27583234E+03</rscale>
<asrwt>0</asrwt>
<pdfrwt beam="1">  1        2 0.93301174E-01 0.27583234E+03</pdfrwt>
<pdfrwt beam="2">  1       -2 0.48252136E-02 0.27583234E+03</pdfrwt>
<totfact> 0.10253560E+04</totfact>
</mgrwt>
</event>
<event>
 9    1  0.7997082E-001  0.2961968E+03  0.7818608E-02  0.1087157E+00
         -2   -1    0    0    0  501 -0.00000000000E+00  0.00000000000E+00  0.11051559883E+02  0.11051559883E+02  0.00000000000E+00 0. -1.
          2   -1    0    0  501    0  0.00000000000E+00 -0.00000000000E+00 -0.19846194305E+04  0.19846194305E+04  0.00000000000E+00 0. -1.
         35    2    1    2    0    0  0.00000000000E+00  0.35527136788E-14 -0.19735678706E+04  0.19956709904E+04  0.29619682970E+03 0.  0.
         25    2    3    3    0    0 -0.73813510644E+02  0.11856887267E+02 -0.11135555176E+04  0.11234107070E+04  0.12828369235E+03 0.  0.
         25    2    3    3    0    0  0.73813510644E+02 -0.11856887267E+02 -0.86001235298E+03  0.87226028333E+03  0.12501093742E+03 0.  0.
          5    1    4    4  502    0 -0.11012834259E+03  0.16625911443E+02 -0.82067678232E+03  0.82821322364E+03  0.47000000000E+01 0. -1.
         -5    1    4    4    0  502  0.36314831941E+02 -0.47690241757E+01 -0.29287873531E+03  0.29519748340E+03  0.47000000000E+01 0. -1.
          5    1    5    5  503    0 -0.24975985478E+02  0.10715417078E+02 -0.62412570761E+02  0.68235174234E+02  0.47000000000E+01 0. -1.
         -5    1    5    5    0  503  0.98789496122E+02 -0.22572304345E+02 -0.79759978222E+03  0.80402510910E+03  0.47000000000E+01 0. -1.
<mgrwt>
<rscale>  0 0.29619683E+03</rscale>
<asrwt>0</asrwt>
<pdfrwt beam="1">  1        2 0.30532603E+00 0.29619683E+03</pdfrwt>
<pdfrwt beam="2">  1       -2 0.17002402E-02 0.29619683E+03</pdfrwt>
<totfact> 0.74354616E+03</totfact>
</mgrwt>
</event>
<event>
 9    1  0.7997082E-001  0.2719679E+03  0.7818608E-02  0.1100159E+00
          4   -1    0    0  501    0  0.00000000000E+00  0.00000000000E+00  0.21927165498E+03  0.21927165498E+03  0.00000000000E+00 0. -1.
         -4   -1    0    0    0  501 -0.00000000000E+00 -0.00000000000E+00 -0.84332074512E+02  0.84332074512E+02  0.00000000000E+00 0. -1.
         35    2    1    2    0    0  0.00000000000E+00 -0.14210854715E-13  0.13493958046E+03  0.30360372949E+03  0.27196789182E+03 0.  0.
         25    2    3    3    0    0  0.25900754109E+02 -0.32413163341E+02  0.27173899003E+02  0.13302314613E+03  0.12343125373E+03 0.  0.
         25    2    3    3    0    0 -0.25900754109E+02  0.32413163341E+02  0.10776568146E+03  0.17058058336E+03  0.12555011389E+03 0.  0.
          5    1    4    4  502    0  0.98692172283E+01 -0.76638552162E+02  0.35251349913E+02  0.85062428821E+02  0.47000000000E+01 0.  1.
         -5    1    4    4    0  502  0.16031536881E+02  0.44225388822E+02 -0.80774509095E+01  0.47960717305E+02  0.47000000000E+01 0.  1.
          5    1    5    5  503    0  0.98628647930E+01 -0.37268278734E+02  0.20006092108E+01  0.38888213368E+02  0.47000000000E+01 0.  1.
         -5    1    5    5    0  503 -0.35763618902E+02  0.69681442075E+02  0.10576507225E+03  0.13169236999E+03  0.47000000000E+01 0.  1.
<mgrwt>
<rscale>  0 0.27196789E+03</rscale>
<asrwt>0</asrwt>
<pdfrwt beam="1">  1        4 0.33734101E-01 0.27196789E+03</pdfrwt>
<pdfrwt beam="2">  1       -4 0.12974165E-01 0.27196789E+03</pdfrwt>
<totfact> 0.77192050E+02</totfact>
</mgrwt>
</event>
<event>
 9    1  0.7997082E-001  0.2793634E+03  0.7818608E-02  0.1096037E+00
         -2   -1    0    0    0  501 -0.00000000000E+00  0.00000000000E+00  0.36596783631E+02  0.36596783631E+02  0.00000000000E+00 0. -1.
          2   -1    0    0  501    0  0.00000000000E+00 -0.00000000000E+00 -0.53313368128E+03  0.53313368128E+03  0.00000000000E+00 0. -1.
         35    2    1    2    0    0  0.00000000000E+00  0.00000000000E+00 -0.49653689765E+03  0.56973046491E+03  0.27936340476E+03 0.  0.
         25    2    3    3    0    0  0.52632382912E+02 -0.18664509532E+02 -0.30200498803E+03  0.33194215452E+03  0.12593668849E+03 0.  0.
         25    2    3    3    0    0 -0.52632382912E+02  0.18664509532E+02 -0.19453190962E+03  0.23778831039E+03  0.12482822217E+03 0.  0.
          5    1    4    4  502    0  0.80983579947E+02  0.45460821817E+00 -0.10899259270E+03  0.13586766412E+03  0.47000000000E+01 0. -1.
         -5    1    4    4    0  502 -0.28351197035E+02 -0.19119117751E+02 -0.19301239533E+03  0.19607449040E+03  0.47000000000E+01 0. -1.
          5    1    5    5  503    0  0.70657877197E+01 -0.38486265109E+00  0.15979870063E+02  0.18097505977E+02  0.47000000000E+01 0. -1.
         -5    1    5    5    0  503 -0.59698170632E+02  0.19049372184E+02 -0.21051177969E+03  0.21969080441E+03  0.47000000000E+01 0. -1.
<mgrwt>
<rscale>  0 0.27936340E+03</rscale>
<asrwt>0</asrwt>
<pdfrwt beam="1">  1        2 0.82020566E-01 0.27936340E+03</pdfrwt>
<pdfrwt beam="2">  1       -2 0.56302745E-02 0.27936340E+03</pdfrwt>
<totfact> 0.94023927E+03</totfact>
</mgrwt>
</event>
<event>
 9    1  0.7997082E-001  0.2746503E+03  0.7818608E-02  0.1098647E+00
         -3   -1    0    0    0  501 -0.00000000000E+00  0.00000000000E+00  0.42655730873E+03  0.42655730873E+03  0.00000000000E+00 0.  1.
          3   -1    0    0  501    0  0.00000000000E+00 -0.00000000000E+00 -0.44210243512E+02  0.44210243512E+02  0.00000000000E+00 0.  1.
         35    2    1    2    0    0  0.35527136788E-14  0.00000000000E+00  0.38234706522E+03  0.47076755225E+03  0.27465034128E+03 0.  0.
         25    2    3    3    0    0  0.17189071299E-01  0.41397722642E+02  0.12367372598E+03  0.18032294088E+03  0.12452871466E+03 0.  0.
         25    2    3    3    0    0 -0.17189071299E-01 -0.41397722642E+02  0.25867333925E+03  0.29044461137E+03  0.12542888065E+03 0.  0.
          5    1    4    4  502    0 -0.44618712218E+02  0.21462425415E+02  0.27544116206E+01  0.49811062708E+02  0.47000000000E+01 0. -1.
         -5    1    4    4    0  502  0.44635901289E+02  0.19935297227E+02  0.12091931436E+03  0.13051187817E+03  0.47000000000E+01 0. -1.
          5    1    5    5  503    0  0.63012717582E+01 -0.86192620791E+02  0.17340034687E+03  0.19380052683E+03  0.47000000000E+01 0. -1.
         -5    1    5    5    0  503 -0.63184608295E+01  0.44794898149E+02  0.85272992374E+02  0.96644084536E+02  0.47000000000E+01 0. -1.
<mgrwt>
<rscale>  0 0.27465034E+03</rscale>
<asrwt>0</asrwt>
<pdfrwt beam="1">  1        3 0.68015762E-02 0.27465034E+03</pdfrwt>
<pdfrwt beam="2">  1       -3 0.65624199E-01 0.27465034E+03</pdfrwt>
<totfact> 0.80584141E+02</totfact>
</mgrwt>
</event>
<event>
 9    1  0.7997082E-001  0.2748325E+03  0.7818608E-02  0.1098545E+00
          2   -1    0    0  501    0  0.00000000000E+00  0.00000000000E+00  0.47028558591E+03  0.47028558591E+03  0.00000000000E+00 0.  1.
         -2   -1    0    0    0  501 -0.00000000000E+00 -0.00000000000E+00 -0.40152683142E+02  0.40152683142E+02  0.00000000000E+00 0.  1.
         35    2    1    2    0    0  0.00000000000E+00  0.00000000000E+00  0.43013290277E+03  0.51043826905E+03  0.27483251713E+03 0.  0.
         25    2    3    3    0    0  0.41952173678E+02  0.33222097468E+02  0.16936704690E+03  0.21692381936E+03  0.12452732308E+03 0.  0.
         25    2    3    3    0    0 -0.41952173678E+02 -0.33222097468E+02  0.26076585587E+03  0.29351444970E+03  0.12364549307E+03 0.  0.
          5    1    4    4  502    0  0.21242743805E+02  0.69243139435E+02  0.44253975129E+02  0.85008063370E+02  0.47000000000E+01 0.  1.
         -5    1    4    4    0  502  0.20709429873E+02 -0.36021041967E+02  0.12511307177E+03  0.13191575599E+03  0.47000000000E+01 0.  1.
          5    1    5    5  503    0 -0.54194255229E+02 -0.47808048231E+02  0.26389558855E+03  0.27365233131E+03  0.47000000000E+01 0.  1.
         -5    1    5    5    0  503  0.12242081550E+02  0.14585950762E+02 -0.31297326755E+01  0.19862118390E+02  0.47000000000E+01 0.  1.
<mgrwt>
<rscale>  0 0.27483252E+03</rscale>
<asrwt>0</asrwt>
<pdfrwt beam="1">  1        2 0.72351625E-01 0.27483252E+03</pdfrwt>
<pdfrwt beam="2">  1       -2 0.61773362E-02 0.27483252E+03</pdfrwt>
<totfact> 0.93805176E+03</totfact>
</mgrwt>
</event>
<event>
 9    1  0.7997082E-001  0.2744347E+03  0.7818608E-02  0.1098768E+00
         -2   -1    0    0    0  501 -0.00000000000E+00  0.00000000000E+00  0.14891929635E+02  0.14891929635E+02  0.00000000000E+00 0. -1.
          2   -1    0    0  501    0  0.00000000000E+00 -0.00000000000E+00 -0.12643495694E+04  0.12643495694E+04  0.00000000000E+00 0. -1.
         35    2    1    2    0    0 -0.71054273576E-14 -0.35527136788E-14 -0.12494576398E+04  0.12792414990E+04  0.27443472683E+03 0.  0.
         25    2    3    3    0    0 -0.24970685037E+02 -0.31817405569E+02 -0.80342924590E+03  0.81399619984E+03  0.12431965966E+03 0.  0.
         25    2    3    3    0    0  0.24970685037E+02  0.31817405569E+02 -0.44602839387E+03  0.46524529920E+03  0.12599991223E+03 0.  0.
          5    1    4    4  502    0  0.35874634699E+02 -0.30288900747E+02 -0.13945478863E+03  0.14722138090E+03  0.47000000000E+01 0.  1.
         -5    1    4    4    0  502 -0.60845319735E+02 -0.15285048218E+01 -0.66397445728E+03  0.66677481894E+03  0.47000000000E+01 0.  1.
          5    1    5    5  503    0 -0.45896743293E+02  0.39111242704E+02 -0.22382927060E+03  0.23185735427E+03  0.47000000000E+01 0.  1.
         -5    1    5    5    0  503  0.70867428329E+02 -0.72938371350E+01 -0.22219912327E+03  0.23338794493E+03  0.47000000000E+01 0.  1.
<mgrwt>
<rscale>  0 0.27443473E+03</rscale>
<asrwt>0</asrwt>
<pdfrwt beam="1">  1        2 0.19451528E+00 0.27443473E+03</pdfrwt>
<pdfrwt beam="2">  1       -2 0.22910666E-02 0.27443473E+03</pdfrwt>
<totfact> 0.11607331E+04</totfact>
</mgrwt>
</event>
<event>
 9    1  0.7997082E-001  0.2664674E+03  0.7818608E-02  0.1103319E+00
          2   -1    0    0  501    0  0.00000000000E+00  0.00000000000E+00  0.66820791029E+03  0.66820791029E+03  0.00000000000E+00 0.  1.
         -2   -1    0    0    0  501 -0.00000000000E+00 -0.00000000000E+00 -0.26565417321E+02  0.26565417321E+02  0.00000000000E+00 0.  1.
         35    2    1    2    0    0 -0.71054273576E-14  0.00000000000E+00  0.64164249297E+03  0.69477332761E+03  0.26646742386E+03 0.  0.
         25    2    3    3    0    0 -0.27786583904E+02 -0.19857612754E+02  0.39323221901E+03  0.41419208679E+03  0.12552723873E+03 0.  0.
         25    2    3    3    0    0  0.27786583904E+02  0.19857612754E+02  0.24841027397E+03  0.28058124083E+03  0.12590373093E+03 0.  0.
          5    1    4    4  502    0  0.30922515687E+02  0.18231764813E+02  0.26984145543E+03  0.27225925199E+03  0.47000000000E+01 0. -1.
         -5    1    4    4    0  502 -0.58709099590E+02 -0.38089377566E+02  0.12339076357E+03  0.14193283480E+03  0.47000000000E+01 0. -1.
          5    1    5    5  503    0  0.76016825770E+02  0.66508498903E+01  0.18127605231E+03  0.19673812225E+03  0.47000000000E+01 0. -1.
         -5    1    5    5    0  503 -0.48230241867E+02  0.13206762863E+02  0.67134221655E+02  0.83843118579E+02  0.47000000000E+01 0. -1.
<mgrwt>
<rscale>  0 0.26646742E+03</rscale>
<asrwt>0</asrwt>
<pdfrwt beam="1">  1        2 0.10280120E+00 0.26646742E+03</pdfrwt>
<pdfrwt beam="2">  1       -2 0.40869878E-02 0.26646742E+03</pdfrwt>
<totfact> 0.11737610E+04</totfact>
</mgrwt>
</event>
<event>
 9    1  0.7997082E-001  0.2719591E+03  0.7818608E-02  0.1100164E+00
          2   -1    0    0  501    0  0.00000000000E+00  0.00000000000E+00  0.13812032814E+04  0.13812032814E+04  0.00000000000E+00 0.  1.
         -2   -1    0    0    0  501 -0.00000000000E+00 -0.00000000000E+00 -0.13387192542E+02  0.13387192542E+02  0.00000000000E+00 0.  1.
         35    2    1    2    0    0  0.14210854715E-13  0.53290705182E-14  0.13678160889E+04  0.13945904740E+04  0.27195907242E+03 0.  0.
         25    2    3    3    0    0 -0.47928203649E+02 -0.11618041699E+02  0.74766202023E+03  0.75966830374E+03  0.12516127047E+03 0.  0.
         25    2    3    3    0    0  0.47928203649E+02  0.11618041699E+02  0.62015406864E+03  0.63492217021E+03  0.12689760349E+03 0.  0.
          5    1    4    4  502    0 -0.48529009968E+02 -0.61535749290E+02  0.55774322680E+03  0.56324178670E+03  0.47000000000E+01 0. -1.
         -5    1    4    4    0  502  0.60080631925E+00  0.49917707591E+02  0.18991879343E+03  0.19642651704E+03  0.47000000000E+01 0. -1.
          5    1    5    5  503    0 -0.39145343915E+02 -0.86912920578E+01  0.11466438778E+03  0.12156442051E+03  0.47000000000E+01 0.  1.
         -5    1    5    5    0  503  0.87073547564E+02  0.20309333757E+02  0.50548968086E+03  0.51335774970E+03  0.47000000000E+01 0.  1.
<mgrwt>
<rscale>  0 0.27195907E+03</rscale>
<asrwt>0</asrwt>
<pdfrwt beam="1">  1        2 0.21249270E+00 0.27195907E+03</pdfrwt>
<pdfrwt beam="2">  1       -2 0.20595692E-02 0.27195907E+03</pdfrwt>
<totfact> 0.11706479E+04</totfact>
</mgrwt>
</event>
<event>
 9    1  0.7997082E-001  0.2749013E+03  0.7818608E-02  0.1098507E+00
         -3   -1    0    0    0  501 -0.00000000000E+00  0.00000000000E+00  0.22801441401E+02  0.22801441401E+02  0.00000000000E+00 0. -1.
          3   -1    0    0  501    0  0.00000000000E+00 -0.00000000000E+00 -0.82857414715E+03  0.82857414715E+03  0.00000000000E+00 0. -1.
         35    2    1    2    0    0  0.71054273576E-14  0.00000000000E+00 -0.80577270575E+03  0.85137558855E+03  0.27490132675E+03 0.  0.
         25    2    3    3    0    0 -0.52536400834E+02 -0.13253343490E+02 -0.34847186493E+03  0.37443222268E+03  0.12582179545E+03 0.  0.
         25    2    3    3    0    0  0.52536400834E+02  0.13253343490E+02 -0.45730084082E+03  0.47694336587E+03  0.12415792646E+03 0.  0.
          5    1    4    4  502    0  0.30480967594E+02 -0.26227030347E+02 -0.19733209936E+03  0.20144228440E+03  0.47000000000E+01 0.  1.
         -5    1    4    4    0  502 -0.83017368428E+02  0.12973686857E+02 -0.15113976557E+03  0.17298993829E+03  0.47000000000E+01 0.  1.
          5    1    5    5  503    0 -0.99343101473E+01 -0.99588115154E+01 -0.35150963053E+03  0.35182236825E+03  0.47000000000E+01 0. -1.
         -5    1    5    5    0  503  0.62470710981E+02  0.23212155005E+02 -0.10579121029E+03  0.12512099762E+03  0.47000000000E+01 0. -1.
<mgrwt>
<rscale>  0 0.27490133E+03</rscale>
<asrwt>0</asrwt>
<pdfrwt beam="1">  1        3 0.12747293E+00 0.27490133E+03</pdfrwt>
<pdfrwt beam="2">  1       -3 0.35079145E-02 0.27490133E+03</pdfrwt>
<totfact> 0.51889312E+02</totfact>
</mgrwt>
</event>
<event>
 9    1  0.7997082E-001  0.2746390E+03  0.7818608E-02  0.1098654E+00
         -2   -1    0    0    0  501 -0.00000000000E+00  0.00000000000E+00  0.74147559327E+01  0.74147559327E+01  0.00000000000E+00 0.  1.
          2   -1    0    0  501    0  0.00000000000E+00 -0.00000000000E+00 -0.25431236432E+04  0.25431236432E+04  0.00000000000E+00 0.  1.
         35    2    1    2    0    0 -0.35527136788E-14  0.00000000000E+00 -0.25357088872E+04  0.25505383991E+04  0.27463897117E+03 0.  0.
         25    2    3    3    0    0 -0.11676999351E+02  0.34000599987E+02 -0.14905108231E+04  0.14970726216E+04  0.13532009196E+03 0.  0.
         25    2    3    3    0    0  0.11676999351E+02 -0.34000599987E+02 -0.10451980641E+04  0.10534657775E+04  0.12672315532E+03 0.  0.
          5    1    4    4  502    0  0.34542554310E+02 -0.39411790845E+02 -0.62602010385E+03  0.62822745701E+03  0.47000000000E+01 0. -1.
         -5    1    4    4    0  502 -0.46219553661E+02  0.73412390831E+02 -0.86449071928E+03  0.86884516457E+03  0.47000000000E+01 0. -1.
          5    1    5    5  503    0 -0.75280274286E+01  0.53206124973E+01 -0.93133571476E+03  0.93139319500E+03  0.47000000000E+01 0.  1.
         -5    1    5    5    0  503  0.19205026780E+02 -0.39321212484E+02 -0.11386234935E+03  0.12207258252E+03  0.47000000000E+01 0.  1.
<mgrwt>
<rscale>  0 0.27463897E+03</rscale>
<asrwt>0</asrwt>
<pdfrwt beam="1">  1        2 0.39125046E+00 0.27463897E+03</pdfrwt>
<pdfrwt beam="2">  1       -2 0.11407297E-02 0.27463897E+03</pdfrwt>
<totfact> 0.66844900E+03</totfact>
</mgrwt>
</event>
<event>
 9    1  0.7997082E-001  0.2733129E+03  0.7818608E-02  0.1099398E+00
         -1   -1    0    0    0  501 -0.00000000000E+00  0.00000000000E+00  0.89792192210E+01  0.89792192210E+01  0.00000000000E+00 0.  1.
          1   -1    0    0  501    0  0.00000000000E+00 -0.00000000000E+00 -0.20798010844E+04  0.20798010844E+04  0.00000000000E+00 0.  1.
         35    2    1    2    0    0  0.00000000000E+00  0.71054273576E-14 -0.20708218651E+04  0.20887803036E+04  0.27331293327E+03 0.  0.
         25    2    3    3    0    0 -0.25638432604E+02 -0.34725213046E+02 -0.73627576273E+03  0.74770190402E+03  0.12285344457E+03 0.  0.
         25    2    3    3    0    0  0.25638432604E+02  0.34725213046E+02 -0.13345461024E+04  0.13410783996E+04  0.12495921202E+03 0.  0.
          5    1    4    4  502    0 -0.73246726684E+01  0.45656321812E+02 -0.31487910142E+03  0.31829088750E+03  0.47000000000E+01 0. -1.
         -5    1    4    4    0  502 -0.18313759936E+02 -0.80381534858E+02 -0.42139666131E+03  0.42941101652E+03  0.47000000000E+01 0. -1.
          5    1    5    5  503    0  0.27498791192E+02  0.70661497106E+02 -0.49949625993E+03  0.50524037287E+03  0.47000000000E+01 0. -1.
         -5    1    5    5    0  503 -0.18603585879E+01 -0.35936284061E+02 -0.83504984248E+03  0.83583802670E+03  0.47000000000E+01 0. -1.
<mgrwt>
<rscale>  0 0.27331293E+03</rscale>
<asrwt>0</asrwt>
<pdfrwt beam="1">  1        1 0.31996952E+00 0.27331293E+03</pdfrwt>
<pdfrwt beam="2">  1       -1 0.13814178E-02 0.27331293E+03</pdfrwt>
<totfact> 0.35229488E+03</totfact>
</mgrwt>
</event>
<event>
 9    1  0.7997082E-001  0.2762344E+03  0.7818608E-02  0.1097764E+00
          2   -1    0    0  501    0  0.00000000000E+00  0.00000000000E+00  0.87250146310E+03  0.87250146310E+03  0.00000000000E+00 0. -1.
         -2   -1    0    0    0  501 -0.00000000000E+00 -0.00000000000E+00 -0.21863987343E+02  0.21863987343E+02  0.00000000000E+00 0. -1.
         35    2    1    2    0    0  0.71054273576E-14  0.71054273576E-14  0.85063747576E+03  0.89436545044E+03  0.27623440008E+03 0.  0.
         25    2    3    3    0    0 -0.44692566275E+02 -0.35160149808E+02  0.48155193574E+03  0.50030449364E+03  0.12320169613E+03 0.  0.
         25    2    3    3    0    0  0.44692566275E+02  0.35160149808E+02  0.36908554002E+03  0.39406095680E+03  0.12580238556E+03 0.  0.
          5    1    4    4  502    0  0.39587997469E+02 -0.22204098592E+02  0.23477149851E+03  0.23916516897E+03  0.47000000000E+01 0.  1.
         -5    1    4    4    0  502 -0.84280563744E+02 -0.12956051217E+02  0.24678043723E+03  0.26113932466E+03  0.47000000000E+01 0.  1.
          5    1    5    5  503    0  0.77865139522E+02  0.13216488933E+02  0.13420777261E+03  0.15579304144E+03  0.47000000000E+01 0. -1.
         -5    1    5    5    0  503 -0.33172573247E+02  0.21943660876E+02  0.23487776741E+03  0.23826791536E+03  0.47000000000E+01 0. -1.
<mgrwt>
<rscale>  0 0.27623440E+03</rscale>
<asrwt>0</asrwt>
<pdfrwt beam="1">  1        2 0.13423097E+00 0.27623440E+03</pdfrwt>
<pdfrwt beam="2">  1       -2 0.33636910E-02 0.27623440E+03</pdfrwt>
<totfact> 0.11268715E+04</totfact>
</mgrwt>
</event>
<event>
 9    1  0.7997082E-001  0.2806956E+03  0.7818608E-02  0.1095310E+00
          1   -1    0    0  501    0  0.00000000000E+00  0.00000000000E+00  0.84396175327E+03  0.84396175327E+03  0.00000000000E+00 0. -1.
         -1   -1    0    0    0  501 -0.00000000000E+00 -0.00000000000E+00 -0.23339333196E+02  0.23339333196E+02  0.00000000000E+00 0. -1.
         35    2    1    2    0    0  0.71054273576E-14  0.14210854715E-13  0.82062242007E+03  0.86730108646E+03  0.28069559715E+03 0.  0.
         25    2    3    3    0    0  0.41286284551E+02  0.35452804671E+02  0.50506626707E+03  0.52389706066E+03  0.12812001162E+03 0.  0.
         25    2    3    3    0    0 -0.41286284551E+02 -0.35452804671E+02  0.31555615300E+03  0.34340402581E+03  0.12405313618E+03 0.  0.
          5    1    4    4  502    0 -0.42631906406E+02  0.12700080148E+02  0.99554693562E+02  0.10914210228E+03  0.47000000000E+01 0. -1.
         -5    1    4    4    0  502  0.83918190956E+02  0.22752724523E+02  0.40551157351E+03  0.41475495838E+03  0.47000000000E+01 0. -1.
          5    1    5    5  503    0  0.31196474000E+02 -0.49277838453E+02  0.10442633046E+03  0.11970160336E+03  0.47000000000E+01 0. -1.
         -5    1    5    5    0  503 -0.72482758551E+02  0.13825033782E+02  0.21112982254E+03  0.22370242245E+03  0.47000000000E+01 0. -1.
<mgrwt>
<rscale>  0 0.28069560E+03</rscale>
<asrwt>0</asrwt>
<pdfrwt beam="1">  1        1 0.12984025E+00 0.28069560E+03</pdfrwt>
<pdfrwt beam="2">  1       -1 0.35906673E-02 0.28069560E+03</pdfrwt>
<totfact> 0.61142945E+03</totfact>
</mgrwt>
</event>
<event>
 9    1  0.7997082E-001  0.2765193E+03  0.7818608E-02  0.1097605E+00
          2   -1    0    0  501    0  0.00000000000E+00  0.00000000000E+00  0.10263835226E+03  0.10263835226E+03  0.00000000000E+00 0. -1.
         -2   -1    0    0    0  501 -0.00000000000E+00 -0.00000000000E+00 -0.18624358584E+03  0.18624358584E+03  0.00000000000E+00 0. -1.
         35    2    1    2    0    0  0.35527136788E-14  0.00000000000E+00 -0.83605233588E+02  0.28888193810E+03  0.27651932858E+03 0.  0.
         25    2    3    3    0    0  0.19200094356E+02 -0.29470656896E+02  0.11523474488E+02  0.12777784460E+03  0.12229972962E+03 0.  0.
         25    2    3    3    0    0 -0.19200094356E+02  0.29470656896E+02 -0.95128708076E+02  0.16110409350E+03  0.12517146080E+03 0.  0.
          5    1    4    4  502    0 -0.24584196125E+02 -0.62221448212E+02 -0.11889385556E+02  0.68112691957E+02  0.47000000000E+01 0.  1.
         -5    1    4    4    0  502  0.43784290481E+02  0.32750791317E+02  0.23412860044E+02  0.59665152645E+02  0.47000000000E+01 0.  1.
          5    1    5    5  503    0  0.25489825752E+02 -0.34806097599E+02 -0.62663096270E+02  0.76223023301E+02  0.47000000000E+01 0.  1.
         -5    1    5    5    0  503 -0.44689920107E+02  0.64276754495E+02 -0.32465611806E+02  0.84881070196E+02  0.47000000000E+01 0.  1.
<mgrwt>
<rscale>  0 0.27651933E+03</rscale>
<asrwt>0</asrwt>
<pdfrwt beam="1">  1        2 0.15790516E-01 0.27651933E+03</pdfrwt>
<pdfrwt beam="2">  1       -2 0.28652859E-01 0.27651933E+03</pdfrwt>
<totfact> 0.40541120E+03</totfact>
</mgrwt>
</event>
<event>
 9    1  0.7997082E-001  0.2535220E+03  0.7818608E-02  0.1111099E+00
          2   -1    0    0  501    0  0.00000000000E+00  0.00000000000E+00  0.41306946679E+03  0.41306946679E+03  0.00000000000E+00 0.  1.
         -2   -1    0    0    0  501 -0.00000000000E+00 -0.00000000000E+00 -0.38899865966E+02  0.38899865966E+02  0.00000000000E+00 0.  1.
         35    2    1    2    0    0 -0.17763568394E-14  0.35527136788E-14  0.37416960083E+03  0.45196933276E+03  0.25352196665E+03 0.  0.
         25    2    3    3    0    0  0.62091973833E+01 -0.12957897475E+02  0.18308188344E+03  0.22160004592E+03  0.12402073645E+03 0.  0.
         25    2    3    3    0    0 -0.62091973833E+01  0.12957897475E+02  0.19108771739E+03  0.23036928684E+03  0.12786333072E+03 0.  0.
          5    1    4    4  502    0  0.10474336235E+02  0.35693638586E+02  0.61551810839E+01  0.37996365737E+02  0.47000000000E+01 0. -1.
         -5    1    4    4    0  502 -0.42651388516E+01 -0.48651536061E+02  0.17692670236E+03  0.18360368018E+03  0.47000000000E+01 0. -1.
          5    1    5    5  503    0 -0.25134581028E+02 -0.21793775093E+02  0.18735752662E+03  0.19034612835E+03  0.47000000000E+01 0.  1.
         -5    1    5    5    0  503  0.18925383645E+02  0.34751672567E+02  0.37301907681E+01  0.40023158490E+02  0.47000000000E+01 0.  1.
<mgrwt>
<rscale>  0 0.25352197E+03</rscale>
<asrwt>0</asrwt>
<pdfrwt beam="1">  1        2 0.63549146E-01 0.25352197E+03</pdfrwt>
<pdfrwt beam="2">  1       -2 0.59845951E-02 0.25352197E+03</pdfrwt>
<totfact> 0.11315905E+04</totfact>
</mgrwt>
</event>
<event>
 9    1  0.7997082E-001  0.2702460E+03  0.7818608E-02  0.1101139E+00
          1   -1    0    0  501    0  0.00000000000E+00  0.00000000000E+00  0.62620305059E+03  0.62620305059E+03  0.00000000000E+00 0. -1.
         -1   -1    0    0    0  501 -0.00000000000E+00 -0.00000000000E+00 -0.29157041374E+02  0.29157041374E+02  0.00000000000E+00 0. -1.
         35    2    1    2    0    0 -0.35527136788E-14  0.14210854715E-13  0.59704600921E+03  0.65536009196E+03  0.27024602313E+03 0.  0.
         25    2    3    3    0    0  0.12971331281E+02 -0.38936401613E+02  0.37431945823E+03  0.39677335753E+03  0.12501896507E+03 0.  0.
         25    2    3    3    0    0 -0.12971331281E+02  0.38936401613E+02  0.22272655098E+03  0.25858673443E+03  0.12480257973E+03 0.  0.
          5    1    4    4  502    0  0.27799655551E+02 -0.95367081531E+01  0.35886485109E+03  0.36009698832E+03  0.47000000000E+01 0.  1.
         -5    1    4    4    0  502 -0.14828324270E+02 -0.29399693460E+02  0.15454607144E+02  0.36676369206E+02  0.47000000000E+01 0.  1.
          5    1    5    5  503    0  0.49104557347E+02  0.33609695424E+02  0.15669900720E+03  0.16768284956E+03  0.47000000000E+01 0.  1.
         -5    1    5    5    0  503 -0.62075888628E+02  0.53267061887E+01  0.66027543779E+02  0.90903884874E+02  0.47000000000E+01 0.  1.
<mgrwt>
<rscale>  0 0.27024602E+03</rscale>
<asrwt>0</asrwt>
<pdfrwt beam="1">  1        1 0.96338921E-01 0.27024602E+03</pdfrwt>
<pdfrwt beam="2">  1       -1 0.44856991E-02 0.27024602E+03</pdfrwt>
<totfact> 0.68314584E+03</totfact>
</mgrwt>
</event>
<event>
 9    1  0.7997082E-001  0.2731770E+03  0.7818608E-02  0.1099475E+00
          2   -1    0    0  501    0  0.00000000000E+00  0.00000000000E+00  0.79907764316E+01  0.79907764316E+01  0.00000000000E+00 0.  1.
         -2   -1    0    0    0  501 -0.00000000000E+00 -0.00000000000E+00 -0.23347443945E+04  0.23347443945E+04  0.00000000000E+00 0.  1.
         35    2    1    2    0    0 -0.17763568394E-14  0.35527136788E-14 -0.23267536181E+04  0.23427351710E+04  0.27317701574E+03 0.  0.
         25    2    3    3    0    0  0.85701725981E+01  0.47088895948E+01 -0.16357539477E+04  0.16404903501E+04  0.12418530438E+03 0.  0.
         25    2    3    3    0    0 -0.85701725981E+01 -0.47088895948E+01 -0.69099967041E+03  0.70224482088E+03  0.12478630714E+03 0.  0.
          5    1    4    4  502    0 -0.15033218837E+02 -0.52233274017E+02 -0.10654074337E+04  0.10668033570E+04  0.47000000000E+01 0.  1.
         -5    1    4    4    0  502  0.23603391435E+02  0.56942163612E+02 -0.57034651394E+03  0.57368699309E+03  0.47000000000E+01 0.  1.
          5    1    5    5  503    0 -0.60727954505E+02  0.20670727855E+02 -0.43386745730E+03  0.43860942073E+03  0.47000000000E+01 0.  1.
         -5    1    5    5    0  503  0.52157781907E+02 -0.25379617449E+02 -0.25713221311E+03  0.26363540015E+03  0.47000000000E+01 0.  1.
<mgrwt>
<rscale>  0 0.27317702E+03</rscale>
<asrwt>0</asrwt>
<pdfrwt beam="1">  1        2 0.12293498E-02 0.27317702E+03</pdfrwt>
<pdfrwt beam="2">  1       -2 0.35919158E+00 0.27317702E+03</pdfrwt>
<totfact> 0.17524727E+02</totfact>
</mgrwt>
</event>
<event>
 9    1  0.7997082E-001  0.2767715E+03  0.7818608E-02  0.1097465E+00
          2   -1    0    0  501    0  0.00000000000E+00  0.00000000000E+00  0.23322561654E+03  0.23322561654E+03  0.00000000000E+00 0.  1.
         -2   -1    0    0    0  501 -0.00000000000E+00 -0.00000000000E+00 -0.82111972875E+02  0.82111972875E+02  0.00000000000E+00 0.  1.
         35    2    1    2    0    0  0.35527136788E-14 -0.71054273576E-14  0.15111364366E+03  0.31533758941E+03  0.27677149780E+03 0.  0.
         25    2    3    3    0    0  0.16694646746E+02 -0.45993060349E+02  0.42975218903E+02  0.14218732779E+03  0.12639736514E+03 0.  0.
         25    2    3    3    0    0 -0.16694646746E+02  0.45993060349E+02  0.10813842476E+03  0.17315026162E+03  0.12606752698E+03 0.  0.
          5    1    4    4  502    0  0.32778659521E+02 -0.11806205932E+02  0.81048118333E+02  0.88344295253E+02  0.47000000000E+01 0.  1.
         -5    1    4    4    0  502 -0.16084012775E+02 -0.34186854417E+02 -0.38072899430E+02  0.53843032538E+02  0.47000000000E+01 0.  1.
          5    1    5    5  503    0 -0.19755232285E+02  0.69950253401E+02  0.12404664604E+03  0.14385050416E+03  0.47000000000E+01 0. -1.
         -5    1    5    5    0  503  0.30605855385E+01 -0.23957193052E+02 -0.15908221282E+02  0.29299757459E+02  0.47000000000E+01 0. -1.
<mgrwt>
<rscale>  0 0.27677150E+03</rscale>
<asrwt>0</asrwt>
<pdfrwt beam="1">  1        2 0.35880864E-01 0.27677150E+03</pdfrwt>
<pdfrwt beam="2">  1       -2 0.12632611E-01 0.27677150E+03</pdfrwt>
<totfact> 0.64957665E+03</totfact>
</mgrwt>
</event>
<event>
 9    1  0.7997082E-001  0.2760119E+03  0.7818608E-02  0.1097887E+00
          1   -1    0    0  501    0  0.00000000000E+00  0.00000000000E+00  0.30287614560E+03  0.30287614560E+03  0.00000000000E+00 0.  1.
         -1   -1    0    0    0  501 -0.00000000000E+00 -0.00000000000E+00 -0.62882612364E+02  0.62882612364E+02  0.00000000000E+00 0.  1.
         35    2    1    2    0    0 -0.35527136788E-14  0.00000000000E+00  0.23999353324E+03  0.36575875796E+03  0.27601190741E+03 0.  0.
         25    2    3    3    0    0 -0.26527806698E+01  0.48786105748E+02  0.76904354583E+02  0.15496233484E+03  0.12534721419E+03 0.  0.
         25    2    3    3    0    0  0.26527806698E+01 -0.48786105748E+02  0.16308917865E+03  0.21079642313E+03  0.12429774918E+03 0.  0.
          5    1    4    4  502    0  0.22937060499E+02  0.85922138930E+02  0.47660248086E+02  0.10100649459E+03  0.47000000000E+01 0.  1.
         -5    1    4    4    0  502 -0.25589841169E+02 -0.37136033182E+02  0.29244106496E+02  0.53955840243E+02  0.47000000000E+01 0.  1.
          5    1    5    5  503    0  0.50174506359E+02 -0.52254435457E+02  0.13986294699E+03  0.15758090321E+03  0.47000000000E+01 0. -1.
         -5    1    5    5    0  503 -0.47521725689E+02  0.34683297095E+01  0.23226231659E+02  0.53215519922E+02  0.47000000000E+01 0. -1.
<mgrwt>
<rscale>  0 0.27601191E+03</rscale>
<asrwt>0</asrwt>
<pdfrwt beam="1">  1        1 0.46596329E-01 0.27601191E+03</pdfrwt>
<pdfrwt beam="2">  1       -1 0.96742482E-02 0.27601191E+03</pdfrwt>
<totfact> 0.55199251E+03</totfact>
</mgrwt>
</event>
<event>
 9    1  0.7997082E-001  0.2745816E+03  0.7818608E-02  0.1098686E+00
         -1   -1    0    0    0  501 -0.00000000000E+00  0.00000000000E+00  0.88629434592E+01  0.88629434592E+01  0.00000000000E+00 0. -1.
          1   -1    0    0  501    0  0.00000000000E+00 -0.00000000000E+00 -0.21266937019E+04  0.21266937019E+04  0.00000000000E+00 0. -1.
         35    2    1    2    0    0 -0.35527136788E-14  0.00000000000E+00 -0.21178307585E+04  0.21355566454E+04  0.27458161654E+03 0.  0.
         25    2    3    3    0    0  0.16846621453E+02  0.25118850977E+02 -0.13961900639E+04  0.14022204371E+04  0.12633564208E+03 0.  0.
         25    2    3    3    0    0 -0.16846621453E+02 -0.25118850977E+02 -0.72164069457E+03  0.73333620825E+03  0.12689340781E+03 0.  0.
          5    1    4    4  502    0 -0.19197260612E+02 -0.28448656582E+02 -0.13511234927E+03  0.13948224905E+03  0.47000000000E+01 0. -1.
         -5    1    4    4    0  502  0.36043882065E+02  0.53567507559E+02 -0.12610777146E+04  0.12627381881E+04  0.47000000000E+01 0. -1.
          5    1    5    5  503    0 -0.41267744029E+01 -0.22624852348E+02 -0.18051259476E+02  0.29611689911E+02  0.47000000000E+01 0.  1.
         -5    1    5    5    0  503 -0.12719847050E+02 -0.24939986288E+01 -0.70358943509E+03  0.70372451834E+03  0.47000000000E+01 0.  1.
<mgrwt>
<rscale>  0 0.27458162E+03</rscale>
<asrwt>0</asrwt>
<pdfrwt beam="1">  1        1 0.32718351E+00 0.27458162E+03</pdfrwt>
<pdfrwt beam="2">  1       -1 0.13635303E-02 0.27458162E+03</pdfrwt>
<totfact> 0.33466320E+03</totfact>
</mgrwt>
</event>
<event>
 9    1  0.7997082E-001  0.2761075E+03  0.7818608E-02  0.1097834E+00
         -2   -1    0    0    0  501 -0.00000000000E+00  0.00000000000E+00  0.14532334282E+02  0.14532334282E+02  0.00000000000E+00 0.  1.
          2   -1    0    0  501    0  0.00000000000E+00 -0.00000000000E+00 -0.13114784995E+04  0.13114784995E+04  0.00000000000E+00 0.  1.
         35    2    1    2    0    0  0.00000000000E+00 -0.71054273576E-14 -0.12969461652E+04  0.13260108338E+04  0.27610754396E+03 0.  0.
         25    2    3    3    0    0  0.31206292984E+02 -0.39965648882E+01 -0.40748011147E+03  0.42725462665E+03  0.12456592429E+03 0.  0.
         25    2    3    3    0    0 -0.31206292984E+02  0.39965648882E+01 -0.88946605375E+03  0.89875620713E+03  0.12499221513E+03 0.  0.
          5    1    4    4  502    0  0.28129124956E+01 -0.58292774717E+02 -0.12315269697E+03  0.13636215322E+03  0.47000000000E+01 0. -1.
         -5    1    4    4    0  502  0.28393380489E+02  0.54296209829E+02 -0.28432741450E+03  0.29089247343E+03  0.47000000000E+01 0. -1.
          5    1    5    5  503    0 -0.53374139258E+02  0.51504197313E+02 -0.44196920550E+03  0.44817446346E+03  0.47000000000E+01 0. -1.
         -5    1    5    5    0  503  0.22167846273E+02 -0.47507632424E+02 -0.44749684824E+03  0.45058174368E+03  0.47000000000E+01 0. -1.
<mgrwt>
<rscale>  0 0.27610754E+03</rscale>
<asrwt>0</asrwt>
<pdfrwt beam="1">  1        2 0.20176595E+00 0.27610754E+03</pdfrwt>
<pdfrwt beam="2">  1       -2 0.22357435E-02 0.27610754E+03</pdfrwt>
<totfact> 0.11331636E+04</totfact>
</mgrwt>
</event>
<event>
 9    1  0.7997082E-001  0.2788193E+03  0.7818608E-02  0.1096336E+00
         -1   -1    0    0    0  501 -0.00000000000E+00  0.00000000000E+00  0.38465588354E+03  0.38465588354E+03  0.00000000000E+00 0. -1.
          1   -1    0    0  501    0  0.00000000000E+00 -0.00000000000E+00 -0.50525797501E+02  0.50525797501E+02  0.00000000000E+00 0. -1.
         35    2    1    2    0    0  0.00000000000E+00 -0.35527136788E-14  0.33413008604E+03  0.43518168104E+03  0.27881926246E+03 0.  0.
         25    2    3    3    0    0 -0.27297028908E+02 -0.21281517453E+02  0.22977858222E+03  0.26388222017E+03  0.12505038385E+03 0.  0.
         25    2    3    3    0    0  0.27297028908E+02  0.21281517453E+02  0.10435150382E+03  0.17129946088E+03  0.13136300155E+03 0.  0.
          5    1    4    4  502    0 -0.49105545304E+02 -0.57115618004E+02  0.19531596281E+03  0.20938950243E+03  0.47000000000E+01 0.  1.
         -5    1    4    4    0  502  0.21808516396E+02  0.35834100551E+02  0.34462619415E+02  0.54492717739E+02  0.47000000000E+01 0.  1.
          5    1    5    5  503    0  0.24617505402E+02  0.50880214250E+02 -0.58925114852E+01  0.57023060825E+02  0.47000000000E+01 0.  1.
         -5    1    5    5    0  503  0.26795235061E+01 -0.29598696797E+02  0.11024401530E+03  0.11427640005E+03  0.47000000000E+01 0.  1.
<mgrwt>
<rscale>  0 0.27881926E+03</rscale>
<asrwt>0</asrwt>
<pdfrwt beam="1">  1        1 0.77731999E-02 0.27881926E+03</pdfrwt>
<pdfrwt beam="2">  1       -1 0.59177826E-01 0.27881926E+03</pdfrwt>
<totfact> 0.26928718E+03</totfact>
</mgrwt>
</event>
<event>
 9    1  0.7997082E-001  0.2750014E+03  0.7818608E-02  0.1098451E+00
         -1   -1    0    0    0  501 -0.00000000000E+00  0.00000000000E+00  0.79628711732E+02  0.79628711732E+02  0.00000000000E+00 0.  1.
          1   -1    0    0  501    0  0.00000000000E+00 -0.00000000000E+00 -0.23743255964E+03  0.23743255964E+03  0.00000000000E+00 0.  1.
         35    2    1    2    0    0 -0.71054273576E-14  0.14210854715E-13 -0.15780384790E+03  0.31706127137E+03  0.27500144616E+03 0.  0.
         25    2    3    3    0    0 -0.40016918322E+02  0.34253607022E+02 -0.91978907385E+02  0.16396278611E+03  0.12509601305E+03 0.  0.
         25    2    3    3    0    0  0.40016918322E+02 -0.34253607022E+02 -0.65824940520E+02  0.15309848526E+03  0.12779499226E+03 0.  0.
          5    1    4    4  502    0 -0.79817701785E+02 -0.16110390615E+01 -0.68423520096E+02  0.10524889105E+03  0.47000000000E+01 0. -1.
         -5    1    4    4    0  502  0.39800783463E+02  0.35864646083E+02 -0.23555387289E+02  0.58713895062E+02  0.47000000000E+01 0. -1.
          5    1    5    5  503    0  0.42987026361E+02 -0.73350303170E+02 -0.73953958875E+02  0.11278044797E+03  0.47000000000E+01 0.  1.
         -5    1    5    5    0  503 -0.29701080385E+01  0.39096696148E+02  0.81290183551E+01  0.40318037289E+02  0.47000000000E+01 0.  1.
<mgrwt>
<rscale>  0 0.27500145E+03</rscale>
<asrwt>0</asrwt>
<pdfrwt beam="1">  1        1 0.36528086E-01 0.27500145E+03</pdfrwt>
<pdfrwt beam="2">  1       -1 0.12250571E-01 0.27500145E+03</pdfrwt>
<totfact> 0.51924671E+03</totfact>
</mgrwt>
</event>
<event>
 9    1  0.7997082E-001  0.2716649E+03  0.7818608E-02  0.1100331E+00
         -1   -1    0    0    0  501 -0.00000000000E+00  0.00000000000E+00  0.15678046543E+03  0.15678046543E+03  0.00000000000E+00 0.  1.
          1   -1    0    0  501    0  0.00000000000E+00 -0.00000000000E+00 -0.11768334278E+03  0.11768334278E+03  0.00000000000E+00 0.  1.
         35    2    1    2    0    0  0.00000000000E+00  0.71054273576E-14  0.39097122649E+02  0.27446380821E+03  0.27166486158E+03 0.  0.
         25    2    3    3    0    0  0.47673143509E+02 -0.19280242240E+01  0.42920873501E+02  0.14066038972E+03  0.12516668073E+03 0.  0.
         25    2    3    3    0    0 -0.47673143509E+02  0.19280242240E+01 -0.38237508519E+01  0.13380341849E+03  0.12494914101E+03 0.  0.
          5    1    4    4  502    0 -0.11625657119E+02 -0.40976666833E+02 -0.18487026387E+02  0.46670153983E+02  0.47000000000E+01 0. -1.
         -5    1    4    4    0  502  0.59298800628E+02  0.39048642609E+02  0.61407899888E+02  0.93990235738E+02  0.47000000000E+01 0. -1.
          5    1    5    5  503    0 -0.35006725747E+02 -0.59962031137E+02 -0.93423064537E+01  0.70215986181E+02  0.47000000000E+01 0.  1.
         -5    1    5    5    0  503 -0.12666417763E+02  0.61890055361E+02  0.55185556017E+01  0.63587432307E+02  0.47000000000E+01 0.  1.
<mgrwt>
<rscale>  0 0.27166486E+03</rscale>
<asrwt>0</asrwt>
<pdfrwt beam="1">  1        1 0.18105130E-01 0.27166486E+03</pdfrwt>
<pdfrwt beam="2">  1       -1 0.24120072E-01 0.27166486E+03</pdfrwt>
<totfact> 0.42710274E+03</totfact>
</mgrwt>
</event>
<event>
 9    1  0.7997082E-001  0.2751886E+03  0.7818608E-02  0.1098346E+00
          1   -1    0    0  501    0  0.00000000000E+00  0.00000000000E+00  0.13851923798E+04  0.13851923798E+04  0.00000000000E+00 0. -1.
         -1   -1    0    0    0  501 -0.00000000000E+00 -0.00000000000E+00 -0.13667554665E+02  0.13667554665E+02  0.00000000000E+00 0. -1.
         35    2    1    2    0    0  0.00000000000E+00  0.00000000000E+00  0.13715248252E+04  0.13988599345E+04  0.27518860858E+03 0.  0.
         25    2    3    3    0    0 -0.72967923832E+01 -0.26573343298E+02  0.94242433147E+03  0.95098864858E+03  0.12432378465E+03 0.  0.
         25    2    3    3    0    0  0.72967923832E+01  0.26573343298E+02  0.42910049371E+03  0.44787128593E+03  0.12530789801E+03 0.  0.
          5    1    4    4  502    0 -0.48590324480E+02 -0.27344809694E+02  0.81578961813E+03  0.81770627324E+03  0.47000000000E+01 0.  1.
         -5    1    4    4    0  502  0.41293532097E+02  0.77146639558E+00  0.12663471334E+03  0.13328237534E+03  0.47000000000E+01 0.  1.
          5    1    5    5  503    0  0.60332593265E+02 -0.82978374099E+01  0.15790393043E+03  0.16930628211E+03  0.47000000000E+01 0. -1.
         -5    1    5    5    0  503 -0.53035800882E+02  0.34871180708E+02  0.27119656328E+03  0.27856500382E+03  0.47000000000E+01 0. -1.
<mgrwt>
<rscale>  0 0.27518861E+03</rscale>
<asrwt>0</asrwt>
<pdfrwt beam="1">  1        1 0.21310641E+00 0.27518861E+03</pdfrwt>
<pdfrwt beam="2">  1       -1 0.21027018E-02 0.27518861E+03</pdfrwt>
<totfact> 0.54413647E+03</totfact>
</mgrwt>
</event>
<event>
 9    1  0.7997082E-001  0.2741473E+03  0.7818608E-02  0.1098929E+00
         -2   -1    0    0    0  501 -0.00000000000E+00  0.00000000000E+00  0.40624111010E+02  0.40624111010E+02  0.00000000000E+00 0.  1.
          2   -1    0    0  501    0  0.00000000000E+00 -0.00000000000E+00 -0.46251328347E+03  0.46251328347E+03  0.00000000000E+00 0.  1.
         35    2    1    2    0    0  0.00000000000E+00  0.00000000000E+00 -0.42188917246E+03  0.50313739448E+03  0.27414733974E+03 0.  0.
         25    2    3    3    0    0 -0.40215214503E+02 -0.40713411319E+02 -0.21249380081E+03  0.25285300022E+03  0.12452380896E+03 0.  0.
         25    2    3    3    0    0  0.40215214503E+02  0.40713411319E+02 -0.20939537165E+03  0.25028439427E+03  0.12458334963E+03 0.  0.
          5    1    4    4  502    0  0.41424445286E+02 -0.42186827849E+01 -0.37299385852E+02  0.56099163422E+02  0.47000000000E+01 0.  1.
         -5    1    4    4    0  502 -0.81639659789E+02 -0.36494728534E+02 -0.17519441496E+03  0.19675383680E+03  0.47000000000E+01 0.  1.
          5    1    5    5  503    0 -0.16375911956E+02  0.15212966963E+02  0.79622802937E+01  0.24188690822E+02  0.47000000000E+01 0.  1.
         -5    1    5    5    0  503  0.56591126458E+02  0.25500444356E+02 -0.21735765195E+03  0.22609570344E+03  0.47000000000E+01 0.  1.
<mgrwt>
<rscale>  0 0.27414734E+03</rscale>
<asrwt>0</asrwt>
<pdfrwt beam="1">  1        2 0.71155892E-01 0.27414734E+03</pdfrwt>
<pdfrwt beam="2">  1       -2 0.62498630E-02 0.27414734E+03</pdfrwt>
<totfact> 0.93842429E+03</totfact>
</mgrwt>
</event>
<event>
 9    1  0.7997082E-001  0.2734528E+03  0.7818608E-02  0.1099320E+00
         -1   -1    0    0    0  501 -0.00000000000E+00  0.00000000000E+00  0.79837920650E+01  0.79837920650E+01  0.00000000000E+00 0. -1.
          1   -1    0    0  501    0  0.00000000000E+00 -0.00000000000E+00 -0.23415078220E+04  0.23415078220E+04  0.00000000000E+00 0. -1.
         35    2    1    2    0    0 -0.71054273576E-14  0.00000000000E+00 -0.23335240299E+04  0.23494916140E+04  0.27345282276E+03 0.  0.
         25    2    3    3    0    0  0.39453874961E+02 -0.97738768454E+01 -0.83623610318E+03  0.84646772293E+03  0.12475836155E+03 0.  0.
         25    2    3    3    0    0 -0.39453874961E+02  0.97738768454E+01 -0.14972879267E+04  0.15030238911E+04  0.12472988739E+03 0.  0.
          5    1    4    4  502    0 -0.23887633888E+02  0.10725258660E+02 -0.43943494214E+02  0.51368968355E+02  0.47000000000E+01 0. -1.
         -5    1    4    4    0  502  0.63341508849E+02 -0.20499135506E+02 -0.79229260897E+03  0.79509875457E+03  0.47000000000E+01 0. -1.
          5    1    5    5  503    0 -0.40268557291E+02 -0.11955413751E+02 -0.15814295588E+03  0.16369414503E+03  0.47000000000E+01 0. -1.
         -5    1    5    5    0  503  0.81468233014E+00  0.21729290597E+02 -0.13391449709E+04  0.13393297461E+04  0.47000000000E+01 0. -1.
<mgrwt>
<rscale>  0 0.27345282E+03</rscale>
<asrwt>0</asrwt>
<pdfrwt beam="1">  1        1 0.36023172E+00 0.27345282E+03</pdfrwt>
<pdfrwt beam="2">  1       -1 0.12282766E-02 0.27345282E+03</pdfrwt>
<totfact> 0.28182792E+03</totfact>
</mgrwt>
</event>
<event>
 9    1  0.7997082E-001  0.2806448E+03  0.7818608E-02  0.1095337E+00
          2   -1    0    0  501    0  0.00000000000E+00  0.00000000000E+00  0.91123298680E+03  0.91123298680E+03  0.00000000000E+00 0. -1.
         -2   -1    0    0    0  501 -0.00000000000E+00 -0.00000000000E+00 -0.21608505429E+02  0.21608505429E+02  0.00000000000E+00 0. -1.
         35    2    1    2    0    0  0.00000000000E+00  0.00000000000E+00  0.88962448137E+03  0.93284149223E+03  0.28064484989E+03 0.  0.
         25    2    3    3    0    0 -0.26313198567E+02 -0.57283588497E+02  0.48847939426E+03  0.50809329245E+03  0.12479135100E+03 0.  0.
         25    2    3    3    0    0  0.26313198567E+02  0.57283588497E+02  0.40114508711E+03  0.42474819978E+03  0.12457872360E+03 0.  0.
          5    1    4    4  502    0  0.13202448566E+02 -0.88248770382E+02  0.31749268907E+03  0.32982699668E+03  0.47000000000E+01 0. -1.
         -5    1    4    4    0  502 -0.39515647133E+02  0.30965181885E+02  0.17098670519E+03  0.17826629577E+03  0.47000000000E+01 0. -1.
          5    1    5    5  503    0  0.31960594515E+02  0.71994705783E+02  0.12312018280E+03  0.14623743254E+03  0.47000000000E+01 0.  1.
         -5    1    5    5    0  503 -0.56473959482E+01 -0.14711117286E+02  0.27802490431E+03  0.27851076724E+03  0.47000000000E+01 0.  1.
<mgrwt>
<rscale>  0 0.28064485E+03</rscale>
<asrwt>0</asrwt>
<pdfrwt beam="1">  1        2 0.14018966E+00 0.28064485E+03</pdfrwt>
<pdfrwt beam="2">  1       -2 0.33243861E-02 0.28064485E+03</pdfrwt>
<totfact> 0.10828482E+04</totfact>
</mgrwt>
</event>
<event>
 9    1  0.7997082E-001  0.2733139E+03  0.7818608E-02  0.1099398E+00
         -2   -1    0    0    0  501 -0.00000000000E+00  0.00000000000E+00  0.97098854041E+02  0.97098854041E+02  0.00000000000E+00 0.  1.
          2   -1    0    0  501    0  0.00000000000E+00 -0.00000000000E+00 -0.19233106241E+03  0.19233106241E+03  0.00000000000E+00 0.  1.
         35    2    1    2    0    0  0.00000000000E+00  0.00000000000E+00 -0.95232208374E+02  0.28942991646E+03  0.27331392761E+03 0.  0.
         25    2    3    3    0    0 -0.20618224402E+02 -0.43875940840E+02 -0.23602836768E+02  0.13686844427E+03  0.12580011037E+03 0.  0.
         25    2    3    3    0    0  0.20618224402E+02  0.43875940840E+02 -0.71629371605E+02  0.15256147219E+03  0.12567428758E+03 0.  0.
          5    1    4    4  502    0 -0.27192625495E+02 -0.37808231402E+02  0.46536483190E+02  0.66004814300E+02  0.47000000000E+01 0.  1.
         -5    1    4    4    0  502  0.65744010926E+01 -0.60677094381E+01 -0.70139319959E+02  0.70863629965E+02  0.47000000000E+01 0.  1.
          5    1    5    5  503    0  0.54418080240E+02  0.70960710396E+02 -0.36928529181E+02  0.96863595557E+02  0.47000000000E+01 0. -1.
         -5    1    5    5    0  503 -0.33799855837E+02 -0.27084769556E+02 -0.34700842424E+02  0.55697876633E+02  0.47000000000E+01 0. -1.
<mgrwt>
<rscale>  0 0.27331393E+03</rscale>
<asrwt>0</asrwt>
<pdfrwt beam="1">  1        2 0.29589394E-01 0.27331393E+03</pdfrwt>
<pdfrwt beam="2">  1       -2 0.14938285E-01 0.27331393E+03</pdfrwt>
<totfact> 0.60896880E+03</totfact>
</mgrwt>
</event>
<event>
 9    1  0.7997082E-001  0.2727763E+03  0.7818608E-02  0.1099701E+00
         -1   -1    0    0    0  501 -0.00000000000E+00  0.00000000000E+00  0.57357644046E+02  0.57357644046E+02  0.00000000000E+00 0.  1.
          1   -1    0    0  501    0  0.00000000000E+00 -0.00000000000E+00 -0.32431111083E+03  0.32431111083E+03  0.00000000000E+00 0.  1.
         35    2    1    2    0    0 -0.71054273576E-14  0.71054273576E-14 -0.26695346678E+03  0.38166875488E+03  0.27277625450E+03 0.  0.
         25    2    3    3    0    0  0.26079431291E+02  0.22183372579E+02 -0.75579459496E+02  0.15054485865E+03  0.12561552855E+03 0.  0.
         25    2    3    3    0    0 -0.26079431291E+02 -0.22183372579E+02 -0.19137400729E+03  0.23112389623E+03  0.12498802338E+03 0.  0.
          5    1    4    4  502    0 -0.45978218145E+02  0.20880448753E+02 -0.74520676983E+01  0.51260247726E+02  0.47000000000E+01 0. -1.
         -5    1    4    4    0  502  0.72057649436E+02  0.13029238251E+01 -0.68127391798E+02  0.99284610922E+02  0.47000000000E+01 0. -1.
          5    1    5    5  503    0  0.37334749280E+02  0.49475557941E+01 -0.13492819536E+02  0.40280367317E+02  0.47000000000E+01 0.  1.
         -5    1    5    5    0  503 -0.63414180570E+02 -0.27130928373E+02 -0.17788118775E+03  0.19084352891E+03  0.47000000000E+01 0.  1.
<mgrwt>
<rscale>  0 0.27277625E+03</rscale>
<asrwt>0</asrwt>
<pdfrwt beam="1">  1        1 0.49894016E-01 0.27277625E+03</pdfrwt>
<pdfrwt beam="2">  1       -1 0.88242531E-02 0.27277625E+03</pdfrwt>
<totfact> 0.58318759E+03</totfact>
</mgrwt>
</event>
<event>
 9    1  0.7997082E-001  0.2743647E+03  0.7818608E-02  0.1098807E+00
          1   -1    0    0  501    0  0.00000000000E+00  0.00000000000E+00  0.28231612349E+02  0.28231612349E+02  0.00000000000E+00 0.  1.
         -1   -1    0    0    0  501 -0.00000000000E+00 -0.00000000000E+00 -0.66659331155E+03  0.66659331155E+03  0.00000000000E+00 0.  1.
         35    2    1    2    0    0  0.00000000000E+00 -0.71054273576E-14 -0.63836169920E+03  0.69482492390E+03  0.27436474968E+03 0.  0.
         25    2    3    3    0    0  0.17607934901E+02 -0.51457325589E+02 -0.36601288326E+03  0.39043694040E+03  0.12456997225E+03 0.  0.
         25    2    3    3    0    0 -0.17607934901E+02  0.51457325589E+02 -0.27234881595E+03  0.30438798350E+03  0.12458038059E+03 0.  0.
          5    1    4    4  502    0 -0.21529730056E+02 -0.81656138565E+02 -0.19977542723E+03  0.21694138740E+03  0.47000000000E+01 0. -1.
         -5    1    4    4    0  502  0.39137664957E+02  0.30198812976E+02 -0.16623745602E+03  0.17349555299E+03  0.47000000000E+01 0. -1.
          5    1    5    5  503    0 -0.70893868985E+02  0.28193124391E+02 -0.17384580865E+03  0.18990852563E+03  0.47000000000E+01 0. -1.
         -5    1    5    5    0  503  0.53285934084E+02  0.23264201198E+02 -0.98503007294E+02  0.11447945787E+03  0.47000000000E+01 0. -1.
<mgrwt>
<rscale>  0 0.27436475E+03</rscale>
<asrwt>0</asrwt>
<pdfrwt beam="1">  1        1 0.43433254E-02 0.27436475E+03</pdfrwt>
<pdfrwt beam="2">  1       -1 0.10255281E+00 0.27436475E+03</pdfrwt>
<totfact> 0.19275749E+03</totfact>
</mgrwt>
</event>
<event>
 9    1  0.7997082E-001  0.2687484E+03  0.7818608E-02  0.1101998E+00
         -2   -1    0    0    0  501 -0.00000000000E+00  0.00000000000E+00  0.54071293884E+01  0.54071293884E+01  0.00000000000E+00 0.  1.
          2   -1    0    0  501    0  0.00000000000E+00 -0.00000000000E+00 -0.33393735918E+04  0.33393735918E+04  0.00000000000E+00 0.  1.
         35    2    1    2    0    0  0.00000000000E+00  0.71054273576E-14 -0.33339664624E+04  0.33447807212E+04  0.26874839599E+03 0.  0.
         25    2    3    3    0    0 -0.25344555364E+02  0.34830958336E+02 -0.13916212714E+04  0.13978795565E+04  0.12490776313E+03 0.  0.
         25    2    3    3    0    0  0.25344555364E+02 -0.34830958336E+02 -0.19423451910E+04  0.19469011647E+04  0.12595142682E+03 0.  0.
          5    1    4    4  502    0 -0.68963913347E+02  0.50384456538E+02 -0.91787082563E+03  0.92184790359E+03  0.47000000000E+01 0. -1.
         -5    1    4    4    0  502  0.43619357984E+02 -0.15553498201E+02 -0.47375044574E+03  0.47603165287E+03  0.47000000000E+01 0. -1.
          5    1    5    5  503    0  0.45421389752E+02 -0.48055417276E+02 -0.18550517233E+04  0.18562358180E+04  0.47000000000E+01 0.  1.
         -5    1    5    5    0  503 -0.20076834388E+02  0.13224458940E+02 -0.87293467691E+02  0.90665346714E+02  0.47000000000E+01 0.  1.
<mgrwt>
<rscale>  0 0.26874840E+03</rscale>
<asrwt>0</asrwt>
<pdfrwt beam="1">  1        2 0.51375122E+00 0.26874840E+03</pdfrwt>
<pdfrwt beam="2">  1       -2 0.83186373E-03 0.26874840E+03</pdfrwt>
<totfact> 0.35940223E+03</totfact>
</mgrwt>
</event>
<event>
 9    1  0.7997082E-001  0.2744061E+03  0.7818608E-02  0.1098784E+00
         -2   -1    0    0    0  501 -0.00000000000E+00  0.00000000000E+00  0.12819193931E+03  0.12819193931E+03  0.00000000000E+00 0.  1.
          2   -1    0    0  501    0  0.00000000000E+00 -0.00000000000E+00 -0.14684761216E+03  0.14684761216E+03  0.00000000000E+00 0.  1.
         35    2    1    2    0    0  0.00000000000E+00 -0.71054273576E-14 -0.18655672853E+02  0.27503955146E+03  0.27440612373E+03 0.  0.
         25    2    3    3    0    0  0.49478463950E+02  0.24162509739E+02 -0.25973194178E+02  0.13819661307E+03  0.12406349897E+03 0.  0.
         25    2    3    3    0    0 -0.49478463950E+02 -0.24162509739E+02  0.73175213253E+01  0.13684293839E+03  0.12506197823E+03 0.  0.
          5    1    4    4  502    0  0.45764046210E+02 -0.62670977813E+00 -0.72076711886E+02  0.85509549682E+02  0.47000000000E+01 0. -1.
         -5    1    4    4    0  502  0.37144177402E+01  0.24789219517E+02  0.46103517708E+02  0.52687063388E+02  0.47000000000E+01 0. -1.
          5    1    5    5  503    0 -0.54004960912E+02  0.40845033236E+02 -0.11524780097E+02  0.68845937421E+02  0.47000000000E+01 0.  1.
         -5    1    5    5    0  503  0.45264969618E+01 -0.65007542975E+02  0.18842301422E+02  0.67997000973E+02  0.47000000000E+01 0.  1.
<mgrwt>
<rscale>  0 0.27440612E+03</rscale>
<asrwt>0</asrwt>
<pdfrwt beam="1">  1        2 0.22591940E-01 0.27440612E+03</pdfrwt>
<pdfrwt beam="2">  1       -2 0.19721837E-01 0.27440612E+03</pdfrwt>
<totfact> 0.51606207E+03</totfact>
</mgrwt>
</event>
<event>
 9    1  0.7997082E-001  0.2864339E+03  0.7818608E-02  0.1092226E+00
         -2   -1    0    0    0  501 -0.00000000000E+00  0.00000000000E+00  0.19735573506E+02  0.19735573506E+02  0.00000000000E+00 0. -1.
          2   -1    0    0  501    0  0.00000000000E+00 -0.00000000000E+00 -0.10392954031E+04  0.10392954031E+04  0.00000000000E+00 0. -1.
         35    2    1    2    0    0  0.35527136788E-14  0.00000000000E+00 -0.10195598296E+04  0.10590309766E+04  0.28643387246E+03 0.  0.
         25    2    3    3    0    0 -0.12541324827E+02 -0.63965673661E+02 -0.47915578768E+03  0.50072433930E+03  0.12994499937E+03 0.  0.
         25    2    3    3    0    0  0.12541324827E+02  0.63965673661E+02 -0.54040404196E+03  0.55830663735E+03  0.12418083794E+03 0.  0.
          5    1    4    4  502    0  0.46451373563E+02  0.11150332877E+02 -0.19860931725E+03  0.20432770475E+03  0.47000000000E+01 0.  1.
         -5    1    4    4    0  502 -0.58992698390E+02 -0.75116006537E+02 -0.28054647043E+03  0.29639663455E+03  0.47000000000E+01 0.  1.
          5    1    5    5  503    0  0.30903064558E+02  0.95850647571E+02 -0.43613723245E+03  0.44763838259E+03  0.47000000000E+01 0. -1.
         -5    1    5    5    0  503 -0.18361739731E+02 -0.31884973910E+02 -0.10426680950E+03  0.11066825476E+03  0.47000000000E+01 0. -1.
<mgrwt>
<rscale>  0 0.28643387E+03</rscale>
<asrwt>0</asrwt>
<pdfrwt beam="1">  1        2 0.15989164E+00 0.28643387E+03</pdfrwt>
<pdfrwt beam="2">  1       -2 0.30362414E-02 0.28643387E+03</pdfrwt>
<totfact> 0.10327920E+04</totfact>
</mgrwt>
</event>
<event>
 9    1  0.7997082E-001  0.2767582E+03  0.7818608E-02  0.1097473E+00
         -1   -1    0    0    0  501 -0.00000000000E+00  0.00000000000E+00  0.60682850097E+02  0.60682850097E+02  0.00000000000E+00 0. -1.
          1   -1    0    0  501    0  0.00000000000E+00 -0.00000000000E+00 -0.31555492088E+03  0.31555492088E+03  0.00000000000E+00 0. -1.
         35    2    1    2    0    0  0.17763568394E-14  0.00000000000E+00 -0.25487207078E+03  0.37623777098E+03  0.27675817575E+03 0.  0.
         25    2    3    3    0    0  0.12929330962E+02 -0.56772578273E+02 -0.13831064969E+03  0.19548542582E+03  0.12527738282E+03 0.  0.
         25    2    3    3    0    0 -0.12929330962E+02  0.56772578273E+02 -0.11656142109E+03  0.18075234516E+03  0.12527789969E+03 0.  0.
          5    1    4    4  502    0 -0.18853884230E+02 -0.63916471191E+02 -0.14697971428E+03  0.16144940586E+03  0.47000000000E+01 0. -1.
         -5    1    4    4    0  502  0.31783215192E+02  0.71438929183E+01  0.86690645932E+01  0.34036019963E+02  0.47000000000E+01 0. -1.
          5    1    5    5  503    0 -0.25311698883E+02 -0.94421148815E+01  0.16168289013E+02  0.31832989231E+02  0.47000000000E+01 0.  1.
         -5    1    5    5    0  503  0.12382367921E+02  0.66214693155E+02 -0.13272971010E+03  0.14891935593E+03  0.47000000000E+01 0.  1.
<mgrwt>
<rscale>  0 0.27675818E+03</rscale>
<asrwt>0</asrwt>
<pdfrwt beam="1">  1        1 0.48546909E-01 0.27675818E+03</pdfrwt>
<pdfrwt beam="2">  1       -1 0.93358234E-02 0.27675818E+03</pdfrwt>
<totfact> 0.55383282E+03</totfact>
</mgrwt>
</event>
<event>
 9    1  0.7997082E-001  0.2762449E+03  0.7818608E-02  0.1097758E+00
         -2   -1    0    0    0  501 -0.00000000000E+00  0.00000000000E+00  0.20146330641E+03  0.20146330641E+03  0.00000000000E+00 0. -1.
          2   -1    0    0  501    0  0.00000000000E+00 -0.00000000000E+00 -0.94696179906E+02  0.94696179906E+02  0.00000000000E+00 0. -1.
         35    2    1    2    0    0 -0.71054273576E-14 -0.35527136788E-14  0.10676712650E+03  0.29615948631E+03  0.27624485883E+03 0.  0.
         25    2    3    3    0    0  0.41905406358E+02 -0.93072734537E+01  0.10212676772E+03  0.16567110351E+03  0.12318420934E+03 0.  0.
         25    2    3    3    0    0 -0.41905406358E+02  0.93072734537E+01  0.46403587800E+01  0.13048838280E+03  0.12313812040E+03 0.  0.
          5    1    4    4  502    0  0.85015565311E+02  0.17964712830E+01  0.59785862937E+02  0.10405437550E+03  0.47000000000E+01 0.  1.
         -5    1    4    4    0  502 -0.43110158954E+02 -0.11103744737E+02  0.42340904783E+02  0.61616728005E+02  0.47000000000E+01 0.  1.
          5    1    5    5  503    0 -0.61006178715E+02  0.44955863715E+02 -0.25210194859E+02  0.80002671509E+02  0.47000000000E+01 0.  1.
         -5    1    5    5    0  503  0.19100772357E+02 -0.35648590262E+02  0.29850553639E+02  0.50485711294E+02  0.47000000000E+01 0.  1.
<mgrwt>
<rscale>  0 0.27624486E+03</rscale>
<asrwt>0</asrwt>
<pdfrwt beam="1">  1        2 0.14568643E-01 0.27624486E+03</pdfrwt>
<pdfrwt beam="2">  1       -2 0.30994355E-01 0.27624486E+03</pdfrwt>
<totfact> 0.38672051E+03</totfact>
</mgrwt>
</event>
<event>
 9    1  0.7997082E-001  0.2750019E+03  0.7818608E-02  0.1098451E+00
          2   -1    0    0  501    0  0.00000000000E+00  0.00000000000E+00  0.27638127040E+03  0.27638127040E+03  0.00000000000E+00 0. -1.
         -2   -1    0    0    0  501 -0.00000000000E+00 -0.00000000000E+00 -0.68407378199E+02  0.68407378199E+02  0.00000000000E+00 0. -1.
         35    2    1    2    0    0  0.00000000000E+00  0.00000000000E+00  0.20797389220E+03  0.34478864860E+03  0.27500194975E+03 0.  0.
         25    2    3    3    0    0  0.42427654788E+02 -0.42880780836E+02  0.11033756057E+03  0.17581168094E+03  0.12286782584E+03 0.  0.
         25    2    3    3    0    0 -0.42427654788E+02  0.42880780836E+02  0.97636331634E+02  0.16897696766E+03  0.12402215563E+03 0.  0.
          5    1    4    4  502    0 -0.18125422350E+01  0.25101547705E+02  0.87859557294E+02  0.91513741124E+02  0.47000000000E+01 0.  1.
         -5    1    4    4    0  502  0.44240197023E+02 -0.67982328541E+02  0.22478003275E+02  0.84297939819E+02  0.47000000000E+01 0.  1.
          5    1    5    5  503    0 -0.68679992161E+02  0.21412985206E+02  0.11088928559E+03  0.13226481360E+03  0.47000000000E+01 0.  1.
         -5    1    5    5    0  503  0.26252337373E+02  0.21467795630E+02 -0.13252953957E+02  0.36712154055E+02  0.47000000000E+01 0.  1.
<mgrwt>
<rscale>  0 0.27500195E+03</rscale>
<asrwt>0</asrwt>
<pdfrwt beam="1">  1        2 0.42520195E-01 0.27500195E+03</pdfrwt>
<pdfrwt beam="2">  1       -2 0.10524212E-01 0.27500195E+03</pdfrwt>
<totfact> 0.72530164E+03</totfact>
</mgrwt>
</event>
<event>
 9    1  0.7997082E-001  0.2723623E+03  0.7818608E-02  0.1099935E+00
         -1   -1    0    0    0  501 -0.00000000000E+00  0.00000000000E+00  0.86869534113E+02  0.86869534113E+02  0.00000000000E+00 0.  1.
          1   -1    0    0  501    0  0.00000000000E+00 -0.00000000000E+00 -0.21348457497E+03  0.21348457497E+03  0.00000000000E+00 0.  1.
         35    2    1    2    0    0  0.00000000000E+00  0.00000000000E+00 -0.12661504085E+03  0.30035410908E+03  0.27236229965E+03 0.  0.
         25    2    3    3    0    0 -0.51182585185E+02 -0.82068091954E+01 -0.85718340704E+02  0.15825752788E+03  0.12251858003E+03 0.  0.
         25    2    3    3    0    0  0.51182585185E+02  0.82068091954E+01 -0.40896700148E+02  0.14209658120E+03  0.12582483683E+03 0.  0.
          5    1    4    4  502    0 -0.57724211394E+02  0.45455819225E+02 -0.70418097316E+02  0.10187793928E+03  0.47000000000E+01 0. -1.
         -5    1    4    4    0  502  0.65416262089E+01 -0.53662628421E+02 -0.15300243388E+02  0.56379588596E+02  0.47000000000E+01 0. -1.
          5    1    5    5  503    0 -0.80402159165E+01  0.57773342307E+02 -0.21375307087E+02  0.62300866017E+02  0.47000000000E+01 0. -1.
         -5    1    5    5    0  503  0.59222801101E+02 -0.49566533112E+02 -0.19521393061E+02  0.79795715186E+02  0.47000000000E+01 0. -1.
<mgrwt>
<rscale>  0 0.27236230E+03</rscale>
<asrwt>0</asrwt>
<pdfrwt beam="1">  1        1 0.32843780E-01 0.27236230E+03</pdfrwt>
<pdfrwt beam="2">  1       -1 0.13364544E-01 0.27236230E+03</pdfrwt>
<totfact> 0.51758201E+03</totfact>
</mgrwt>
</event>
<event>
 9    1  0.7997082E-001  0.2715591E+03  0.7818608E-02  0.1100391E+00
         -2   -1    0    0    0  501 -0.00000000000E+00  0.00000000000E+00  0.18945512667E+03  0.18945512667E+03  0.00000000000E+00 0.  1.
          2   -1    0    0  501    0  0.00000000000E+00 -0.00000000000E+00 -0.97311109655E+02  0.97311109655E+02  0.00000000000E+00 0.  1.
         35    2    1    2    0    0 -0.71054273576E-14  0.00000000000E+00  0.92144017019E+02  0.28676623633E+03  0.27155911774E+03 0.  0.
         25    2    3    3    0    0 -0.39022892431E+02  0.37041963035E+02  0.45478219970E+02  0.14308073544E+03  0.12453487544E+03 0.  0.
         25    2    3    3    0    0  0.39022892431E+02 -0.37041963035E+02  0.46665797049E+02  0.14368550089E+03  0.12479155979E+03 0.  0.
          5    1    4    4  502    0 -0.40773687956E+00  0.47278090347E+02 -0.30956549906E+02  0.56707865930E+02  0.47000000000E+01 0. -1.
         -5    1    4    4    0  502 -0.38615155551E+02 -0.10236127313E+02  0.76434769876E+02  0.86372869505E+02  0.47000000000E+01 0. -1.
          5    1    5    5  503    0 -0.36885687826E+02 -0.26627572913E+02  0.48814304923E+02  0.66891763101E+02  0.47000000000E+01 0. -1.
         -5    1    5    5    0  503  0.75908580257E+02 -0.10414390121E+02 -0.21485078731E+01  0.76793737793E+02  0.47000000000E+01 0. -1.
<mgrwt>
<rscale>  0 0.27155912E+03</rscale>
<asrwt>0</asrwt>
<pdfrwt beam="1">  1        2 0.14970940E-01 0.27155912E+03</pdfrwt>
<pdfrwt beam="2">  1       -2 0.29146943E-01 0.27155912E+03</pdfrwt>
<totfact> 0.41839966E+03</totfact>
</mgrwt>
</event>
<event>
 9    1  0.7997082E-001  0.2793859E+03  0.7818608E-02  0.1096025E+00
          2   -1    0    0  501    0  0.00000000000E+00  0.00000000000E+00  0.27277653915E+03  0.27277653915E+03  0.00000000000E+00 0.  1.
         -2   -1    0    0    0  501 -0.00000000000E+00 -0.00000000000E+00 -0.71538876140E+02  0.71538876140E+02  0.00000000000E+00 0.  1.
         35    2    1    2    0    0  0.14210854715E-13  0.00000000000E+00  0.20123766301E+03  0.34431541529E+03  0.27938594845E+03 0.  0.
         25    2    3    3    0    0  0.31647887394E+02  0.41375296457E+02  0.60883976927E+02  0.14882879935E+03  0.12541789719E+03 0.  0.
         25    2    3    3    0    0 -0.31647887394E+02 -0.41375296457E+02  0.14035368608E+03  0.19548661594E+03  0.12570742175E+03 0.  0.
          5    1    4    4  502    0 -0.32849813424E+02 -0.25438798703E+02  0.10674904210E+02  0.43154215337E+02  0.47000000000E+01 0.  1.
         -5    1    4    4    0  502  0.64497700818E+02  0.66814095160E+02  0.50209072717E+02  0.10567458401E+03  0.47000000000E+01 0.  1.
          5    1    5    5  503    0  0.24524316876E+02 -0.68792580876E+02  0.80944768499E+02  0.10912381431E+03  0.47000000000E+01 0.  1.
         -5    1    5    5    0  503 -0.56172204270E+02  0.27417284419E+02  0.59408917580E+02  0.86362801630E+02  0.47000000000E+01 0.  1.
<mgrwt>
<rscale>  0 0.27938595E+03</rscale>
<asrwt>0</asrwt>
<pdfrwt beam="1">  1        2 0.41965621E-01 0.27938595E+03</pdfrwt>
<pdfrwt beam="2">  1       -2 0.11005981E-01 0.27938595E+03</pdfrwt>
<totfact> 0.68520452E+03</totfact>
</mgrwt>
</event>
<event>
 9    1  0.7997082E-001  0.2759925E+03  0.7818608E-02  0.1097898E+00
         -2   -1    0    0    0  501 -0.00000000000E+00  0.00000000000E+00  0.18805105961E+03  0.18805105961E+03  0.00000000000E+00 0. -1.
          2   -1    0    0  501    0  0.00000000000E+00 -0.00000000000E+00 -0.10126485401E+03  0.10126485401E+03  0.00000000000E+00 0. -1.
         35    2    1    2    0    0  0.00000000000E+00  0.14210854715E-13  0.86786205605E+02  0.28931591362E+03  0.27599248611E+03 0.  0.
         25    2    3    3    0    0 -0.37872295563E+02  0.39558963183E+02  0.30071060243E+02  0.13953618278E+03  0.12476720444E+03 0.  0.
         25    2    3    3    0    0  0.37872295563E+02 -0.39558963183E+02  0.56715145362E+02  0.14977973083E+03  0.12735045236E+03 0.  0.
          5    1    4    4  502    0 -0.42065596187E+02  0.78924835081E+02 -0.68870700312E-01  0.89558577023E+02  0.47000000000E+01 0.  1.
         -5    1    4    4    0  502  0.41933006244E+01 -0.39365871898E+02  0.30139930944E+02  0.49977605762E+02  0.47000000000E+01 0.  1.
          5    1    5    5  503    0 -0.58280303245E+01 -0.46429180619E+02 -0.27541578406E+02  0.54500121940E+02  0.47000000000E+01 0.  1.
         -5    1    5    5    0  503  0.43700325887E+02  0.68702174358E+01  0.84256723768E+02  0.95279608891E+02  0.47000000000E+01 0.  1.
<mgrwt>
<rscale>  0 0.27599249E+03</rscale>
<asrwt>0</asrwt>
<pdfrwt beam="1">  1        2 0.15579208E-01 0.27599249E+03</pdfrwt>
<pdfrwt beam="2">  1       -2 0.28930932E-01 0.27599249E+03</pdfrwt>
<totfact> 0.40476299E+03</totfact>
</mgrwt>
</event>
<event>
 9    1  0.7997082E-001  0.2744093E+03  0.7818608E-02  0.1098782E+00
          2   -1    0    0  501    0  0.00000000000E+00  0.00000000000E+00  0.12547569385E+02  0.12547569385E+02  0.00000000000E+00 0. -1.
         -2   -1    0    0    0  501 -0.00000000000E+00 -0.00000000000E+00 -0.15002995870E+04  0.15002995870E+04  0.00000000000E+00 0. -1.
         35    2    1    2    0    0  0.00000000000E+00  0.71054273576E-14 -0.14877520176E+04  0.15128471564E+04  0.27440927948E+03 0.  0.
         25    2    3    3    0    0 -0.42706134557E+02 -0.36921758707E+02 -0.79965295775E+03  0.81134745288E+03  0.12511117557E+03 0.  0.
         25    2    3    3    0    0  0.42706134557E+02  0.36921758707E+02 -0.68809905983E+03  0.70149970348E+03  0.12423561343E+03 0.  0.
          5    1    4    4  502    0  0.58327950627E+01 -0.72501995554E+02 -0.33837082435E+03  0.34613215052E+03  0.47000000000E+01 0. -1.
         -5    1    4    4    0  502 -0.48538929620E+02  0.35580236847E+02 -0.46128213341E+03  0.46521530235E+03  0.47000000000E+01 0. -1.
          5    1    5    5  503    0  0.22807308257E+02  0.49514686948E+02 -0.66785232377E+03  0.67009006402E+03  0.47000000000E+01 0.  1.
         -5    1    5    5    0  503  0.19898826300E+02 -0.12592928241E+02 -0.20246736065E+02  0.31409639462E+02  0.47000000000E+01 0.  1.
<mgrwt>
<rscale>  0 0.27440928E+03</rscale>
<asrwt>0</asrwt>
<pdfrwt beam="1">  1        2 0.19303952E-02 0.27440928E+03</pdfrwt>
<pdfrwt beam="2">  1       -2 0.23081533E+00 0.27440928E+03</pdfrwt>
<totfact> 0.53630179E+02</totfact>
</mgrwt>
</event>
<event>
 9    1  0.7997082E-001  0.2765378E+03  0.7818608E-02  0.1097595E+00
          2   -1    0    0  501    0  0.00000000000E+00  0.00000000000E+00  0.13376268356E+04  0.13376268356E+04  0.00000000000E+00 0.  1.
         -2   -1    0    0    0  501 -0.00000000000E+00 -0.00000000000E+00 -0.14292692470E+02  0.14292692470E+02  0.00000000000E+00 0.  1.
         35    2    1    2    0    0 -0.71054273576E-14  0.88817841970E-15  0.13233341432E+04  0.13519195281E+04  0.27653780213E+03 0.  0.
         25    2    3    3    0    0  0.60270012663E+02  0.36417036355E+01  0.67814029927E+03  0.69215881799E+03  0.12475506962E+03 0.  0.
         25    2    3    3    0    0 -0.60270012663E+02 -0.36417036355E+01  0.64519384389E+03  0.65976071011E+03  0.12394902976E+03 0.  0.
          5    1    4    4  502    0  0.42786395508E+02 -0.48050192625E+02  0.53537997383E+03  0.53925254105E+03  0.47000000000E+01 0.  1.
         -5    1    4    4    0  502  0.17483617155E+02  0.51691896261E+02  0.14276032544E+03  0.15290627694E+03  0.47000000000E+01 0.  1.
          5    1    5    5  503    0  0.36944704580E+02 -0.74527139185E+00  0.12114451021E+03  0.12674205687E+03  0.47000000000E+01 0. -1.
         -5    1    5    5    0  503 -0.97214717243E+02 -0.28964322436E+01  0.52404933368E+03  0.53301865324E+03  0.47000000000E+01 0. -1.
<mgrwt>
<rscale>  0 0.27653780E+03</rscale>
<asrwt>0</asrwt>
<pdfrwt beam="1">  1        2 0.20578864E+00 0.27653780E+03</pdfrwt>
<pdfrwt beam="2">  1       -2 0.21988768E-02 0.27653780E+03</pdfrwt>
<totfact> 0.11234542E+04</totfact>
</mgrwt>
</event>
<event>
 9    1  0.7997082E-001  0.2755766E+03  0.7818608E-02  0.1098130E+00
          1   -1    0    0  501    0  0.00000000000E+00  0.00000000000E+00  0.18530358777E+03  0.18530358777E+03  0.00000000000E+00 0.  1.
         -1   -1    0    0    0  501 -0.00000000000E+00 -0.00000000000E+00 -0.10245681193E+03  0.10245681193E+03  0.00000000000E+00 0.  1.
         35    2    1    2    0    0 -0.14210854715E-13  0.00000000000E+00  0.82846775839E+02  0.28776039971E+03  0.27557659438E+03 0.  0.
         25    2    3    3    0    0  0.47054695797E+02 -0.23471956573E+02  0.19808201924E+02  0.13733421281E+03  0.12531258517E+03 0.  0.
         25    2    3    3    0    0 -0.47054695797E+02  0.23471956573E+02  0.63038573915E+02  0.15042618690E+03  0.12605196850E+03 0.  0.
          5    1    4    4  502    0  0.46322984884E+02 -0.29772581986E+02  0.68495475767E+02  0.88011054801E+02  0.47000000000E+01 0. -1.
         -5    1    4    4    0  502  0.73171091260E+00  0.63006254135E+01 -0.48687273843E+02  0.49323158006E+02  0.47000000000E+01 0. -1.
          5    1    5    5  503    0  0.34502369243E+02 -0.23782229533E+02  0.21113708090E+02  0.47158102106E+02  0.47000000000E+01 0. -1.
         -5    1    5    5    0  503 -0.81557065040E+02  0.47254186106E+02  0.41924865825E+02  0.10326808479E+03  0.47000000000E+01 0. -1.
<mgrwt>
<rscale>  0 0.27557659E+03</rscale>
<asrwt>0</asrwt>
<pdfrwt beam="1">  1        1 0.28508244E-01 0.27557659E+03</pdfrwt>
<pdfrwt beam="2">  1       -1 0.15762586E-01 0.27557659E+03</pdfrwt>
<totfact> 0.47667620E+03</totfact>
</mgrwt>
</event>
<event>
 9    1  0.7997082E-001  0.2754405E+03  0.7818608E-02  0.1098206E+00
          2   -1    0    0  501    0  0.00000000000E+00  0.00000000000E+00  0.65460304071E+03  0.65460304071E+03  0.00000000000E+00 0.  1.
         -2   -1    0    0    0  501 -0.00000000000E+00 -0.00000000000E+00 -0.28974619395E+02  0.28974619395E+02  0.00000000000E+00 0.  1.
         35    2    1    2    0    0  0.00000000000E+00  0.00000000000E+00  0.62562842132E+03  0.68357766010E+03  0.27544054864E+03 0.  0.
         25    2    3    3    0    0  0.38477151161E+02 -0.22550986099E+02  0.22510961761E+03  0.26151387754E+03  0.12540386784E+03 0.  0.
         25    2    3    3    0    0 -0.38477151161E+02  0.22550986099E+02  0.40051880370E+03  0.42206378256E+03  0.12543319456E+03 0.  0.
          5    1    4    4  502    0 -0.31888904860E+02 -0.39686936512E+02  0.14332418951E+03  0.15217052435E+03  0.47000000000E+01 0.  1.
         -5    1    4    4    0  502  0.70366056021E+02  0.17135950413E+02  0.81785428102E+02  0.10934335319E+03  0.47000000000E+01 0.  1.
          5    1    5    5  503    0 -0.36887488386E+02 -0.41125083396E+02  0.28231932102E+03  0.28771209274E+03  0.47000000000E+01 0.  1.
         -5    1    5    5    0  503 -0.15896627753E+01  0.63676069495E+02  0.11819948268E+03  0.13435168983E+03  0.47000000000E+01 0.  1.
<mgrwt>
<rscale>  0 0.27544055E+03</rscale>
<asrwt>0</asrwt>
<pdfrwt beam="1">  1        2 0.10070815E+00 0.27544055E+03</pdfrwt>
<pdfrwt beam="2">  1       -2 0.44576342E-02 0.27544055E+03</pdfrwt>
<totfact> 0.10566348E+04</totfact>
</mgrwt>
</event>
<event>
 9    1  0.7997082E-001  0.2770738E+03  0.7818608E-02  0.1097298E+00
         -1   -1    0    0    0  501 -0.00000000000E+00  0.00000000000E+00  0.61048927432E+02  0.61048927432E+02  0.00000000000E+00 0.  1.
          1   -1    0    0  501    0  0.00000000000E+00 -0.00000000000E+00 -0.31437862327E+03  0.31437862327E+03  0.00000000000E+00 0.  1.
         35    2    1    2    0    0 -0.71054273576E-14  0.00000000000E+00 -0.25332969584E+03  0.37542755070E+03  0.27707383679E+03 0.  0.
         25    2    3    3    0    0  0.31182416808E+01  0.29225063059E+02 -0.57496260812E+02  0.14045581345E+03  0.12473246483E+03 0.  0.
         25    2    3    3    0    0 -0.31182416808E+01 -0.29225063059E+02 -0.19583343503E+03  0.23497173725E+03  0.12647986121E+03 0.  0.
          5    1    4    4  502    0 -0.57046227436E+02 -0.66875114656E+01 -0.21193924416E+02  0.61402502445E+02  0.47000000000E+01 0. -1.
         -5    1    4    4    0  502  0.60164469117E+02  0.35912574524E+02 -0.36302336395E+02  0.79053311005E+02  0.47000000000E+01 0. -1.
          5    1    5    5  503    0  0.31826021461E+02  0.39550449955E+02 -0.96217859034E+02  0.10889031238E+03  0.47000000000E+01 0.  1.
         -5    1    5    5    0  503 -0.34944263141E+02 -0.68775513014E+02 -0.99615575995E+02  0.12608142487E+03  0.47000000000E+01 0.  1.
<mgrwt>
<rscale>  0 0.27707384E+03</rscale>
<asrwt>0</asrwt>
<pdfrwt beam="1">  1        1 0.48365942E-01 0.27707384E+03</pdfrwt>
<pdfrwt beam="2">  1       -1 0.93921427E-02 0.27707384E+03</pdfrwt>
<totfact> 0.55133541E+03</totfact>
</mgrwt>
</event>
<event>
 9    1  0.7997082E-001  0.2754355E+03  0.7818608E-02  0.1098208E+00
         -2   -1    0    0    0  501 -0.00000000000E+00  0.00000000000E+00  0.15410929045E+02  0.15410929045E+02  0.00000000000E+00 0. -1.
          2   -1    0    0  501    0  0.00000000000E+00 -0.00000000000E+00 -0.12306964542E+04  0.12306964542E+04  0.00000000000E+00 0. -1.
         35    2    1    2    0    0  0.35527136788E-14 -0.71054273576E-14 -0.12152855252E+04  0.12461073833E+04  0.27543547870E+03 0.  0.
         25    2    3    3    0    0  0.89818327952E+01 -0.44471471934E+02 -0.75194545437E+03  0.76371379206E+03  0.12561212007E+03 0.  0.
         25    2    3    3    0    0 -0.89818327952E+01  0.44471471934E+02 -0.46334007081E+03  0.48239359121E+03  0.12633752602E+03 0.  0.
          5    1    4    4  502    0 -0.56293491892E+02 -0.37285643929E+02 -0.38949826253E+03  0.39533550686E+03  0.47000000000E+01 0. -1.
         -5    1    4    4    0  502  0.65275324687E+02 -0.71858280053E+01 -0.36244719184E+03  0.36837828520E+03  0.47000000000E+01 0. -1.
          5    1    5    5  503    0 -0.21957921492E+02  0.67169519655E+02 -0.13036965257E+03  0.14836519470E+03  0.47000000000E+01 0.  1.
         -5    1    5    5    0  503  0.12976088696E+02 -0.22698047721E+02 -0.33297041824E+03  0.33402839651E+03  0.47000000000E+01 0.  1.
<mgrwt>
<rscale>  0 0.27543548E+03</rscale>
<asrwt>0</asrwt>
<pdfrwt beam="1">  1        2 0.18933805E+00 0.27543548E+03</pdfrwt>
<pdfrwt beam="2">  1       -2 0.23709105E-02 0.27543548E+03</pdfrwt>
<totfact> 0.11525904E+04</totfact>
</mgrwt>
</event>
<event>
 9    1  0.7997082E-001  0.2744342E+03  0.7818608E-02  0.1098768E+00
         -2   -1    0    0    0  501 -0.00000000000E+00  0.00000000000E+00  0.23025979782E+02  0.23025979782E+02  0.00000000000E+00 0.  1.
          2   -1    0    0  501    0  0.00000000000E+00 -0.00000000000E+00 -0.81770816258E+03  0.81770816258E+03  0.00000000000E+00 0.  1.
         35    2    1    2    0    0  0.00000000000E+00  0.35527136788E-14 -0.79468218280E+03  0.84073414236E+03  0.27443419335E+03 0.  0.
         25    2    3    3    0    0  0.11253008526E+02 -0.20324992778E+02 -0.55661543917E+03  0.57091056153E+03  0.12481340717E+03 0.  0.
         25    2    3    3    0    0 -0.11253008526E+02  0.20324992778E+02 -0.23806674363E+03  0.26982358084E+03  0.12485693741E+03 0.  0.
          5    1    4    4  502    0 -0.15294117856E+02  0.19681069514E+02 -0.20456071334E+02  0.32585202050E+02  0.47000000000E+01 0.  1.
         -5    1    4    4    0  502  0.26547126381E+02 -0.40006062292E+02 -0.53615936784E+03  0.53832535948E+03  0.47000000000E+01 0.  1.
          5    1    5    5  503    0  0.16177501481E+02  0.48583389758E+02 -0.22055121585E+03  0.22646630241E+03  0.47000000000E+01 0. -1.
         -5    1    5    5    0  503 -0.27430510007E+02 -0.28258396980E+02 -0.17515527780E+02  0.43357278426E+02  0.47000000000E+01 0. -1.
<mgrwt>
<rscale>  0 0.27443419E+03</rscale>
<asrwt>0</asrwt>
<pdfrwt beam="1">  1        2 0.12580126E+00 0.27443419E+03</pdfrwt>
<pdfrwt beam="2">  1       -2 0.35424584E-02 0.27443419E+03</pdfrwt>
<totfact> 0.11345149E+04</totfact>
</mgrwt>
</event>
<event>
 9    1  0.7997082E-001  0.2804541E+03  0.7818608E-02  0.1095441E+00
          1   -1    0    0  501    0  0.00000000000E+00  0.00000000000E+00  0.13507333992E+04  0.13507333992E+04  0.00000000000E+00 0. -1.
         -1   -1    0    0    0  501 -0.00000000000E+00 -0.00000000000E+00 -0.14557734943E+02  0.14557734943E+02  0.00000000000E+00 0. -1.
         35    2    1    2    0    0  0.35527136788E-14 -0.71054273576E-14  0.13361756643E+04  0.13652911342E+04  0.28045405188E+03 0.  0.
         25    2    3    3    0    0 -0.96231653652E+01  0.59095672693E+02  0.61176556441E+03  0.62725162612E+03  0.12491033918E+03 0.  0.
         25    2    3    3    0    0  0.96231653652E+01 -0.59095672693E+02  0.72441009989E+03  0.73803950806E+03  0.12785702482E+03 0.  0.
          5    1    4    4  502    0 -0.17218444393E+02  0.14131756283E+02  0.54928939086E+03  0.54976095375E+03  0.47000000000E+01 0.  1.
         -5    1    4    4    0  502  0.75952790274E+01  0.44963916411E+02  0.62476173549E+02  0.77490672367E+02  0.47000000000E+01 0.  1.
          5    1    5    5  503    0 -0.31722568226E+02 -0.85340672619E+02  0.50712051406E+03  0.51525009221E+03  0.47000000000E+01 0. -1.
         -5    1    5    5    0  503  0.41345733591E+02  0.26244999926E+02  0.21728958583E+03  0.22278941586E+03  0.47000000000E+01 0. -1.
<mgrwt>
<rscale>  0 0.28045405E+03</rscale>
<asrwt>0</asrwt>
<pdfrwt beam="1">  1        1 0.20780504E+00 0.28045405E+03</pdfrwt>
<pdfrwt beam="2">  1       -1 0.22396526E-02 0.28045405E+03</pdfrwt>
<totfact> 0.52350870E+03</totfact>
</mgrwt>
</event>
<event>
 9    1  0.7997082E-001  0.2749266E+03  0.7818608E-02  0.1098493E+00
         -2   -1    0    0    0  501 -0.00000000000E+00  0.00000000000E+00  0.29520766934E+03  0.29520766934E+03  0.00000000000E+00 0.  1.
          2   -1    0    0  501    0  0.00000000000E+00 -0.00000000000E+00 -0.64009710725E+02  0.64009710725E+02  0.00000000000E+00 0.  1.
         35    2    1    2    0    0  0.00000000000E+00  0.00000000000E+00  0.23119795861E+03  0.35921738006E+03  0.27492659033E+03 0.  0.
         25    2    3    3    0    0  0.18715139213E+02 -0.21693052507E+02  0.18053592348E+03  0.22310603770E+03  0.12791496953E+03 0.  0.
         25    2    3    3    0    0 -0.18715139213E+02  0.21693052507E+02  0.50662035139E+02  0.13611134237E+03  0.12303987465E+03 0.  0.
          5    1    4    4  502    0  0.14879386570E+02 -0.50389979544E+02  0.14790029330E+02  0.54784862423E+02  0.47000000000E+01 0. -1.
         -5    1    4    4    0  502  0.38357526426E+01  0.28696927037E+02  0.16574589415E+03  0.16832117527E+03  0.47000000000E+01 0. -1.
          5    1    5    5  503    0  0.38205040469E+02 -0.23110112348E+02  0.44574055607E+02  0.63266411652E+02  0.47000000000E+01 0.  1.
         -5    1    5    5    0  503 -0.56920179682E+02  0.44803164855E+02  0.60879795317E+01  0.72844930715E+02  0.47000000000E+01 0.  1.
<mgrwt>
<rscale>  0 0.27492659E+03</rscale>
<asrwt>0</asrwt>
<pdfrwt beam="1">  1        2 0.98476480E-02 0.27492659E+03</pdfrwt>
<pdfrwt beam="2">  1       -2 0.45416563E-01 0.27492659E+03</pdfrwt>
<totfact> 0.30266000E+03</totfact>
</mgrwt>
</event>
<event>
 9    1  0.7997082E-001  0.2750127E+03  0.7818608E-02  0.1098444E+00
         -2   -1    0    0    0  501 -0.00000000000E+00  0.00000000000E+00  0.22857022718E+02  0.22857022718E+02  0.00000000000E+00 0.  1.
          2   -1    0    0  501    0  0.00000000000E+00 -0.00000000000E+00 -0.82722926603E+03  0.82722926603E+03  0.00000000000E+00 0.  1.
         35    2    1    2    0    0  0.00000000000E+00  0.14210854715E-13 -0.80437224332E+03  0.85008628875E+03  0.27501271336E+03 0.  0.
         25    2    3    3    0    0  0.42449164733E+02  0.40229208623E+02 -0.46710707649E+03  0.48700424278E+03  0.12475492282E+03 0.  0.
         25    2    3    3    0    0 -0.42449164733E+02 -0.40229208623E+02 -0.33726516683E+03  0.36308204597E+03  0.12108038049E+03 0.  0.
          5    1    4    4  502    0  0.55682954998E+01 -0.43703631342E+02 -0.11847435093E+03  0.12648824109E+03  0.47000000000E+01 0. -1.
         -5    1    4    4    0  502  0.36880869233E+02  0.83932839966E+02 -0.34863272556E+03  0.36051600169E+03  0.47000000000E+01 0. -1.
          5    1    5    5  503    0 -0.38249197099E+02  0.39081382062E+02 -0.14064197354E+03  0.15097221673E+03  0.47000000000E+01 0.  1.
         -5    1    5    5    0  503 -0.41999676337E+01 -0.79310590686E+02 -0.19662319328E+03  0.21210982924E+03  0.47000000000E+01 0.  1.
<mgrwt>
<rscale>  0 0.27501271E+03</rscale>
<asrwt>0</asrwt>
<pdfrwt beam="1">  1        2 0.12726603E+00 0.27501271E+03</pdfrwt>
<pdfrwt beam="2">  1       -2 0.35164652E-02 0.27501271E+03</pdfrwt>
<totfact> 0.11302078E+04</totfact>
</mgrwt>
</event>
<event>
 9    1  0.7997082E-001  0.2889603E+03  0.7818608E-02  0.1090893E+00
         -1   -1    0    0    0  501 -0.00000000000E+00  0.00000000000E+00  0.15565272156E+02  0.15565272156E+02  0.00000000000E+00 0. -1.
          1   -1    0    0  501    0  0.00000000000E+00 -0.00000000000E+00 -0.13410954793E+04  0.13410954793E+04  0.00000000000E+00 0. -1.
         35    2    1    2    0    0  0.35527136788E-14  0.71054273576E-14 -0.13255302071E+04  0.13566607514E+04  0.28896031646E+03 0.  0.
         25    2    3    3    0    0  0.25516328631E+02  0.53894361081E+02 -0.47852379284E+03  0.49816619723E+03  0.12501541732E+03 0.  0.
         25    2    3    3    0    0 -0.25516328631E+02 -0.53894361081E+02 -0.84700641428E+03  0.85849455420E+03  0.12663865357E+03 0.  0.
          5    1    4    4  502    0  0.31058861443E+02  0.92114060228E+02 -0.37933099850E+03  0.39161684002E+03  0.47000000000E+01 0. -1.
         -5    1    4    4    0  502 -0.55425328115E+01 -0.38219699147E+02 -0.99192794343E+02  0.10654935721E+03  0.47000000000E+01 0. -1.
          5    1    5    5  503    0 -0.28266907775E+02 -0.59826101246E+02 -0.84781094024E+03  0.85040205836E+03  0.47000000000E+01 0.  1.
         -5    1    5    5    0  503  0.27505791437E+01  0.59317401649E+01  0.80452595802E+00  0.80924958465E+01  0.47000000000E+01 0.  1.
<mgrwt>
<rscale>  0 0.28896032E+03</rscale>
<asrwt>0</asrwt>
<pdfrwt beam="1">  1        1 0.20632241E+00 0.28896032E+03</pdfrwt>
<pdfrwt beam="2">  1       -1 0.23946569E-02 0.28896032E+03</pdfrwt>
<totfact> 0.48186298E+03</totfact>
</mgrwt>
</event>
<event>
 9    1  0.7997082E-001  0.2732234E+03  0.7818608E-02  0.1099449E+00
          2   -1    0    0  501    0  0.00000000000E+00  0.00000000000E+00  0.13052537396E+04  0.13052537396E+04  0.00000000000E+00 0. -1.
         -2   -1    0    0    0  501 -0.00000000000E+00 -0.00000000000E+00 -0.14298183483E+02  0.14298183483E+02  0.00000000000E+00 0. -1.
         35    2    1    2    0    0 -0.71054273576E-14  0.00000000000E+00  0.12909555561E+04  0.13195519231E+04  0.27322340647E+03 0.  0.
         25    2    3    3    0    0  0.48341793544E+02  0.24367092998E-01  0.63122925729E+03  0.64523809644E+03  0.12467917325E+03 0.  0.
         25    2    3    3    0    0 -0.48341793544E+02 -0.24367092998E-01  0.65972629885E+03  0.67431382667E+03  0.13085647802E+03 0.  0.
          5    1    4    4  502    0  0.46972626042E+02  0.58372856137E+02  0.36675285061E+03  0.37435753146E+03  0.47000000000E+01 0. -1.
         -5    1    4    4    0  502  0.13691675019E+01 -0.58348489044E+02  0.26447640667E+03  0.27088056497E+03  0.47000000000E+01 0. -1.
          5    1    5    5  503    0 -0.73858928543E+02  0.43768668686E+02  0.34835906178E+03  0.35881327123E+03  0.47000000000E+01 0. -1.
         -5    1    5    5    0  503  0.25517134999E+02 -0.43793035779E+02  0.31136723707E+03  0.31550055544E+03  0.47000000000E+01 0. -1.
<mgrwt>
<rscale>  0 0.27322341E+03</rscale>
<asrwt>0</asrwt>
<pdfrwt beam="1">  1        2 0.20080817E+00 0.27322341E+03</pdfrwt>
<pdfrwt beam="2">  1       -2 0.21997216E-02 0.27322341E+03</pdfrwt>
<totfact> 0.11695642E+04</totfact>
</mgrwt>
</event>
<event>
 9    1  0.7997082E-001  0.2735614E+03  0.7818608E-02  0.1099258E+00
         -1   -1    0    0    0  501 -0.00000000000E+00  0.00000000000E+00  0.78023651693E+02  0.78023651693E+02  0.00000000000E+00 0.  1.
          1   -1    0    0  501    0  0.00000000000E+00 -0.00000000000E+00 -0.23978568907E+03  0.23978568907E+03  0.00000000000E+00 0.  1.
         35    2    1    2    0    0 -0.71054273576E-14  0.00000000000E+00 -0.16176203738E+03  0.31780934076E+03  0.27356136485E+03 0.  0.
         25    2    3    3    0    0 -0.30712656949E+02 -0.34234181242E+02 -0.11881309905E+03  0.17888411576E+03  0.12556961377E+03 0.  0.
         25    2    3    3    0    0  0.30712656949E+02  0.34234181242E+02 -0.42948938327E+02  0.13892522500E+03  0.12385620847E+03 0.  0.
          5    1    4    4  502    0 -0.24851831502E+02 -0.42729960931E+02 -0.14342925930E+03  0.15178111053E+03  0.47000000000E+01 0. -1.
         -5    1    4    4    0  502 -0.58608254471E+01  0.84957796893E+01  0.24616160246E+02  0.27103005234E+02  0.47000000000E+01 0. -1.
          5    1    5    5  503    0  0.73407931513E+02  0.46652637418E+02 -0.23901139136E+02  0.90324677908E+02  0.47000000000E+01 0.  1.
         -5    1    5    5    0  503 -0.42695274564E+02 -0.12418456177E+02 -0.19047799191E+02  0.48600547095E+02  0.47000000000E+01 0.  1.
<mgrwt>
<rscale>  0 0.27356136E+03</rscale>
<asrwt>0</asrwt>
<pdfrwt beam="1">  1        1 0.36890107E-01 0.27356136E+03</pdfrwt>
<pdfrwt beam="2">  1       -1 0.12003639E-01 0.27356136E+03</pdfrwt>
<totfact> 0.52935072E+03</totfact>
</mgrwt>
</event>
<event>
 9    1  0.7997082E-001  0.2734171E+03  0.7818608E-02  0.1099340E+00
          2   -1    0    0  501    0  0.00000000000E+00  0.00000000000E+00  0.33774401225E+03  0.33774401225E+03  0.00000000000E+00 0. -1.
         -2   -1    0    0    0  501 -0.00000000000E+00 -0.00000000000E+00 -0.55335490104E+02  0.55335490104E+02  0.00000000000E+00 0. -1.
         35    2    1    2    0    0  0.00000000000E+00  0.00000000000E+00  0.28240852214E+03  0.39307950235E+03  0.27341712051E+03 0.  0.
         25    2    3    3    0    0  0.55974779417E+02  0.60579477991E+01  0.13891396267E+03  0.19512986967E+03  0.12493479240E+03 0.  0.
         25    2    3    3    0    0 -0.55974779417E+02 -0.60579477991E+01  0.14349455948E+03  0.19794963268E+03  0.12419135967E+03 0.  0.
          5    1    4    4  502    0  0.24269593001E+02  0.47962366497E+02  0.13113539611E+03  0.14180262289E+03  0.47000000000E+01 0.  1.
         -5    1    4    4    0  502  0.31705186416E+02 -0.41904418698E+02  0.77785665562E+01  0.53327246786E+02  0.47000000000E+01 0.  1.
          5    1    5    5  503    0 -0.46152929506E+02  0.34064659307E+02  0.10366559240E+02  0.58481188994E+02  0.47000000000E+01 0. -1.
         -5    1    5    5    0  503 -0.98218499114E+01 -0.40122607106E+02  0.13312800024E+03  0.13946844368E+03  0.47000000000E+01 0. -1.
<mgrwt>
<rscale>  0 0.27341712E+03</rscale>
<asrwt>0</asrwt>
<pdfrwt beam="1">  1        2 0.51960616E-01 0.27341712E+03</pdfrwt>
<pdfrwt beam="2">  1       -2 0.85131525E-02 0.27341712E+03</pdfrwt>
<totfact> 0.81747005E+03</totfact>
</mgrwt>
</event>
<event>
 9    1  0.7997082E-001  0.2752206E+03  0.7818608E-02  0.1098328E+00
         -2   -1    0    0    0  501 -0.00000000000E+00  0.00000000000E+00  0.12027244829E+02  0.12027244829E+02  0.00000000000E+00 0.  1.
          2   -1    0    0  501    0  0.00000000000E+00 -0.00000000000E+00 -0.15744744985E+04  0.15744744985E+04  0.00000000000E+00 0.  1.
         35    2    1    2    0    0  0.14210854715E-13  0.00000000000E+00 -0.15624472537E+04  0.15865017434E+04  0.27522056806E+03 0.  0.
         25    2    3    3    0    0  0.55597641032E+02  0.18491288839E+02 -0.75416921447E+03  0.76665395843E+03  0.12471592713E+03 0.  0.
         25    2    3    3    0    0 -0.55597641032E+02 -0.18491288839E+02 -0.80827803923E+03  0.81984778492E+03  0.12411275635E+03 0.  0.
          5    1    4    4  502    0  0.81604339119E+02 -0.12140477072E+02 -0.64420834219E+03  0.64948682626E+03  0.47000000000E+01 0. -1.
         -5    1    4    4    0  502 -0.26006698087E+02  0.30631765911E+02 -0.10996087228E+03  0.11716713217E+03  0.47000000000E+01 0. -1.
          5    1    5    5  503    0  0.23704278301E+02  0.50307082066E+01 -0.39228186542E+02  0.46348046929E+02  0.47000000000E+01 0.  1.
         -5    1    5    5    0  503 -0.79301919333E+02 -0.23521997046E+02 -0.76904985269E+03  0.77349973799E+03  0.47000000000E+01 0.  1.
<mgrwt>
<rscale>  0 0.27522057E+03</rscale>
<asrwt>0</asrwt>
<pdfrwt beam="1">  1        2 0.24222687E+00 0.27522057E+03</pdfrwt>
<pdfrwt beam="2">  1       -2 0.18503452E-02 0.27522057E+03</pdfrwt>
<totfact> 0.10792931E+04</totfact>
</mgrwt>
</event>
<event>
 9    1  0.7997082E-001  0.2746133E+03  0.7818608E-02  0.1098668E+00
          1   -1    0    0  501    0  0.00000000000E+00  0.00000000000E+00  0.31664199124E+03  0.31664199124E+03  0.00000000000E+00 0.  1.
         -1   -1    0    0    0  501 -0.00000000000E+00 -0.00000000000E+00 -0.59540774680E+02  0.59540774680E+02  0.00000000000E+00 0.  1.
         35    2    1    2    0    0  0.00000000000E+00 -0.71054273576E-14  0.25710121656E+03  0.37618276592E+03  0.27461325135E+03 0.  0.
         25    2    3    3    0    0  0.61462862924E+02 -0.94893227814E+01  0.13421608897E+03  0.19325673766E+03  0.12436429289E+03 0.  0.
         25    2    3    3    0    0 -0.61462862924E+02  0.94893227814E+01  0.12288512759E+03  0.18292602826E+03  0.12038873065E+03 0.  0.
          5    1    4    4  502    0  0.70145212065E+02  0.38631063567E+02  0.11564036756E+03  0.14073910067E+03  0.47000000000E+01 0. -1.
         -5    1    4    4    0  502 -0.86823491417E+01 -0.48120386349E+02  0.18575721409E+02  0.52517636988E+02  0.47000000000E+01 0. -1.
          5    1    5    5  503    0 -0.59562034233E+02  0.48342291905E+02  0.30700829115E+02  0.82760159600E+02  0.47000000000E+01 0.  1.
         -5    1    5    5    0  503 -0.19008286908E+01 -0.38852969124E+02  0.92184298471E+02  0.10016586866E+03  0.47000000000E+01 0.  1.
<mgrwt>
<rscale>  0 0.27461325E+03</rscale>
<asrwt>0</asrwt>
<pdfrwt beam="1">  1        1 0.48714152E-01 0.27461325E+03</pdfrwt>
<pdfrwt beam="2">  1       -1 0.91601193E-02 0.27461325E+03</pdfrwt>
<totfact> 0.56765637E+03</totfact>
</mgrwt>
</event>
<event>
 9    1  0.7997082E-001  0.2757562E+03  0.7818608E-02  0.1098030E+00
         -2   -1    0    0    0  501 -0.00000000000E+00  0.00000000000E+00  0.10729536175E+02  0.10729536175E+02  0.00000000000E+00 0.  1.
          2   -1    0    0  501    0  0.00000000000E+00 -0.00000000000E+00 -0.17717794371E+04  0.17717794371E+04  0.00000000000E+00 0.  1.
         35    2    1    2    0    0 -0.35527136788E-14  0.00000000000E+00 -0.17610499010E+04  0.17825089733E+04  0.27575620801E+03 0.  0.
         25    2    3    3    0    0 -0.25516874711E+02 -0.26877698692E+02 -0.59645765958E+03  0.61061034237E+03  0.12533845760E+03 0.  0.
         25    2    3    3    0    0  0.25516874711E+02  0.26877698692E+02 -0.11645922414E+04  0.11718986310E+04  0.12529082543E+03 0.  0.
          5    1    4    4  502    0 -0.58651342698E+01 -0.44965399792E+02 -0.57283254511E+03  0.57464380421E+03  0.47000000000E+01 0. -1.
         -5    1    4    4    0  502 -0.19651740441E+02  0.18087701100E+02 -0.23625114471E+02  0.35966538160E+02  0.47000000000E+01 0. -1.
          5    1    5    5  503    0  0.58112981218E+01  0.34877539071E+02 -0.11327978896E+04  0.11333593263E+04  0.47000000000E+01 0.  1.
         -5    1    5    5    0  503  0.19705576589E+02 -0.79998403791E+01 -0.31794351833E+02  0.38539304655E+02  0.47000000000E+01 0.  1.
<mgrwt>
<rscale>  0 0.27575621E+03</rscale>
<asrwt>0</asrwt>
<pdfrwt beam="1">  1        2 0.27258141E+00 0.27575621E+03</pdfrwt>
<pdfrwt beam="2">  1       -2 0.16506981E-02 0.27575621E+03</pdfrwt>
<totfact> 0.10041166E+04</totfact>
</mgrwt>
</event>
<event>
 9    1  0.7997082E-001  0.2541510E+03  0.7818608E-02  0.1110709E+00
          2   -1    0    0  501    0  0.00000000000E+00  0.00000000000E+00  0.29119363069E+03  0.29119363069E+03  0.00000000000E+00 0.  1.
         -2   -1    0    0    0  501 -0.00000000000E+00 -0.00000000000E+00 -0.55455158694E+02  0.55455158694E+02  0.00000000000E+00 0.  1.
         35    2    1    2    0    0  0.00000000000E+00  0.35527136788E-14  0.23573847200E+03  0.34664878939E+03  0.25415104958E+03 0.  0.
         25    2    3    3    0    0 -0.21440309696E+02  0.67676947207E+01  0.12472781752E+03  0.17834669238E+03  0.12547918413E+03 0.  0.
         25    2    3    3    0    0  0.21440309696E+02 -0.67676947207E+01  0.11101065448E+03  0.16830209701E+03  0.12448591035E+03 0.  0.
          5    1    4    4  502    0 -0.13244339062E+02  0.40665013773E+02 -0.55670094350E+01  0.43383608154E+02  0.47000000000E+01 0. -1.
         -5    1    4    4    0  502 -0.81959706340E+01 -0.33897319053E+02  0.13029482695E+03  0.13496308423E+03  0.47000000000E+01 0. -1.
          5    1    5    5  503    0  0.24181349471E+02  0.25079964048E+02  0.12733825849E+03  0.13210171965E+03  0.47000000000E+01 0. -1.
         -5    1    5    5    0  503 -0.27410397750E+01 -0.31847658769E+02 -0.16327604008E+02  0.36200377357E+02  0.47000000000E+01 0. -1.
<mgrwt>
<rscale>  0 0.25415105E+03</rscale>
<asrwt>0</asrwt>
<pdfrwt beam="1">  1        2 0.44799019E-01 0.25415105E+03</pdfrwt>
<pdfrwt beam="2">  1       -2 0.85315630E-02 0.25415105E+03</pdfrwt>
<totfact> 0.95258821E+03</totfact>
</mgrwt>
</event>
<event>
 9    1  0.7997082E-001  0.2787962E+03  0.7818608E-02  0.1096348E+00
          1   -1    0    0  501    0  0.00000000000E+00  0.00000000000E+00  0.31144891338E+02  0.31144891338E+02  0.00000000000E+00 0.  1.
         -1   -1    0    0    0  501 -0.00000000000E+00 -0.00000000000E+00 -0.62391708808E+03  0.62391708808E+03  0.00000000000E+00 0.  1.
         35    2    1    2    0    0 -0.35527136788E-14  0.00000000000E+00 -0.59277219675E+03  0.65506197942E+03  0.27879619734E+03 0.  0.
         25    2    3    3    0    0  0.23478127402E+02 -0.16580462093E+02 -0.16899029581E+03  0.21244925509E+03  0.12550231760E+03 0.  0.
         25    2    3    3    0    0 -0.23478127402E+02  0.16580462093E+02 -0.42378190094E+03  0.44261272433E+03  0.12445396733E+03 0.  0.
          5    1    4    4  502    0 -0.36657696618E+02  0.24680957779E+02 -0.25039935669E+02  0.51010045839E+02  0.47000000000E+01 0. -1.
         -5    1    4    4    0  502  0.60135824020E+02 -0.41261419872E+02 -0.14395036014E+03  0.16143920925E+03  0.47000000000E+01 0. -1.
          5    1    5    5  503    0 -0.27786187504E+02 -0.45891853181E+02 -0.28827625991E+03  0.29326340793E+03  0.47000000000E+01 0.  1.
         -5    1    5    5    0  503  0.43080601023E+01  0.62472315274E+02 -0.13550564103E+03  0.14934931640E+03  0.47000000000E+01 0.  1.
<mgrwt>
<rscale>  0 0.27879620E+03</rscale>
<asrwt>0</asrwt>
<pdfrwt beam="1">  1        1 0.47915220E-02 0.27879620E+03</pdfrwt>
<pdfrwt beam="2">  1       -1 0.95987239E-01 0.27879620E+03</pdfrwt>
<totfact> 0.19485441E+03</totfact>
</mgrwt>
</event>
<event>
 9    1  0.7997082E-001  0.2761353E+03  0.7818608E-02  0.1097819E+00
          2   -1    0    0  501    0  0.00000000000E+00  0.00000000000E+00  0.77331415620E+03  0.77331415620E+03  0.00000000000E+00 0.  1.
         -2   -1    0    0    0  501 -0.00000000000E+00 -0.00000000000E+00 -0.24650629263E+02  0.24650629263E+02  0.00000000000E+00 0.  1.
         35    2    1    2    0    0  0.00000000000E+00  0.14210854715E-13  0.74866352694E+03  0.79796478546E+03  0.27613533326E+03 0.  0.
         25    2    3    3    0    0  0.23933755736E+02  0.53182647669E+02  0.32959456289E+03  0.35685835257E+03  0.12375010804E+03 0.  0.
         25    2    3    3    0    0 -0.23933755736E+02 -0.53182647669E+02  0.41906896405E+03  0.44110643289E+03  0.12471916384E+03 0.  0.
          5    1    4    4  502    0  0.47503772957E+02  0.62813154444E+02  0.31945382800E+03  0.32905157504E+03  0.47000000000E+01 0. -1.
         -5    1    4    4    0  502 -0.23570017221E+02 -0.96305067745E+01  0.10140734890E+02  0.27806777531E+02  0.47000000000E+01 0. -1.
          5    1    5    5  503    0 -0.75031422060E+01 -0.81256889411E+02  0.38571342842E+03  0.39427898509E+03  0.47000000000E+01 0. -1.
         -5    1    5    5    0  503 -0.16430613530E+02  0.28074241742E+02  0.33355535632E+02  0.46827447802E+02  0.47000000000E+01 0. -1.
<mgrwt>
<rscale>  0 0.27613533E+03</rscale>
<asrwt>0</asrwt>
<pdfrwt beam="1">  1        2 0.11897139E+00 0.27613533E+03</pdfrwt>
<pdfrwt beam="2">  1       -2 0.37924051E-02 0.27613533E+03</pdfrwt>
<totfact> 0.10997887E+04</totfact>
</mgrwt>
</event>
<event>
 9    1  0.7997082E-001  0.2747754E+03  0.7818608E-02  0.1098577E+00
          2   -1    0    0  501    0  0.00000000000E+00  0.00000000000E+00  0.13345963167E+03  0.13345963167E+03  0.00000000000E+00 0. -1.
         -2   -1    0    0    0  501 -0.00000000000E+00 -0.00000000000E+00 -0.14143141099E+03  0.14143141099E+03  0.00000000000E+00 0. -1.
         35    2    1    2    0    0  0.71054273576E-14 -0.10658141036E-13 -0.79717793235E+01  0.27489104267E+03  0.27477542844E+03 0.  0.
         25    2    3    3    0    0  0.25453080520E+02  0.29229212859E+02 -0.44438952743E+02  0.13788397007E+03  0.12463932962E+03 0.  0.
         25    2    3    3    0    0 -0.25453080520E+02 -0.29229212859E+02  0.36467173420E+02  0.13700707260E+03  0.12624926539E+03 0.  0.
          5    1    4    4  502    0  0.30757221830E+02  0.69567998780E+02 -0.56862109730E+02  0.95084713134E+02  0.47000000000E+01 0.  1.
         -5    1    4    4    0  502 -0.53041413103E+01 -0.40338785920E+02  0.12423156987E+02  0.42799256934E+02  0.47000000000E+01 0.  1.
          5    1    5    5  503    0 -0.64577528890E+02  0.83218957082E+01  0.48419690141E+02  0.81277718835E+02  0.47000000000E+01 0. -1.
         -5    1    5    5    0  503  0.39124448369E+02 -0.37551108567E+02 -0.11952516721E+02  0.55729353763E+02  0.47000000000E+01 0. -1.
<mgrwt>
<rscale>  0 0.27477543E+03</rscale>
<asrwt>0</asrwt>
<pdfrwt beam="1">  1        2 0.20532251E-01 0.27477543E+03</pdfrwt>
<pdfrwt beam="2">  1       -2 0.21758679E-01 0.27477543E+03</pdfrwt>
<totfact> 0.48585327E+03</totfact>
</mgrwt>
</event>
<event>
 9    1  0.7997082E-001  0.2760735E+03  0.7818608E-02  0.1097853E+00
         -2   -1    0    0    0  501 -0.00000000000E+00  0.00000000000E+00  0.25206200129E+02  0.25206200129E+02  0.00000000000E+00 0.  1.
          2   -1    0    0  501    0  0.00000000000E+00 -0.00000000000E+00 -0.75593094410E+03  0.75593094410E+03  0.00000000000E+00 0.  1.
         35    2    1    2    0    0  0.00000000000E+00 -0.71054273576E-14 -0.73072474397E+03  0.78113714423E+03  0.27607351674E+03 0.  0.
         25    2    3    3    0    0  0.29050892179E+02  0.10112900145E+02 -0.49507129069E+03  0.51248683463E+03  0.12884466510E+03 0.  0.
         25    2    3    3    0    0 -0.29050892179E+02 -0.10112900145E+02 -0.23565345328E+03  0.26865030959E+03  0.12527654894E+03 0.  0.
          5    1    4    4  502    0  0.92197176235E+01 -0.55815304106E+02 -0.14574339829E+03  0.15640837417E+03  0.47000000000E+01 0. -1.
         -5    1    4    4    0  502  0.19831174556E+02  0.65928204251E+02 -0.34932789239E+03  0.35607846046E+03  0.47000000000E+01 0. -1.
          5    1    5    5  503    0 -0.14939438945E+02 -0.50230872237E+02 -0.21461621367E+03  0.22097180031E+03  0.47000000000E+01 0. -1.
         -5    1    5    5    0  503 -0.14111453235E+02  0.40117972091E+02 -0.21037239613E+02  0.47678509285E+02  0.47000000000E+01 0. -1.
<mgrwt>
<rscale>  0 0.27607352E+03</rscale>
<asrwt>0</asrwt>
<pdfrwt beam="1">  1        2 0.11629705E+00 0.27607352E+03</pdfrwt>
<pdfrwt beam="2">  1       -2 0.38778776E-02 0.27607352E+03</pdfrwt>
<totfact> 0.10942675E+04</totfact>
</mgrwt>
</event>
<event>
 9    1  0.7997082E-001  0.2713876E+03  0.7818608E-02  0.1100488E+00
          2   -1    0    0  501    0  0.00000000000E+00  0.00000000000E+00  0.10170993231E+04  0.10170993231E+04  0.00000000000E+00 0.  1.
         -2   -1    0    0    0  501 -0.00000000000E+00 -0.00000000000E+00 -0.18103250117E+02  0.18103250117E+02  0.00000000000E+00 0.  1.
         35    2    1    2    0    0  0.14210854715E-13 -0.35527136788E-14  0.99899607295E+03  0.10352025732E+04  0.27138757111E+03 0.  0.
         25    2    3    3    0    0  0.50131729490E+02 -0.21137286833E+02  0.47757976271E+03  0.49655901670E+03  0.12461321008E+03 0.  0.
         25    2    3    3    0    0 -0.50131729490E+02  0.21137286833E+02  0.52141631024E+03  0.53864355648E+03  0.12370099900E+03 0.  0.
          5    1    4    4  502    0  0.89937453619E+02 -0.25147973605E+02  0.37154463820E+03  0.38313010103E+03  0.47000000000E+01 0. -1.
         -5    1    4    4    0  502 -0.39805724129E+02  0.40106867714E+01  0.10603512451E+03  0.11342891568E+03  0.47000000000E+01 0. -1.
          5    1    5    5  503    0  0.73339009465E+01  0.43733122248E+02  0.39871242834E+03  0.40119828340E+03  0.47000000000E+01 0. -1.
         -5    1    5    5    0  503 -0.57465630437E+02 -0.22595835414E+02  0.12270388190E+03  0.13744527308E+03  0.47000000000E+01 0. -1.
<mgrwt>
<rscale>  0 0.27138757E+03</rscale>
<asrwt>0</asrwt>
<pdfrwt beam="1">  1        2 0.15647677E+00 0.27138757E+03</pdfrwt>
<pdfrwt beam="2">  1       -2 0.27851162E-02 0.27138757E+03</pdfrwt>
<totfact> 0.12092433E+04</totfact>
</mgrwt>
</event>
<event>
 9    1  0.7997082E-001  0.2794425E+03  0.7818608E-02  0.1095994E+00
          2   -1    0    0  501    0  0.00000000000E+00  0.00000000000E+00  0.20566216590E+03  0.20566216590E+03  0.00000000000E+00 0. -1.
         -2   -1    0    0    0  501 -0.00000000000E+00 -0.00000000000E+00 -0.94922786049E+02  0.94922786049E+02  0.00000000000E+00 0. -1.
         35    2    1    2    0    0 -0.14210854715E-13 -0.71054273576E-14  0.11073937985E+03  0.30058495195E+03  0.27944248619E+03 0.  0.
         25    2    3    3    0    0  0.58670349982E+02 -0.23865461292E+02  0.54230039216E+02  0.15018235246E+03  0.12490825284E+03 0.  0.
         25    2    3    3    0    0 -0.58670349982E+02  0.23865461292E+02  0.56509340633E+02  0.15040259948E+03  0.12416064651E+03 0.  0.
          5    1    4    4  502    0  0.93705684723E+02  0.40126205878E+01  0.45389108043E+02  0.10430300860E+03  0.47000000000E+01 0. -1.
         -5    1    4    4    0  502 -0.35035334740E+02 -0.27878081879E+02  0.88409311731E+01  0.45879343867E+02  0.47000000000E+01 0. -1.
          5    1    5    5  503    0  0.76066205946E+01 -0.43201993431E+02  0.25893032785E+02  0.51154785310E+02  0.47000000000E+01 0. -1.
         -5    1    5    5    0  503 -0.66276970577E+02  0.67067454723E+02  0.30616307849E+02  0.99247814173E+02  0.47000000000E+01 0. -1.
<mgrwt>
<rscale>  0 0.27944249E+03</rscale>
<asrwt>0</asrwt>
<pdfrwt beam="1">  1        2 0.31640333E-01 0.27944249E+03</pdfrwt>
<pdfrwt beam="2">  1       -2 0.14603506E-01 0.27944249E+03</pdfrwt>
<totfact> 0.58787157E+03</totfact>
</mgrwt>
</event>
<event>
 9    1  0.7997082E-001  0.2729378E+03  0.7818608E-02  0.1099610E+00
          2   -1    0    0  501    0  0.00000000000E+00  0.00000000000E+00  0.23183629015E+04  0.23183629015E+04  0.00000000000E+00 0. -1.
         -2   -1    0    0    0  501 -0.00000000000E+00 -0.00000000000E+00 -0.80331495209E+01  0.80331495209E+01  0.00000000000E+00 0. -1.
         35    2    1    2    0    0  0.35527136788E-14  0.00000000000E+00  0.23103297519E+04  0.23263960510E+04  0.27293776456E+03 0.  0.
         25    2    3    3    0    0  0.21369818404E+02  0.29155826644E+02  0.81183164629E+03  0.82222289194E+03  0.12519237494E+03 0.  0.
         25    2    3    3    0    0 -0.21369818404E+02 -0.29155826644E+02  0.14984981056E+04  0.15041731590E+04  0.12543360150E+03 0.  0.
          5    1    4    4  502    0  0.10992865474E+02 -0.35424155362E+02  0.58252811404E+03  0.58372665479E+03  0.47000000000E+01 0. -1.
         -5    1    4    4    0  502  0.10376952930E+02  0.64579982006E+02  0.22930353226E+03  0.23849623715E+03  0.47000000000E+01 0. -1.
          5    1    5    5  503    0  0.43311371634E+02  0.20715981830E+02  0.49450403971E+03  0.49685144873E+03  0.47000000000E+01 0.  1.
         -5    1    5    5    0  503 -0.64681190038E+02 -0.49871808474E+02  0.10039940659E+04  0.10073217103E+04  0.47000000000E+01 0.  1.
<mgrwt>
<rscale>  0 0.27293776E+03</rscale>
<asrwt>0</asrwt>
<pdfrwt beam="1">  1        2 0.35667068E+00 0.27293776E+03</pdfrwt>
<pdfrwt beam="2">  1       -2 0.12358710E-02 0.27293776E+03</pdfrwt>
<totfact> 0.78815326E+03</totfact>
</mgrwt>
</event>
<event>
 9    1  0.7997082E-001  0.2820304E+03  0.7818608E-02  0.1094585E+00
         -2   -1    0    0    0  501 -0.00000000000E+00  0.00000000000E+00  0.12303157316E+02  0.12303157316E+02  0.00000000000E+00 0.  1.
          2   -1    0    0  501    0  0.00000000000E+00 -0.00000000000E+00 -0.16162748678E+04  0.16162748678E+04  0.00000000000E+00 0.  1.
         35    2    1    2    0    0 -0.35527136788E-14  0.14210854715E-13 -0.16039717105E+04  0.16285780251E+04  0.28203038108E+03 0.  0.
         25    2    3    3    0    0  0.23182368715E+02 -0.61530180169E+02 -0.71063225785E+03  0.72437502177E+03  0.12408698954E+03 0.  0.
         25    2    3    3    0    0 -0.23182368715E+02  0.61530180169E+02 -0.89333945261E+03  0.90420300333E+03  0.12330575144E+03 0.  0.
          5    1    4    4  502    0  0.33035458470E+02 -0.95123591225E+02 -0.59462533299E+03  0.60310962167E+03  0.47000000000E+01 0. -1.
         -5    1    4    4    0  502 -0.98530897557E+01  0.33593411056E+02 -0.11600692486E+03  0.12126540010E+03  0.47000000000E+01 0. -1.
          5    1    5    5  503    0  0.24850011507E+02  0.81741010655E+01 -0.41183520663E+02  0.49015419761E+02  0.47000000000E+01 0. -1.
         -5    1    5    5    0  503 -0.48032380222E+02  0.53356079103E+02 -0.85215593195E+03  0.85518758356E+03  0.47000000000E+01 0. -1.
<mgrwt>
<rscale>  0 0.28203038E+03</rscale>
<asrwt>0</asrwt>
<pdfrwt beam="1">  1        2 0.24865757E+00 0.28203038E+03</pdfrwt>
<pdfrwt beam="2">  1       -2 0.18927942E-02 0.28203038E+03</pdfrwt>
<totfact> 0.99238143E+03</totfact>
</mgrwt>
</event>
<event>
 9    1  0.7997082E-001  0.2798136E+03  0.7818608E-02  0.1095791E+00
          1   -1    0    0  501    0  0.00000000000E+00  0.00000000000E+00  0.21095228419E+03  0.21095228419E+03  0.00000000000E+00 0. -1.
         -1   -1    0    0    0  501 -0.00000000000E+00 -0.00000000000E+00 -0.92788357035E+02  0.92788357035E+02  0.00000000000E+00 0. -1.
         35    2    1    2    0    0  0.00000000000E+00  0.00000000000E+00  0.11816392716E+03  0.30374064122E+03  0.27981362270E+03 0.  0.
         25    2    3    3    0    0 -0.46664770082E+02 -0.10147462482E+02  0.87646069696E+02  0.16010693676E+03  0.12518716350E+03 0.  0.
         25    2    3    3    0    0  0.46664770082E+02  0.10147462482E+02  0.30517857459E+02  0.14363370446E+03  0.13198003512E+03 0.  0.
          5    1    4    4  502    0  0.33382264389E+02  0.25563331357E+02  0.47423482876E+02  0.63552625547E+02  0.47000000000E+01 0. -1.
         -5    1    4    4    0  502 -0.80047034471E+02 -0.35710793838E+02  0.40222586821E+02  0.96554311218E+02  0.47000000000E+01 0. -1.
          5    1    5    5  503    0  0.29261636663E+02  0.12625023545E+02 -0.50883514226E+02  0.60223389308E+02  0.47000000000E+01 0. -1.
         -5    1    5    5    0  503  0.17403133418E+02 -0.24775610637E+01  0.81401371685E+02  0.83410315152E+02  0.47000000000E+01 0. -1.
<mgrwt>
<rscale>  0 0.27981362E+03</rscale>
<asrwt>0</asrwt>
<pdfrwt beam="1">  1        1 0.32454197E-01 0.27981362E+03</pdfrwt>
<pdfrwt beam="2">  1       -1 0.14275132E-01 0.27981362E+03</pdfrwt>
<totfact> 0.47393860E+03</totfact>
</mgrwt>
</event>
<event>
 9    1  0.7997082E-001  0.2750881E+03  0.7818608E-02  0.1098402E+00
          1   -1    0    0  501    0  0.00000000000E+00  0.00000000000E+00  0.92775319863E+02  0.92775319863E+02  0.00000000000E+00 0.  1.
         -1   -1    0    0    0  501 -0.00000000000E+00 -0.00000000000E+00 -0.20391597851E+03  0.20391597851E+03  0.00000000000E+00 0.  1.
         35    2    1    2    0    0 -0.71054273576E-14  0.00000000000E+00 -0.11114065865E+03  0.29669129837E+03  0.27508813229E+03 0.  0.
         25    2    3    3    0    0  0.45045070827E+02  0.32382645911E+02 -0.54783914242E+02  0.14888417345E+03  0.12683661018E+03 0.  0.
         25    2    3    3    0    0 -0.45045070827E+02 -0.32382645911E+02 -0.56356744407E+02  0.14780712493E+03  0.12487261260E+03 0.  0.
          5    1    4    4  502    0  0.76445810326E+02  0.34395028188E+02  0.17906990534E+01  0.83977833287E+02  0.47000000000E+01 0.  1.
         -5    1    4    4    0  502 -0.31400739499E+02 -0.20123822774E+01 -0.56574613296E+02  0.64906340161E+02  0.47000000000E+01 0.  1.
          5    1    5    5  503    0 -0.74030724146E+02 -0.13138343314E+02 -0.76470531454E+02  0.10734522050E+03  0.47000000000E+01 0. -1.
         -5    1    5    5    0  503  0.28985653319E+02 -0.19244302597E+02  0.20113787047E+02  0.40461904431E+02  0.47000000000E+01 0. -1.
<mgrwt>
<rscale>  0 0.27508813E+03</rscale>
<asrwt>0</asrwt>
<pdfrwt beam="1">  1        1 0.14273126E-01 0.27508813E+03</pdfrwt>
<pdfrwt beam="2">  1       -1 0.31371689E-01 0.27508813E+03</pdfrwt>
<totfact> 0.37455781E+03</totfact>
</mgrwt>
</event>
<event>
 9    1  0.7997082E-001  0.2757578E+03  0.7818608E-02  0.1098029E+00
         -2   -1    0    0    0  501 -0.00000000000E+00  0.00000000000E+00  0.54636921244E+03  0.54636921244E+03  0.00000000000E+00 0.  1.
          2   -1    0    0  501    0  0.00000000000E+00 -0.00000000000E+00 -0.34794394896E+02  0.34794394896E+02  0.00000000000E+00 0.  1.
         35    2    1    2    0    0  0.00000000000E+00 -0.35527136788E-14  0.51157481754E+03  0.58116360733E+03  0.27575776426E+03 0.  0.
         25    2    3    3    0    0  0.34443975364E+01  0.10363794376E+02  0.38726749279E+03  0.40710275624E+03  0.12504907462E+03 0.  0.
         25    2    3    3    0    0 -0.34443975364E+01 -0.10363794376E+02  0.12430732475E+03  0.17406085109E+03  0.12134906999E+03 0.  0.
          5    1    4    4  502    0 -0.36376681932E+02  0.45212201651E+02  0.29451141340E+03  0.30021070732E+03  0.47000000000E+01 0.  1.
         -5    1    4    4    0  502  0.39821079468E+02 -0.34848407275E+02  0.92756079389E+02  0.10689204892E+03  0.47000000000E+01 0.  1.
          5    1    5    5  503    0  0.22161967364E+02  0.21030106784E+02  0.12932611352E+03  0.13296898822E+03  0.47000000000E+01 0.  1.
         -5    1    5    5    0  503 -0.25606364900E+02 -0.31393901159E+02 -0.50187887725E+01  0.41091862870E+02  0.47000000000E+01 0.  1.
<mgrwt>
<rscale>  0 0.27575776E+03</rscale>
<asrwt>0</asrwt>
<pdfrwt beam="1">  1        2 0.53529842E-02 0.27575776E+03</pdfrwt>
<pdfrwt beam="2">  1       -2 0.84056796E-01 0.27575776E+03</pdfrwt>
<totfact> 0.18290377E+03</totfact>
</mgrwt>
</event>
<event>
 9    1  0.7997082E-001  0.2726189E+03  0.7818608E-02  0.1099790E+00
          2   -1    0    0  501    0  0.00000000000E+00  0.00000000000E+00  0.51341624763E+03  0.51341624763E+03  0.00000000000E+00 0.  1.
         -2   -1    0    0    0  501 -0.00000000000E+00 -0.00000000000E+00 -0.36189477540E+02  0.36189477540E+02  0.00000000000E+00 0.  1.
         35    2    1    2    0    0  0.17763568394E-14 -0.35527136788E-14  0.47722677009E+03  0.54960572517E+03  0.27261889709E+03 0.  0.
         25    2    3    3    0    0  0.78557893435E+01 -0.30526251923E+02  0.18022130540E+03  0.22597895881E+03  0.13263938111E+03 0.  0.
         25    2    3    3    0    0 -0.78557893435E+01  0.30526251923E+02  0.29700546469E+03  0.32362676636E+03  0.12461329130E+03 0.  0.
          5    1    4    4  502    0 -0.29700239008E+02 -0.61372860462E+02  0.44027625029E+02  0.81297318309E+02  0.47000000000E+01 0.  1.
         -5    1    4    4    0  502  0.37556028351E+02  0.30846608539E+02  0.13619368037E+03  0.14468164050E+03  0.47000000000E+01 0.  1.
          5    1    5    5  503    0  0.72061998992E+01  0.34448794522E+02  0.30389968442E+03  0.30596692134E+03  0.47000000000E+01 0.  1.
         -5    1    5    5    0  503 -0.15061989243E+02 -0.39225425986E+01 -0.68942197381E+01  0.17659845021E+02  0.47000000000E+01 0.  1.
<mgrwt>
<rscale>  0 0.27261890E+03</rscale>
<asrwt>0</asrwt>
<pdfrwt beam="1">  1        2 0.78987110E-01 0.27261890E+03</pdfrwt>
<pdfrwt beam="2">  1       -2 0.55676123E-02 0.27261890E+03</pdfrwt>
<totfact> 0.99707003E+03</totfact>
</mgrwt>
</event>
<event>
 9    1  0.7997082E-001  0.2776811E+03  0.7818608E-02  0.1096962E+00
          2   -1    0    0  501    0  0.00000000000E+00  0.00000000000E+00  0.18108846288E+02  0.18108846288E+02  0.00000000000E+00 0. -1.
         -2   -1    0    0    0  501 -0.00000000000E+00 -0.00000000000E+00 -0.10644906168E+04  0.10644906168E+04  0.00000000000E+00 0. -1.
         35    2    1    2    0    0  0.00000000000E+00 -0.71054273576E-14 -0.10463817705E+04  0.10825994631E+04  0.27768109013E+03 0.  0.
         25    2    3    3    0    0 -0.57683382870E+02 -0.14528902190E+02 -0.53459224634E+03  0.55206628372E+03  0.12429742605E+03 0.  0.
         25    2    3    3    0    0  0.57683382870E+02  0.14528902190E+02 -0.51178952415E+03  0.53053317934E+03  0.12648508091E+03 0.  0.
          5    1    4    4  502    0 -0.17890754574E+02 -0.68179169540E+02 -0.25985811719E+03  0.26928945268E+03  0.47000000000E+01 0.  1.
         -5    1    4    4    0  502 -0.39792628296E+02  0.53650267350E+02 -0.27473412915E+03  0.28277683104E+03  0.47000000000E+01 0.  1.
          5    1    5    5  503    0  0.77264817757E+02  0.52069838116E+02 -0.40397986827E+03  0.41461179924E+03  0.47000000000E+01 0. -1.
         -5    1    5    5    0  503 -0.19581434887E+02 -0.37540935926E+02 -0.10780965588E+03  0.11592138010E+03  0.47000000000E+01 0. -1.
<mgrwt>
<rscale>  0 0.27768109E+03</rscale>
<asrwt>0</asrwt>
<pdfrwt beam="1">  1        2 0.27859753E-02 0.27768109E+03</pdfrwt>
<pdfrwt beam="2">  1       -2 0.16376785E+00 0.27768109E+03</pdfrwt>
<totfact> 0.87302321E+02</totfact>
</mgrwt>
</event>
<event>
 9    1  0.7997082E-001  0.2764499E+03  0.7818608E-02  0.1097644E+00
          1   -1    0    0  501    0  0.00000000000E+00  0.00000000000E+00  0.12418022898E+03  0.12418022898E+03  0.00000000000E+00 0. -1.
         -1   -1    0    0    0  501 -0.00000000000E+00 -0.00000000000E+00 -0.15385809808E+03  0.15385809808E+03  0.00000000000E+00 0. -1.
         35    2    1    2    0    0  0.14210854715E-13  0.17763568394E-14 -0.29677869100E+02  0.27803832706E+03  0.27644987864E+03 0.  0.
         25    2    3    3    0    0  0.55669543741E+02  0.81715321154E+01 -0.32628892635E+02  0.14061555960E+03  0.12466843598E+03 0.  0.
         25    2    3    3    0    0 -0.55669543741E+02 -0.81715321154E+01  0.29510235354E+01  0.13742276746E+03  0.12534127987E+03 0.  0.
          5    1    4    4  502    0  0.15710065361E+02  0.53665780233E+02  0.20680109491E+02  0.59804506939E+02  0.47000000000E+01 0.  1.
         -5    1    4    4    0  502  0.39959478380E+02 -0.45494248117E+02 -0.53309002126E+02  0.80811052659E+02  0.47000000000E+01 0.  1.
          5    1    5    5  503    0 -0.63513234951E+02 -0.49583247313E+01  0.55112667040E+02  0.84368311980E+02  0.47000000000E+01 0.  1.
         -5    1    5    5    0  503  0.78436912096E+01 -0.32132073841E+01 -0.52161643504E+02  0.53054455483E+02  0.47000000000E+01 0.  1.
<mgrwt>
<rscale>  0 0.27644988E+03</rscale>
<asrwt>0</asrwt>
<pdfrwt beam="1">  1        1 0.19104651E-01 0.27644988E+03</pdfrwt>
<pdfrwt beam="2">  1       -1 0.23670477E-01 0.27644988E+03</pdfrwt>
<totfact> 0.41122284E+03</totfact>
</mgrwt>
</event>
<event>
 9    1  0.7997082E-001  0.2760666E+03  0.7818608E-02  0.1097857E+00
         -2   -1    0    0    0  501 -0.00000000000E+00  0.00000000000E+00  0.26066565435E+02  0.26066565435E+02  0.00000000000E+00 0.  1.
          2   -1    0    0  501    0  0.00000000000E+00 -0.00000000000E+00 -0.73094363026E+03  0.73094363026E+03  0.00000000000E+00 0.  1.
         35    2    1    2    0    0 -0.35527136788E-14  0.71054273576E-14 -0.70487706483E+03  0.75701019570E+03  0.27606658594E+03 0.  0.
         25    2    3    3    0    0 -0.17347659690E+02 -0.23668089564E+02 -0.49151293190E+03  0.50795249146E+03  0.12477840995E+03 0.  0.
         25    2    3    3    0    0  0.17347659690E+02  0.23668089564E+02 -0.21336413293E+03  0.24905770424E+03  0.12507744426E+03 0.  0.
          5    1    4    4  502    0 -0.51951456122E+01 -0.72455390522E+02 -0.21843619326E+03  0.23024602859E+03  0.47000000000E+01 0.  1.
         -5    1    4    4    0  502 -0.12152514078E+02  0.48787300959E+02 -0.27307673864E+03  0.27770646286E+03  0.47000000000E+01 0.  1.
          5    1    5    5  503    0  0.83443168060E+01 -0.49114768070E+01  0.15125388814E+02  0.18563879286E+02  0.47000000000E+01 0.  1.
         -5    1    5    5    0  503  0.90033428840E+01  0.28579566370E+02 -0.22848952174E+03  0.23049382495E+03  0.47000000000E+01 0.  1.
<mgrwt>
<rscale>  0 0.27606659E+03</rscale>
<asrwt>0</asrwt>
<pdfrwt beam="1">  1        2 0.11245285E+00 0.27606659E+03</pdfrwt>
<pdfrwt beam="2">  1       -2 0.40102415E-02 0.27606659E+03</pdfrwt>
<totfact> 0.10846458E+04</totfact>
</mgrwt>
</event>
<event>
 9    1  0.7997082E-001  0.2718052E+03  0.7818608E-02  0.1100251E+00
         -1   -1    0    0    0  501 -0.00000000000E+00  0.00000000000E+00  0.10331418201E+03  0.10331418201E+03  0.00000000000E+00 0. -1.
          1   -1    0    0  501    0  0.00000000000E+00 -0.00000000000E+00 -0.17877042491E+03  0.17877042491E+03  0.00000000000E+00 0. -1.
         35    2    1    2    0    0  0.00000000000E+00 -0.17763568394E-14 -0.75456242905E+02  0.28208460692E+03  0.27180522598E+03 0.  0.
         25    2    3    3    0    0 -0.53072922541E+02  0.61305661010E+01 -0.23923498536E+02  0.13742922433E+03  0.12433880718E+03 0.  0.
         25    2    3    3    0    0  0.53072922541E+02 -0.61305661010E+01 -0.51532744369E+02  0.14465538259E+03  0.12415811299E+03 0.  0.
          5    1    4    4  502    0 -0.87133906134E+02  0.81562516314E+01  0.11059413477E+02  0.88335964733E+02  0.47000000000E+01 0. -1.
         -5    1    4    4    0  502  0.34060983593E+02 -0.20256855304E+01 -0.34982912013E+02  0.49093259600E+02  0.47000000000E+01 0. -1.
          5    1    5    5  503    0  0.30738133297E+02 -0.91686815544E+01 -0.92304066143E+02  0.97831631830E+02  0.47000000000E+01 0. -1.
         -5    1    5    5    0  503  0.22334789244E+02  0.30381154534E+01  0.40771321773E+02  0.46823750760E+02  0.47000000000E+01 0. -1.
<mgrwt>
<rscale>  0 0.27180523E+03</rscale>
<asrwt>0</asrwt>
<pdfrwt beam="1">  1        1 0.27503142E-01 0.27180523E+03</pdfrwt>
<pdfrwt beam="2">  1       -1 0.15894490E-01 0.27180523E+03</pdfrwt>
<totfact> 0.49202245E+03</totfact>
</mgrwt>
</event>
<event>
 9    1  0.7997082E-001  0.2827423E+03  0.7818608E-02  0.1094201E+00
         -1   -1    0    0    0  501 -0.00000000000E+00  0.00000000000E+00  0.20729924836E+03  0.20729924836E+03  0.00000000000E+00 0.  1.
          1   -1    0    0  501    0  0.00000000000E+00 -0.00000000000E+00 -0.96410398075E+02  0.96410398075E+02  0.00000000000E+00 0.  1.
         35    2    1    2    0    0  0.71054273576E-14 -0.14210854715E-13  0.11088885028E+03  0.30370964643E+03  0.28274230709E+03 0.  0.
         25    2    3    3    0    0 -0.32191401007E+02  0.47205059520E+02  0.25240350891E+02  0.14159171774E+03  0.12706901776E+03 0.  0.
         25    2    3    3    0    0  0.32191401007E+02 -0.47205059520E+02  0.85648499389E+02  0.16211792869E+03  0.12522760643E+03 0.  0.
          5    1    4    4  502    0  0.47600991710E+00  0.78485789542E+02  0.46549653802E+02  0.91373989814E+02  0.47000000000E+01 0. -1.
         -5    1    4    4    0  502 -0.32667410924E+02 -0.31280730021E+02 -0.21309302911E+02  0.50217727922E+02  0.47000000000E+01 0. -1.
          5    1    5    5  503    0 -0.18492140111E+02 -0.76543235337E+02  0.50072509074E+02  0.93435390975E+02  0.47000000000E+01 0. -1.
         -5    1    5    5    0  503  0.50683541117E+02  0.29338175817E+02  0.35575990316E+02  0.68682537718E+02  0.47000000000E+01 0. -1.
<mgrwt>
<rscale>  0 0.28274231E+03</rscale>
<asrwt>0</asrwt>
<pdfrwt beam="1">  1        1 0.14832369E-01 0.28274231E+03</pdfrwt>
<pdfrwt beam="2">  1       -1 0.31892192E-01 0.28274231E+03</pdfrwt>
<totfact> 0.34645639E+03</totfact>
</mgrwt>
</event>
<event>
 9    1  0.7997082E-001  0.2630550E+03  0.7818608E-02  0.1105322E+00
          2   -1    0    0  501    0  0.00000000000E+00  0.00000000000E+00  0.36284747496E+03  0.36284747496E+03  0.00000000000E+00 0. -1.
         -2   -1    0    0    0  501 -0.00000000000E+00 -0.00000000000E+00 -0.47677009622E+02  0.47677009622E+02  0.00000000000E+00 0. -1.
         35    2    1    2    0    0 -0.35527136788E-14 -0.71054273576E-14  0.31517046534E+03  0.41052448458E+03  0.26305499467E+03 0.  0.
         25    2    3    3    0    0  0.22415835476E+02 -0.14655173482E+02  0.12500967128E+03  0.17894789347E+03  0.12521057014E+03 0.  0.
         25    2    3    3    0    0 -0.22415835476E+02  0.14655173482E+02  0.19016079406E+03  0.23157659111E+03  0.12941926503E+03 0.  0.
          5    1    4    4  502    0 -0.99460439780E+01 -0.64050552654E+02  0.86884299506E+02  0.10850054648E+03  0.47000000000E+01 0. -1.
         -5    1    4    4    0  502  0.32361879454E+02  0.49395379172E+02  0.38125371772E+02  0.70447346991E+02  0.47000000000E+01 0. -1.
          5    1    5    5  503    0  0.10107715640E+02  0.55488440861E+02  0.16299371296E+03  0.17254035311E+03  0.47000000000E+01 0.  1.
         -5    1    5    5    0  503 -0.32523551117E+02 -0.40833267379E+02  0.27167081096E+02  0.59036238001E+02  0.47000000000E+01 0.  1.
<mgrwt>
<rscale>  0 0.26305499E+03</rscale>
<asrwt>0</asrwt>
<pdfrwt beam="1">  1        2 0.55822687E-01 0.26305499E+03</pdfrwt>
<pdfrwt beam="2">  1       -2 0.73349248E-02 0.26305499E+03</pdfrwt>
<totfact> 0.95311080E+03</totfact>
</mgrwt>
</event>
<event>
 9    1  0.7997082E-001  0.2742131E+03  0.7818608E-02  0.1098892E+00
         -2   -1    0    0    0  501 -0.00000000000E+00  0.00000000000E+00  0.50769118296E+02  0.50769118296E+02  0.00000000000E+00 0.  1.
          2   -1    0    0  501    0  0.00000000000E+00 -0.00000000000E+00 -0.37026844494E+03  0.37026844494E+03  0.00000000000E+00 0.  1.
         35    2    1    2    0    0 -0.71054273576E-14  0.35527136788E-14 -0.31949932665E+03  0.42103756324E+03  0.27421307396E+03 0.  0.
         25    2    3    3    0    0  0.34332093233E+02  0.72941065130E+01 -0.10448348926E+03  0.16645184883E+03  0.12472979529E+03 0.  0.
         25    2    3    3    0    0 -0.34332093233E+02 -0.72941065130E+01 -0.21501583738E+03  0.25458571441E+03  0.13172007836E+03 0.  0.
          5    1    4    4  502    0  0.54635702825E+01 -0.53377318440E+02 -0.76401158721E+02  0.93478424131E+02  0.47000000000E+01 0.  1.
         -5    1    4    4    0  502  0.28868522950E+02  0.60671424953E+02 -0.28082330544E+02  0.72973424697E+02  0.47000000000E+01 0.  1.
          5    1    5    5  503    0  0.73501472994E+01 -0.18770212362E+02  0.11672937419E+02  0.23763270091E+02  0.47000000000E+01 0. -1.
         -5    1    5    5    0  503 -0.41682240532E+02  0.11476105849E+02 -0.22668877480E+03  0.23082244432E+03  0.47000000000E+01 0. -1.
<mgrwt>
<rscale>  0 0.27421307E+03</rscale>
<asrwt>0</asrwt>
<pdfrwt beam="1">  1        2 0.56964377E-01 0.27421307E+03</pdfrwt>
<pdfrwt beam="2">  1       -2 0.78106334E-02 0.27421307E+03</pdfrwt>
<totfact> 0.84705382E+03</totfact>
</mgrwt>
</event>
<event>
 9    1  0.7997082E-001  0.2743849E+03  0.7818608E-02  0.1098796E+00
          3   -1    0    0  501    0  0.00000000000E+00  0.00000000000E+00  0.16618764677E+03  0.16618764677E+03  0.00000000000E+00 0. -1.
         -3   -1    0    0    0  501 -0.00000000000E+00 -0.00000000000E+00 -0.11325612984E+03  0.11325612984E+03  0.00000000000E+00 0. -1.
         35    2    1    2    0    0  0.14210854715E-13 -0.17763568394E-14  0.52931516928E+02  0.27944377662E+03  0.27438490994E+03 0.  0.
         25    2    3    3    0    0  0.52791598051E+02  0.49141612088E+01  0.41824764463E+02  0.14266798543E+03  0.12567315281E+03 0.  0.
         25    2    3    3    0    0 -0.52791598051E+02 -0.49141612088E+01  0.11106752465E+02  0.13677579119E+03  0.12559122302E+03 0.  0.
          5    1    4    4  502    0 -0.39313433574E+02 -0.83184946541E+01  0.26192601359E+02  0.48196325364E+02  0.47000000000E+01 0. -1.
         -5    1    4    4    0  502  0.92105031625E+02  0.13232655863E+02  0.15632163104E+02  0.94471660063E+02  0.47000000000E+01 0. -1.
          5    1    5    5  503    0 -0.26332317278E+02 -0.32760938537E+02 -0.49350093542E+02  0.64993782469E+02  0.47000000000E+01 0.  1.
         -5    1    5    5    0  503 -0.26459280773E+02  0.27846777328E+02  0.60456846007E+02  0.71782008718E+02  0.47000000000E+01 0.  1.
<mgrwt>
<rscale>  0 0.27438491E+03</rscale>
<asrwt>0</asrwt>
<pdfrwt beam="1">  1        3 0.25567330E-01 0.27438491E+03</pdfrwt>
<pdfrwt beam="2">  1       -3 0.17424020E-01 0.27438491E+03</pdfrwt>
<totfact> 0.10493551E+03</totfact>
</mgrwt>
</event>
<event>
 9    1  0.7997082E-001  0.2914734E+03  0.7818608E-02  0.1089582E+00
          2   -1    0    0  501    0  0.00000000000E+00  0.00000000000E+00  0.11291391282E+03  0.11291391282E+03  0.00000000000E+00 0. -1.
         -2   -1    0    0    0  501 -0.00000000000E+00 -0.00000000000E+00 -0.18810066979E+03  0.18810066979E+03  0.00000000000E+00 0. -1.
         35    2    1    2    0    0  0.00000000000E+00  0.00000000000E+00 -0.75186756970E+02  0.30101458260E+03  0.29147337874E+03 0.  0.
         25    2    3    3    0    0  0.26606961923E+02 -0.67457367784E+02 -0.62031439496E+02  0.15719627588E+03  0.12491734376E+03 0.  0.
         25    2    3    3    0    0 -0.26606961923E+02  0.67457367784E+02 -0.13155317474E+02  0.14381830672E+03  0.12349986267E+03 0.  0.
          5    1    4    4  502    0  0.60699564343E+02 -0.52374942755E+00 -0.54224172749E+02  0.81529518183E+02  0.47000000000E+01 0.  1.
         -5    1    4    4    0  502 -0.34092602420E+02 -0.66933618357E+02 -0.78072667477E+01  0.75666757695E+02  0.47000000000E+01 0.  1.
          5    1    5    5  503    0 -0.70286509995E+02  0.11577518701E+02  0.73612364375E+00  0.71392326650E+02  0.47000000000E+01 0. -1.
         -5    1    5    5    0  503  0.43679548071E+02  0.55879849084E+02 -0.13891441117E+02  0.72425980074E+02  0.47000000000E+01 0. -1.
<mgrwt>
<rscale>  0 0.29147338E+03</rscale>
<asrwt>0</asrwt>
<pdfrwt beam="1">  1        2 0.17371371E-01 0.29147338E+03</pdfrwt>
<pdfrwt beam="2">  1       -2 0.28938564E-01 0.29147338E+03</pdfrwt>
<totfact> 0.35660608E+03</totfact>
</mgrwt>
</event>
<event>
 9    1  0.7997082E-001  0.2763411E+03  0.7818608E-02  0.1097704E+00
         -2   -1    0    0    0  501 -0.00000000000E+00  0.00000000000E+00  0.23320521801E+03  0.23320521801E+03  0.00000000000E+00 0. -1.
          2   -1    0    0  501    0  0.00000000000E+00 -0.00000000000E+00 -0.81863953478E+02  0.81863953478E+02  0.00000000000E+00 0. -1.
         35    2    1    2    0    0 -0.35527136788E-14  0.71054273576E-14  0.15134126453E+03  0.31506917149E+03  0.27634110167E+03 0.  0.
         25    2    3    3    0    0  0.22044776009E+02 -0.55758664558E+02  0.88109330826E+02  0.16381407618E+03  0.12440577380E+03 0.  0.
         25    2    3    3    0    0 -0.22044776009E+02  0.55758664558E+02  0.63231933709E+02  0.15125509531E+03  0.12363181465E+03 0.  0.
          5    1    4    4  502    0 -0.63332100895E+01 -0.20087923188E+02  0.11065828036E+03  0.11274297858E+03  0.47000000000E+01 0.  1.
         -5    1    4    4    0  502  0.28377986099E+02 -0.35670741370E+02 -0.22548949532E+02  0.51071097598E+02  0.47000000000E+01 0.  1.
          5    1    5    5  503    0 -0.57965814701E+02  0.45521887738E+02 -0.42573928415E+01  0.73976302496E+02  0.47000000000E+01 0. -1.
         -5    1    5    5    0  503  0.35921038692E+02  0.10236776820E+02  0.67489326550E+02  0.77278792813E+02  0.47000000000E+01 0. -1.
<mgrwt>
<rscale>  0 0.27634110E+03</rscale>
<asrwt>0</asrwt>
<pdfrwt beam="1">  1        2 0.12594454E-01 0.27634110E+03</pdfrwt>
<pdfrwt beam="2">  1       -2 0.35877726E-01 0.27634110E+03</pdfrwt>
<totfact> 0.35140332E+03</totfact>
</mgrwt>
</event>
<event>
 9    1  0.7997082E-001  0.2751758E+03  0.7818608E-02  0.1098353E+00
         -1   -1    0    0    0  501 -0.00000000000E+00  0.00000000000E+00  0.20093467951E+03  0.20093467951E+03  0.00000000000E+00 0. -1.
          1   -1    0    0  501    0  0.00000000000E+00 -0.00000000000E+00 -0.94211890607E+02  0.94211890607E+02  0.00000000000E+00 0. -1.
         35    2    1    2    0    0  0.00000000000E+00  0.00000000000E+00  0.10672278890E+03  0.29514657012E+03  0.27517584229E+03 0.  0.
         25    2    3    3    0    0 -0.18357364969E+02  0.21706664058E+02  0.10710878979E+03  0.16705791620E+03  0.12501152908E+03 0.  0.
         25    2    3    3    0    0  0.18357364969E+02 -0.21706664058E+02 -0.38600088235E+00  0.12808865391E+03  0.12489348322E+03 0.  0.
          5    1    4    4  502    0  0.73603533319E+01  0.67104385543E+02  0.88622816397E+02  0.11150456021E+03  0.47000000000E+01 0.  1.
         -5    1    4    4    0  502 -0.25717718301E+02 -0.45397721485E+02  0.18485973388E+02  0.55553355999E+02  0.47000000000E+01 0.  1.
          5    1    5    5  503    0 -0.36151529285E+02 -0.52842215228E+02  0.75507725682E+01  0.64640056825E+02  0.47000000000E+01 0. -1.
         -5    1    5    5    0  503  0.54508894255E+02  0.31135551171E+02 -0.79367734505E+01  0.63448597087E+02  0.47000000000E+01 0. -1.
<mgrwt>
<rscale>  0 0.27517584E+03</rscale>
<asrwt>0</asrwt>
<pdfrwt beam="1">  1        1 0.14494137E-01 0.27517584E+03</pdfrwt>
<pdfrwt beam="2">  1       -1 0.30913028E-01 0.27517584E+03</pdfrwt>
<totfact> 0.37642543E+03</totfact>
</mgrwt>
</event>
<event>
 9    1  0.7997082E-001  0.2747391E+03  0.7818608E-02  0.1098598E+00
         -1   -1    0    0    0  501 -0.00000000000E+00  0.00000000000E+00  0.96404454512E+02  0.96404454512E+02  0.00000000000E+00 0.  1.
          1   -1    0    0  501    0  0.00000000000E+00 -0.00000000000E+00 -0.19574191681E+03  0.19574191681E+03  0.00000000000E+00 0.  1.
         35    2    1    2    0    0  0.35527136788E-14  0.53290705182E-14 -0.99337462297E+02  0.29214637132E+03  0.27473909598E+03 0.  0.
         25    2    3    3    0    0 -0.15222676273E+02  0.74211681940E+01 -0.11391755723E+03  0.16468715879E+03  0.11771935617E+03 0.  0.
         25    2    3    3    0    0  0.15222676273E+02 -0.74211681940E+01  0.14580094933E+02  0.12745921253E+03  0.12548493168E+03 0.  0.
          5    1    4    4  502    0 -0.43700556652E+02 -0.35219619752E+02 -0.24322933828E+02  0.61350267947E+02  0.47000000000E+01 0.  1.
         -5    1    4    4    0  502  0.28477880379E+02  0.42640787946E+02 -0.89594623402E+02  0.10333689085E+03  0.47000000000E+01 0.  1.
          5    1    5    5  503    0 -0.70048256190E+01  0.19730860214E+01  0.68054755898E+02  0.68603939033E+02  0.47000000000E+01 0.  1.
         -5    1    5    5    0  503  0.22227501892E+02 -0.93942542153E+01 -0.53474660966E+02  0.58855273494E+02  0.47000000000E+01 0.  1.
<mgrwt>
<rscale>  0 0.27473910E+03</rscale>
<asrwt>0</asrwt>
<pdfrwt beam="1">  1        1 0.30114141E-01 0.27473910E+03</pdfrwt>
<pdfrwt beam="2">  1       -1 0.14831455E-01 0.27473910E+03</pdfrwt>
<totfact> 0.48994064E+03</totfact>
</mgrwt>
</event>
<event>
 9    1  0.7997082E-001  0.2775458E+03  0.7818608E-02  0.1097037E+00
         -2   -1    0    0    0  501 -0.00000000000E+00  0.00000000000E+00  0.15567147415E+02  0.15567147415E+02  0.00000000000E+00 0.  1.
          2   -1    0    0  501    0  0.00000000000E+00 -0.00000000000E+00 -0.12370869711E+04  0.12370869711E+04  0.00000000000E+00 0.  1.
         35    2    1    2    0    0  0.00000000000E+00  0.71054273576E-14 -0.12215198237E+04  0.12526541186E+04  0.27754578178E+03 0.  0.
         25    2    3    3    0    0  0.37945258920E+01  0.32686083637E+02 -0.83720333505E+03  0.84713025921E+03  0.12504988349E+03 0.  0.
         25    2    3    3    0    0 -0.37945258920E+01 -0.32686083637E+02 -0.38431648867E+03  0.40552385934E+03  0.12517051785E+03 0.  0.
          5    1    4    4  502    0 -0.38838559533E+02 -0.19938548105E+02 -0.14235421420E+03  0.14897245285E+03  0.47000000000E+01 0.  1.
         -5    1    4    4    0  502  0.42633085425E+02  0.52624631742E+02 -0.69484912085E+03  0.69815780637E+03  0.47000000000E+01 0.  1.
          5    1    5    5  503    0  0.51612412321E+02  0.48431924083E+01 -0.25029178893E+03  0.25564695817E+03  0.47000000000E+01 0.  1.
         -5    1    5    5    0  503 -0.55406938213E+02 -0.37529276045E+02 -0.13402469975E+03  0.14987690117E+03  0.47000000000E+01 0.  1.
<mgrwt>
<rscale>  0 0.27754578E+03</rscale>
<asrwt>0</asrwt>
<pdfrwt beam="1">  1        2 0.19032104E+00 0.27754578E+03</pdfrwt>
<pdfrwt beam="2">  1       -2 0.23949461E-02 0.27754578E+03</pdfrwt>
<totfact> 0.11263928E+04</totfact>
</mgrwt>
</event>
<event>
 9    1  0.7997082E-001  0.2760466E+03  0.7818608E-02  0.1097868E+00
          2   -1    0    0  501    0  0.00000000000E+00  0.00000000000E+00  0.58376332443E+02  0.58376332443E+02  0.00000000000E+00 0. -1.
         -2   -1    0    0    0  501 -0.00000000000E+00 -0.00000000000E+00 -0.32633834364E+03  0.32633834364E+03  0.00000000000E+00 0. -1.
         35    2    1    2    0    0  0.14210854715E-13  0.00000000000E+00 -0.26796201119E+03  0.38471467608E+03  0.27604663111E+03 0.  0.
         25    2    3    3    0    0  0.28178611651E+02  0.40607391247E+02 -0.89478718732E+02  0.16212496778E+03  0.12583747332E+03 0.  0.
         25    2    3    3    0    0 -0.28178611651E+02 -0.40607391247E+02 -0.17848329246E+03  0.22258970830E+03  0.12347833079E+03 0.  0.
          5    1    4    4  502    0 -0.47114532043E+02  0.11255584533E+02 -0.12116146488E+02  0.50153348029E+02  0.47000000000E+01 0. -1.
         -5    1    4    4    0  502  0.75293143694E+02  0.29351806714E+02 -0.77362572244E+02  0.11197161975E+03  0.47000000000E+01 0. -1.
          5    1    5    5  503    0  0.39997613606E+02 -0.64028571494E+01 -0.11886421607E+03  0.12566462325E+03  0.47000000000E+01 0.  1.
         -5    1    5    5    0  503 -0.68176225257E+02 -0.34204534098E+02 -0.59619076390E+02  0.96925085054E+02  0.47000000000E+01 0.  1.
<mgrwt>
<rscale>  0 0.27604663E+03</rscale>
<asrwt>0</asrwt>
<pdfrwt beam="1">  1        2 0.89809743E-02 0.27604663E+03</pdfrwt>
<pdfrwt beam="2">  1       -2 0.50205899E-01 0.27604663E+03</pdfrwt>
<totfact> 0.27859303E+03</totfact>
</mgrwt>
</event>
<event>
 9    1  0.7997082E-001  0.2646687E+03  0.7818608E-02  0.1104370E+00
         -2   -1    0    0    0  501 -0.00000000000E+00  0.00000000000E+00  0.12994644059E+04  0.12994644059E+04  0.00000000000E+00 0. -1.
          2   -1    0    0  501    0  0.00000000000E+00 -0.00000000000E+00 -0.13476611996E+02  0.13476611996E+02  0.00000000000E+00 0. -1.
         35    2    1    2    0    0  0.14210854715E-13  0.35527136788E-14  0.12859877939E+04  0.13129410179E+04  0.26466868044E+03 0.  0.
         25    2    3    3    0    0 -0.39842316258E+02  0.28064392557E+00  0.54746429738E+03  0.56287298548E+03  0.12458471798E+03 0.  0.
         25    2    3    3    0    0  0.39842316258E+02 -0.28064392557E+00  0.73852349657E+03  0.75006803246E+03  0.12489038957E+03 0.  0.
          5    1    4    4  502    0 -0.57301673401E+02 -0.37047178257E+02  0.47048935483E+03  0.47543485169E+03  0.47000000000E+01 0.  1.
         -5    1    4    4    0  502  0.17459357143E+02  0.37327822182E+02  0.76974942547E+02  0.87438133791E+02  0.47000000000E+01 0.  1.
          5    1    5    5  503    0  0.65606785796E+02  0.25469422005E+02  0.23886000640E+03  0.24905648849E+03  0.47000000000E+01 0.  1.
         -5    1    5    5    0  503 -0.25764469539E+02 -0.25750065930E+02  0.49966349017E+03  0.50101154397E+03  0.47000000000E+01 0.  1.
<mgrwt>
<rscale>  0 0.26466868E+03</rscale>
<asrwt>0</asrwt>
<pdfrwt beam="1">  1        2 0.20733260E-02 0.26466868E+03</pdfrwt>
<pdfrwt beam="2">  1       -2 0.19991750E+00 0.26466868E+03</pdfrwt>
<totfact> 0.75158365E+02</totfact>
</mgrwt>
</event>
<event>
 9    1  0.7997082E-001  0.2797305E+03  0.7818608E-02  0.1095836E+00
          2   -1    0    0  501    0  0.00000000000E+00  0.00000000000E+00  0.60604872752E+03  0.60604872752E+03  0.00000000000E+00 0.  1.
         -2   -1    0    0    0  501 -0.00000000000E+00 -0.00000000000E+00 -0.32278414307E+02  0.32278414307E+02  0.00000000000E+00 0.  1.
         35    2    1    2    0    0  0.71054273576E-14 -0.71054273576E-14  0.57377031321E+03  0.63832714183E+03  0.27973052688E+03 0.  0.
         25    2    3    3    0    0  0.50412715059E+02  0.33106408131E+02  0.24684383301E+03  0.28313107969E+03  0.12487535502E+03 0.  0.
         25    2    3    3    0    0 -0.50412715059E+02 -0.33106408131E+02  0.32692648020E+03  0.35519606214E+03  0.12508334422E+03 0.  0.
          5    1    4    4  502    0 -0.39896214847E+01 -0.43576161511E+02  0.90498942878E+02  0.10063273619E+03  0.47000000000E+01 0.  1.
         -5    1    4    4    0  502  0.54402336543E+02  0.76682569642E+02  0.15634489013E+03  0.18249834350E+03  0.47000000000E+01 0.  1.
          5    1    5    5  503    0  0.29946377142E+02 -0.41784272438E+02  0.18209824461E+03  0.18927380066E+03  0.47000000000E+01 0.  1.
         -5    1    5    5    0  503 -0.80359092201E+02  0.86778643067E+01  0.14482823559E+03  0.16592226147E+03  0.47000000000E+01 0.  1.
<mgrwt>
<rscale>  0 0.27973053E+03</rscale>
<asrwt>0</asrwt>
<pdfrwt beam="1">  1        2 0.93238258E-01 0.27973053E+03</pdfrwt>
<pdfrwt beam="2">  1       -2 0.49659103E-02 0.27973053E+03</pdfrwt>
<totfact> 0.98285073E+03</totfact>
</mgrwt>
</event>
<event>
 9    1  0.7997082E-001  0.2843621E+03  0.7818608E-02  0.1093330E+00
         -1   -1    0    0    0  501 -0.00000000000E+00  0.00000000000E+00  0.13574817380E+04  0.13574817380E+04  0.00000000000E+00 0. -1.
          1   -1    0    0  501    0  0.00000000000E+00 -0.00000000000E+00 -0.14891876785E+02  0.14891876785E+02  0.00000000000E+00 0. -1.
         35    2    1    2    0    0 -0.71054273576E-14  0.35527136788E-14  0.13425898612E+04  0.13723736148E+04  0.28436209861E+03 0.  0.
         25    2    3    3    0    0 -0.11223202393E+02  0.24765889589E+02  0.97339179186E+03  0.98176773264E+03  0.12504795420E+03 0.  0.
         25    2    3    3    0    0  0.11223202393E+02 -0.24765889589E+02  0.36919806937E+03  0.39060588215E+03  0.12460510096E+03 0.  0.
          5    1    4    4  502    0  0.56196781128E+02  0.18557356899E+02  0.40217280357E+03  0.40653106602E+03  0.47000000000E+01 0.  1.
         -5    1    4    4    0  502 -0.67419983521E+02  0.62085326906E+01  0.57121898828E+03  0.57523666663E+03  0.47000000000E+01 0.  1.
          5    1    5    5  503    0 -0.48899128684E+02  0.91733855850E+01  0.22736008931E+03  0.23278740516E+03  0.47000000000E+01 0.  1.
         -5    1    5    5    0  503  0.60122331076E+02 -0.33939275174E+02  0.14183798006E+03  0.15781847700E+03  0.47000000000E+01 0.  1.
<mgrwt>
<rscale>  0 0.28436210E+03</rscale>
<asrwt>0</asrwt>
<pdfrwt beam="1">  1        1 0.22910590E-02 0.28436210E+03</pdfrwt>
<pdfrwt beam="2">  1       -1 0.20884325E+00 0.28436210E+03</pdfrwt>
<totfact> 0.72807076E+02</totfact>
</mgrwt>
</event>
<event>
 9    1  0.7997082E-001  0.2754635E+03  0.7818608E-02  0.1098193E+00
         -2   -1    0    0    0  501 -0.00000000000E+00  0.00000000000E+00  0.18009943697E+03  0.18009943697E+03  0.00000000000E+00 0. -1.
          2   -1    0    0  501    0  0.00000000000E+00 -0.00000000000E+00 -0.10533088451E+03  0.10533088451E+03  0.00000000000E+00 0. -1.
         35    2    1    2    0    0  0.00000000000E+00  0.00000000000E+00  0.74768552466E+02  0.28543032148E+03  0.27546348575E+03 0.  0.
         25    2    3    3    0    0 -0.19974810550E+02 -0.36924524912E+02  0.76632226781E+02  0.15353776525E+03  0.12624948943E+03 0.  0.
         25    2    3    3    0    0  0.19974810550E+02  0.36924524912E+02 -0.18636743149E+01  0.13189255623E+03  0.12501903659E+03 0.  0.
          5    1    4    4  502    0 -0.98182881857E+01 -0.80599304033E+02  0.71260196236E+02  0.10813302993E+03  0.47000000000E+01 0. -1.
         -5    1    4    4    0  502 -0.10156522365E+02  0.43674779121E+02  0.53720305443E+01  0.45404735326E+02  0.47000000000E+01 0. -1.
          5    1    5    5  503    0 -0.30341540899E+02  0.22074909248E+02  0.46808902711E+02  0.60175361199E+02  0.47000000000E+01 0. -1.
         -5    1    5    5    0  503  0.50316351449E+02  0.14849615664E+02 -0.48672577026E+02  0.71717195029E+02  0.47000000000E+01 0. -1.
<mgrwt>
<rscale>  0 0.27546349E+03</rscale>
<asrwt>0</asrwt>
<pdfrwt beam="1">  1        2 0.16204751E-01 0.27546349E+03</pdfrwt>
<pdfrwt beam="2">  1       -2 0.27707606E-01 0.27546349E+03</pdfrwt>
<totfact> 0.41764439E+03</totfact>
</mgrwt>
</event>
<event>
 9    1  0.7997082E-001  0.2751484E+03  0.7818608E-02  0.1098369E+00
         -1   -1    0    0    0  501 -0.00000000000E+00  0.00000000000E+00  0.15867334199E+03  0.15867334199E+03  0.00000000000E+00 0.  1.
          1   -1    0    0  501    0  0.00000000000E+00 -0.00000000000E+00 -0.11928065808E+03  0.11928065808E+03  0.00000000000E+00 0.  1.
         35    2    1    2    0    0  0.00000000000E+00  0.00000000000E+00  0.39392683911E+02  0.27795400008E+03  0.27514840107E+03 0.  0.
         25    2    3    3    0    0 -0.16592792964E+02 -0.18532773090E+02 -0.31559865289E+02  0.13165540885E+03  0.12537279260E+03 0.  0.
         25    2    3    3    0    0  0.16592792964E+02  0.18532773090E+02  0.70952549199E+02  0.14629859123E+03  0.12549991674E+03 0.  0.
          5    1    4    4  502    0 -0.48944912040E+02 -0.22932854188E+02 -0.65010766955E+02  0.84675911780E+02  0.47000000000E+01 0. -1.
         -5    1    4    4    0  502  0.32352119075E+02  0.44000810979E+01  0.33450901666E+02  0.46979497066E+02  0.47000000000E+01 0. -1.
          5    1    5    5  503    0 -0.25041333428E+01 -0.53247435638E+02  0.30145472653E+02  0.61419863296E+02  0.47000000000E+01 0. -1.
         -5    1    5    5    0  503  0.19096926307E+02  0.71780208728E+02  0.40807076546E+02  0.84878727934E+02  0.47000000000E+01 0. -1.
<mgrwt>
<rscale>  0 0.27514840E+03</rscale>
<asrwt>0</asrwt>
<pdfrwt beam="1">  1        1 0.18350870E-01 0.27514840E+03</pdfrwt>
<pdfrwt beam="2">  1       -1 0.24411283E-01 0.27514840E+03</pdfrwt>
<totfact> 0.41159748E+03</totfact>
</mgrwt>
</event>
<event>
 9    1  0.7997082E-001  0.2668180E+03  0.7818608E-02  0.1103115E+00
         -1   -1    0    0    0  501 -0.00000000000E+00  0.00000000000E+00  0.22932601447E+02  0.22932601447E+02  0.00000000000E+00 0. -1.
          1   -1    0    0  501    0  0.00000000000E+00 -0.00000000000E+00 -0.77609887733E+03  0.77609887733E+03  0.00000000000E+00 0. -1.
         35    2    1    2    0    0  0.00000000000E+00  0.00000000000E+00 -0.75316627588E+03  0.79903147878E+03  0.26681803715E+03 0.  0.
         25    2    3    3    0    0 -0.40027177148E+02  0.11463495301E+02 -0.43731300782E+03  0.45677333616E+03  0.12516240326E+03 0.  0.
         25    2    3    3    0    0  0.40027177148E+02 -0.11463495301E+02 -0.31585326807E+03  0.34225814261E+03  0.12507502790E+03 0.  0.
          5    1    4    4  502    0 -0.47880520237E+02  0.53989960124E+02 -0.15392396602E+03  0.17006509732E+03  0.47000000000E+01 0.  1.
         -5    1    4    4    0  502  0.78533430888E+01 -0.42526464823E+02 -0.28338904180E+03  0.28670823884E+03  0.47000000000E+01 0.  1.
          5    1    5    5  503    0  0.48413514883E+02 -0.54329716224E+02 -0.26598125074E+03  0.27579648698E+03  0.47000000000E+01 0. -1.
         -5    1    5    5    0  503 -0.83863377349E+01  0.42866220923E+02 -0.49872017328E+02  0.66461655631E+02  0.47000000000E+01 0. -1.
<mgrwt>
<rscale>  0 0.26681804E+03</rscale>
<asrwt>0</asrwt>
<pdfrwt beam="1">  1        1 0.11939983E+00 0.26681804E+03</pdfrwt>
<pdfrwt beam="2">  1       -1 0.35280924E-02 0.26681804E+03</pdfrwt>
<totfact> 0.71360450E+03</totfact>
</mgrwt>
</event>
<event>
 9    1  0.7997082E-001  0.2721475E+03  0.7818608E-02  0.1100057E+00
         -4   -1    0    0    0  501 -0.00000000000E+00  0.00000000000E+00  0.26597487809E+03  0.26597487809E+03  0.00000000000E+00 0.  1.
          4   -1    0    0  501    0  0.00000000000E+00 -0.00000000000E+00 -0.69615822046E+02  0.69615822046E+02  0.00000000000E+00 0.  1.
         35    2    1    2    0    0  0.00000000000E+00  0.71054273576E-14  0.19635905604E+03  0.33559070013E+03  0.27214745842E+03 0.  0.
         25    2    3    3    0    0 -0.43127650898E+02  0.21476247362E+02  0.12992225923E+03  0.18630732714E+03  0.12453675454E+03 0.  0.
         25    2    3    3    0    0  0.43127650898E+02 -0.21476247362E+02  0.66436796813E+02  0.14928337299E+03  0.12470145953E+03 0.  0.
          5    1    4    4  502    0 -0.64853765133E+02 -0.26048395025E+02  0.10953878828E+03  0.13002063634E+03  0.47000000000E+01 0. -1.
         -5    1    4    4    0  502  0.21726114235E+02  0.47524642387E+02  0.20383470944E+02  0.56286690802E+02  0.47000000000E+01 0. -1.
          5    1    5    5  503    0 -0.26187520487E+02 -0.46820139530E+02  0.67975727433E+01  0.54278989398E+02  0.47000000000E+01 0.  1.
         -5    1    5    5    0  503  0.69315171385E+02  0.25343892168E+02  0.59639224069E+02  0.95004383593E+02  0.47000000000E+01 0.  1.
<mgrwt>
<rscale>  0 0.27214746E+03</rscale>
<asrwt>0</asrwt>
<pdfrwt beam="1">  1        4 0.10710127E-01 0.27214746E+03</pdfrwt>
<pdfrwt beam="2">  1       -4 0.40919211E-01 0.27214746E+03</pdfrwt>
<totfact> 0.73506509E+02</totfact>
</mgrwt>
</event>
<event>
 9    1  0.7997082E-001  0.2755440E+03  0.7818608E-02  0.1098148E+00
         -1   -1    0    0    0  501 -0.00000000000E+00  0.00000000000E+00  0.13195525647E+03  0.13195525647E+03  0.00000000000E+00 0. -1.
          1   -1    0    0  501    0  0.00000000000E+00 -0.00000000000E+00 -0.14384518650E+03  0.14384518650E+03  0.00000000000E+00 0. -1.
         35    2    1    2    0    0  0.35527136788E-14 -0.35527136788E-14 -0.11889930036E+02  0.27580044297E+03  0.27554403260E+03 0.  0.
         25    2    3    3    0    0 -0.30786866096E+02  0.18936001667E+02  0.47731073508E+02  0.13894238420E+03  0.12538073004E+03 0.  0.
         25    2    3    3    0    0  0.30786866096E+02 -0.18936001667E+02 -0.59621003543E+02  0.13685805877E+03  0.11776697713E+03 0.  0.
          5    1    4    4  502    0 -0.57494789802E+00 -0.52406132196E+02  0.15092456412E+02  0.54741259553E+02  0.47000000000E+01 0.  1.
         -5    1    4    4    0  502 -0.30211918198E+02  0.71342133864E+02  0.32638617095E+02  0.84201124644E+02  0.47000000000E+01 0.  1.
          5    1    5    5  503    0  0.42817259908E+02 -0.37700275944E+02  0.14720215214E+02  0.59105019146E+02  0.47000000000E+01 0. -1.
         -5    1    5    5    0  503 -0.12030393812E+02  0.18764274277E+02 -0.74341218757E+02  0.77753039623E+02  0.47000000000E+01 0. -1.
<mgrwt>
<rscale>  0 0.27554403E+03</rscale>
<asrwt>0</asrwt>
<pdfrwt beam="1">  1        1 0.22130029E-01 0.27554403E+03</pdfrwt>
<pdfrwt beam="2">  1       -1 0.20300809E-01 0.27554403E+03</pdfrwt>
<totfact> 0.43783346E+03</totfact>
</mgrwt>
</event>
<event>
 9    1  0.7997082E-001  0.2745318E+03  0.7818608E-02  0.1098714E+00
          1   -1    0    0  501    0  0.00000000000E+00  0.00000000000E+00  0.19766555728E+04  0.19766555728E+04  0.00000000000E+00 0. -1.
         -1   -1    0    0    0  501 -0.00000000000E+00 -0.00000000000E+00 -0.95322238297E+01  0.95322238297E+01  0.00000000000E+00 0. -1.
         35    2    1    2    0    0 -0.71054273576E-14 -0.35527136788E-14  0.19671233490E+04  0.19861877966E+04  0.27453177123E+03 0.  0.
         25    2    3    3    0    0  0.49444014443E+02  0.12077904819E+02  0.77252079386E+03  0.78408929342E+03  0.12416544106E+03 0.  0.
         25    2    3    3    0    0 -0.49444014443E+02 -0.12077904819E+02  0.11946025551E+04  0.12020985032E+04  0.12399580802E+03 0.  0.
          5    1    4    4  502    0 -0.89014793481E+01  0.35255027730E+02  0.72501757354E+02  0.81244988364E+02  0.47000000000E+01 0.  1.
         -5    1    4    4    0  502  0.58345493791E+02 -0.23177122911E+02  0.70001903651E+03  0.70284430506E+03  0.47000000000E+01 0.  1.
          5    1    5    5  503    0  0.31064917855E+02  0.26647542583E+02  0.26257251860E+03  0.26578475910E+03  0.47000000000E+01 0. -1.
         -5    1    5    5    0  503 -0.80508932298E+02 -0.38725447402E+02  0.93203003649E+03  0.93631374410E+03  0.47000000000E+01 0. -1.
<mgrwt>
<rscale>  0 0.27453177E+03</rscale>
<asrwt>0</asrwt>
<pdfrwt beam="1">  1        1 0.30410053E+00 0.27453177E+03</pdfrwt>
<pdfrwt beam="2">  1       -1 0.14664975E-02 0.27453177E+03</pdfrwt>
<totfact> 0.37683840E+03</totfact>
</mgrwt>
</event>
<event>
 9    1  0.7997082E-001  0.2767231E+03  0.7818608E-02  0.1097492E+00
          2   -1    0    0  501    0  0.00000000000E+00  0.00000000000E+00  0.77173784665E+02  0.77173784665E+02  0.00000000000E+00 0. -1.
         -2   -1    0    0    0  501 -0.00000000000E+00 -0.00000000000E+00 -0.24806250372E+03  0.24806250372E+03  0.00000000000E+00 0. -1.
         35    2    1    2    0    0  0.00000000000E+00  0.71054273576E-14 -0.17088871905E+03  0.32523628838E+03  0.27672312694E+03 0.  0.
         25    2    3    3    0    0 -0.25117659729E+02  0.36982485829E+02 -0.12722763162E+03  0.18497293486E+03  0.12660772209E+03 0.  0.
         25    2    3    3    0    0  0.25117659729E+02 -0.36982485829E+02 -0.43661087429E+02  0.14026335353E+03  0.12557434729E+03 0.  0.
          5    1    4    4  502    0  0.31254842633E+02 -0.31852686364E+02 -0.36878696522E+02  0.58082588387E+02  0.47000000000E+01 0.  1.
         -5    1    4    4    0  502 -0.56372502361E+02  0.68835172193E+02 -0.90348935100E+02  0.12689034647E+03  0.47000000000E+01 0.  1.
          5    1    5    5  503    0  0.22114281856E+02 -0.57245032822E+02 -0.78393343488E+02  0.99667655476E+02  0.47000000000E+01 0. -1.
         -5    1    5    5    0  503  0.30033778726E+01  0.20262546993E+02  0.34732256059E+02  0.40595698051E+02  0.47000000000E+01 0. -1.
<mgrwt>
<rscale>  0 0.27672313E+03</rscale>
<asrwt>0</asrwt>
<pdfrwt beam="1">  1        2 0.11872890E-01 0.27672313E+03</pdfrwt>
<pdfrwt beam="2">  1       -2 0.38163462E-01 0.27672313E+03</pdfrwt>
<totfact> 0.33608191E+03</totfact>
</mgrwt>
</event>
<event>
 9    1  0.7997082E-001  0.2755284E+03  0.7818608E-02  0.1098157E+00
          1   -1    0    0  501    0  0.00000000000E+00  0.00000000000E+00  0.17887254031E+04  0.17887254031E+04  0.00000000000E+00 0. -1.
         -1   -1    0    0    0  501 -0.00000000000E+00 -0.00000000000E+00 -0.10610336284E+02  0.10610336284E+02  0.00000000000E+00 0. -1.
         35    2    1    2    0    0 -0.35527136788E-14  0.00000000000E+00  0.17781150668E+04  0.17993357394E+04  0.27552842356E+03 0.  0.
         25    2    3    3    0    0  0.28048031799E+02  0.38574950231E+02  0.11209801225E+04  0.11288966503E+04  0.12464546954E+03 0.  0.
         25    2    3    3    0    0 -0.28048031799E+02 -0.38574950231E+02  0.65713494431E+03  0.67043908911E+03  0.12404643606E+03 0.  0.
          5    1    4    4  502    0 -0.28766642322E+02  0.30868412135E+02  0.88455808940E+03  0.88557635589E+03  0.47000000000E+01 0.  1.
         -5    1    4    4    0  502  0.56814674121E+02  0.77065380957E+01  0.23642203311E+03  0.24332029439E+03  0.47000000000E+01 0.  1.
          5    1    5    5  503    0 -0.23934967447E+02 -0.43947853447E+02  0.65985228654E+03  0.66176387521E+03  0.47000000000E+01 0. -1.
         -5    1    5    5    0  503 -0.41130643524E+01  0.53729032165E+01 -0.27173422277E+01  0.86752138950E+01  0.47000000000E+01 0. -1.
<mgrwt>
<rscale>  0 0.27552842E+03</rscale>
<asrwt>0</asrwt>
<pdfrwt beam="1">  1        1 0.27518829E+00 0.27552842E+03</pdfrwt>
<pdfrwt beam="2">  1       -1 0.16323608E-02 0.27552842E+03</pdfrwt>
<totfact> 0.42699506E+03</totfact>
</mgrwt>
</event>
<event>
 9    1  0.7997082E-001  0.2746458E+03  0.7818608E-02  0.1098650E+00
          1   -1    0    0  501    0  0.00000000000E+00  0.00000000000E+00  0.17554600651E+03  0.17554600651E+03  0.00000000000E+00 0. -1.
         -1   -1    0    0    0  501 -0.00000000000E+00 -0.00000000000E+00 -0.10742239571E+03  0.10742239571E+03  0.00000000000E+00 0. -1.
         35    2    1    2    0    0  0.71054273576E-14  0.35527136788E-14  0.68123610793E+02  0.28296840222E+03  0.27464575421E+03 0.  0.
         25    2    3    3    0    0 -0.47453221375E+02 -0.24908468390E+02  0.16838533929E+02  0.13739700368E+03  0.12538803922E+03 0.  0.
         25    2    3    3    0    0  0.47453221375E+02  0.24908468390E+02  0.51285076864E+02  0.14557139854E+03  0.12525427317E+03 0.  0.
          5    1    4    4  502    0 -0.88872079015E+02 -0.22364745803E+02  0.24408716674E+02  0.94954219142E+02  0.47000000000E+01 0.  1.
         -5    1    4    4    0  502  0.41418857641E+02 -0.25437225867E+01 -0.75701827450E+01  0.42442784542E+02  0.47000000000E+01 0.  1.
          5    1    5    5  503    0  0.54719770183E+02 -0.22411492196E+02 -0.17307976854E+02  0.61791458099E+02  0.47000000000E+01 0. -1.
         -5    1    5    5    0  503 -0.72665488081E+01  0.47319960586E+02  0.68593053718E+02  0.83779940438E+02  0.47000000000E+01 0. -1.
<mgrwt>
<rscale>  0 0.27464575E+03</rscale>
<asrwt>0</asrwt>
<pdfrwt beam="1">  1        1 0.27007078E-01 0.27464575E+03</pdfrwt>
<pdfrwt beam="2">  1       -1 0.16526522E-01 0.27464575E+03</pdfrwt>
<totfact> 0.47327914E+03</totfact>
</mgrwt>
</event>
<event>
 9    1  0.7997082E-001  0.2817253E+03  0.7818608E-02  0.1094750E+00
          2   -1    0    0  501    0  0.00000000000E+00  0.00000000000E+00  0.20927271930E+04  0.20927271930E+04  0.00000000000E+00 0. -1.
         -2   -1    0    0    0  501 -0.00000000000E+00 -0.00000000000E+00 -0.94815447364E+01  0.94815447364E+01  0.00000000000E+00 0. -1.
         35    2    1    2    0    0  0.00000000000E+00  0.17763568394E-14  0.20832456482E+04  0.21022087377E+04  0.28172530239E+03 0.  0.
         25    2    3    3    0    0  0.47032301278E+02  0.31675676619E+00  0.73976409030E+03  0.75204676360E+03  0.12693024715E+03 0.  0.
         25    2    3    3    0    0 -0.47032301278E+02 -0.31675676619E+00  0.13434815579E+04  0.13501619741E+04  0.12562850840E+03 0.  0.
          5    1    4    4  502    0 -0.43388382799E+02 -0.73025620012E+01  0.22120222646E+03  0.22558456100E+03  0.47000000000E+01 0.  1.
         -5    1    4    4    0  502  0.90420684077E+02  0.76193187673E+01  0.51856186385E+03  0.52646220260E+03  0.47000000000E+01 0.  1.
          5    1    5    5  503    0  0.23279840896E+02  0.44120063319E+02  0.57443744043E+03  0.57661858620E+03  0.47000000000E+01 0.  1.
         -5    1    5    5    0  503 -0.70312142174E+02 -0.44436820085E+02  0.76904411749E+03  0.77354338790E+03  0.47000000000E+01 0.  1.
<mgrwt>
<rscale>  0 0.28172530E+03</rscale>
<asrwt>0</asrwt>
<pdfrwt beam="1">  1        2 0.32195766E+00 0.28172530E+03</pdfrwt>
<pdfrwt beam="2">  1       -2 0.14587009E-02 0.28172530E+03</pdfrwt>
<totfact> 0.81599926E+03</totfact>
</mgrwt>
</event>
<event>
 9    1  0.7997082E-001  0.2763307E+03  0.7818608E-02  0.1097710E+00
          1   -1    0    0  501    0  0.00000000000E+00  0.00000000000E+00  0.17435500357E+03  0.17435500357E+03  0.00000000000E+00 0.  1.
         -1   -1    0    0    0  501 -0.00000000000E+00 -0.00000000000E+00 -0.10948736630E+03  0.10948736630E+03  0.00000000000E+00 0.  1.
         35    2    1    2    0    0  0.00000000000E+00  0.17763568394E-14  0.64867637270E+02  0.28384236986E+03  0.27633074488E+03 0.  0.
         25    2    3    3    0    0  0.46854673148E+02 -0.69653633037E+01  0.62504246131E+02  0.14754104318E+03  0.12497080442E+03 0.  0.
         25    2    3    3    0    0 -0.46854673148E+02  0.69653633037E+01  0.23633911382E+01  0.13630132668E+03  0.12778336885E+03 0.  0.
          5    1    4    4  502    0  0.58756880943E+02  0.33797625164E+02 -0.44768739971E+01  0.68093927230E+02  0.47000000000E+01 0.  1.
         -5    1    4    4    0  502 -0.11902207795E+02 -0.40762988467E+02  0.66981120128E+02  0.79447115951E+02  0.47000000000E+01 0.  1.
          5    1    5    5  503    0 -0.34734271178E+01 -0.72665262021E+01  0.61072698268E+02  0.61780511269E+02  0.47000000000E+01 0.  1.
         -5    1    5    5    0  503 -0.43381246030E+02  0.14231889506E+02 -0.58709307130E+02  0.74520815412E+02  0.47000000000E+01 0.  1.
<mgrwt>
<rscale>  0 0.27633074E+03</rscale>
<asrwt>0</asrwt>
<pdfrwt beam="1">  1        1 0.26823847E-01 0.27633074E+03</pdfrwt>
<pdfrwt beam="2">  1       -1 0.16844210E-01 0.27633074E+03</pdfrwt>
<totfact> 0.46314950E+03</totfact>
</mgrwt>
</event>
<event>
 9    1  0.7997082E-001  0.2738638E+03  0.7818608E-02  0.1099088E+00
          2   -1    0    0  501    0  0.00000000000E+00  0.00000000000E+00  0.53768514687E+03  0.53768514687E+03  0.00000000000E+00 0. -1.
         -2   -1    0    0    0  501 -0.00000000000E+00 -0.00000000000E+00 -0.34872342944E+02  0.34872342944E+02  0.00000000000E+00 0. -1.
         35    2    1    2    0    0  0.00000000000E+00  0.00000000000E+00  0.50281280393E+03  0.57255748982E+03  0.27386376787E+03 0.  0.
         25    2    3    3    0    0 -0.16484653110E+02 -0.24985677354E+02  0.15505459832E+03  0.20165844922E+03  0.12541201625E+03 0.  0.
         25    2    3    3    0    0  0.16484653110E+02  0.24985677354E+02  0.34775820561E+03  0.37089904060E+03  0.12543644163E+03 0.  0.
          5    1    4    4  502    0  0.15065102873E+02  0.46308094037E+02  0.43410075413E+02  0.65405821952E+02  0.47000000000E+01 0. -1.
         -5    1    4    4    0  502 -0.31549755983E+02 -0.71293771390E+02  0.11164452290E+03  0.13625262726E+03  0.47000000000E+01 0. -1.
          5    1    5    5  503    0  0.45342391756E+02 -0.33643930846E+02  0.22179077279E+03  0.22891282940E+03  0.47000000000E+01 0. -1.
         -5    1    5    5    0  503 -0.28857738646E+02  0.58629608199E+02  0.12596743282E+03  0.14198621120E+03  0.47000000000E+01 0. -1.
<mgrwt>
<rscale>  0 0.27386377E+03</rscale>
<asrwt>0</asrwt>
<pdfrwt beam="1">  1        2 0.82720786E-01 0.27386377E+03</pdfrwt>
<pdfrwt beam="2">  1       -2 0.53649762E-02 0.27386377E+03</pdfrwt>
<totfact> 0.10017004E+04</totfact>
</mgrwt>
</event>
<event>
 9    1  0.7997082E-001  0.2713708E+03  0.7818608E-02  0.1100498E+00
         -2   -1    0    0    0  501 -0.00000000000E+00  0.00000000000E+00  0.49434349735E+02  0.49434349735E+02  0.00000000000E+00 0.  1.
          2   -1    0    0  501    0  0.00000000000E+00 -0.00000000000E+00 -0.37242392121E+03  0.37242392121E+03  0.00000000000E+00 0.  1.
         35    2    1    2    0    0  0.35527136788E-14  0.00000000000E+00 -0.32298957148E+03  0.42185827095E+03  0.27137084862E+03 0.  0.
         25    2    3    3    0    0 -0.12061724793E+02 -0.49624418553E+02 -0.16406012175E+03  0.21258741109E+03  0.12517833552E+03 0.  0.
         25    2    3    3    0    0  0.12061724793E+02  0.49624418553E+02 -0.15892944973E+03  0.20927085986E+03  0.12620481240E+03 0.  0.
          5    1    4    4  502    0  0.20654918934E+02 -0.70158929802E+02 -0.41986716925E+02  0.84462272674E+02  0.47000000000E+01 0. -1.
         -5    1    4    4    0  502 -0.32716643726E+02  0.20534511249E+02 -0.12207340482E+03  0.12812513841E+03  0.47000000000E+01 0. -1.
          5    1    5    5  503    0 -0.22364370652E+02  0.50890576519E+02 -0.16482169799E+03  0.17400660327E+03  0.47000000000E+01 0.  1.
         -5    1    5    5    0  503  0.34426095445E+02 -0.12661579658E+01  0.58922482551E+01  0.35264256593E+02  0.47000000000E+01 0.  1.
<mgrwt>
<rscale>  0 0.27137085E+03</rscale>
<asrwt>0</asrwt>
<pdfrwt beam="1">  1        2 0.57295988E-01 0.27137085E+03</pdfrwt>
<pdfrwt beam="2">  1       -2 0.76052846E-02 0.27137085E+03</pdfrwt>
<totfact> 0.87706766E+03</totfact>
</mgrwt>
</event>
<event>
 9    1  0.7997082E-001  0.2749513E+03  0.7818608E-02  0.1098479E+00
          2   -1    0    0  501    0  0.00000000000E+00  0.00000000000E+00  0.75247769642E+03  0.75247769642E+03  0.00000000000E+00 0. -1.
         -2   -1    0    0    0  501 -0.00000000000E+00 -0.00000000000E+00 -0.25116430137E+02  0.25116430137E+02  0.00000000000E+00 0. -1.
         35    2    1    2    0    0  0.00000000000E+00  0.00000000000E+00  0.72736126629E+03  0.77759412656E+03  0.27495129381E+03 0.  0.
         25    2    3    3    0    0  0.68267709217E+01 -0.42976349022E+02  0.25328635536E+03  0.28539951371E+03  0.12411822282E+03 0.  0.
         25    2    3    3    0    0 -0.68267709217E+01  0.42976349022E+02  0.47407491092E+03  0.49219461285E+03  0.12495977102E+03 0.  0.
          5    1    4    4  502    0 -0.42296671321E+02  0.18848032539E+02  0.13756019980E+03  0.14522105668E+03  0.47000000000E+01 0.  1.
         -5    1    4    4    0  502  0.49123442243E+02 -0.61824381562E+02  0.11572615557E+03  0.14017845703E+03  0.47000000000E+01 0.  1.
          5    1    5    5  503    0 -0.57496984292E+02  0.23244815622E+02  0.13353799758E+03  0.14731161344E+03  0.47000000000E+01 0.  1.
         -5    1    5    5    0  503  0.50670213371E+02  0.19731533400E+02  0.34053691334E+03  0.34488299941E+03  0.47000000000E+01 0.  1.
<mgrwt>
<rscale>  0 0.27495129E+03</rscale>
<asrwt>0</asrwt>
<pdfrwt beam="1">  1        2 0.11576578E+00 0.27495129E+03</pdfrwt>
<pdfrwt beam="2">  1       -2 0.38640667E-02 0.27495129E+03</pdfrwt>
<totfact> 0.11062757E+04</totfact>
</mgrwt>
</event>
<event>
 9    1  0.7997082E-001  0.2762538E+03  0.7818608E-02  0.1097753E+00
          2   -1    0    0  501    0  0.00000000000E+00  0.00000000000E+00  0.20092888458E+03  0.20092888458E+03  0.00000000000E+00 0.  1.
         -2   -1    0    0    0  501 -0.00000000000E+00 -0.00000000000E+00 -0.94954170345E+02  0.94954170345E+02  0.00000000000E+00 0.  1.
         35    2    1    2    0    0  0.71054273576E-14  0.00000000000E+00  0.10597471423E+03  0.29588305492E+03  0.27625376402E+03 0.  0.
         25    2    3    3    0    0 -0.35005865410E+02  0.45952600415E+02  0.63341378028E+02  0.15124258703E+03  0.12459991117E+03 0.  0.
         25    2    3    3    0    0  0.35005865410E+02 -0.45952600415E+02  0.42633336203E+02  0.14464046789E+03  0.12556357552E+03 0.  0.
          5    1    4    4  502    0 -0.61780105022E+02  0.72262215419E+02  0.27380378918E+02  0.99047384133E+02  0.47000000000E+01 0. -1.
         -5    1    4    4    0  502  0.26774239613E+02 -0.26309615005E+02  0.35960999110E+02  0.52195202897E+02  0.47000000000E+01 0. -1.
          5    1    5    5  503    0  0.47614013580E+02 -0.80786285036E+02  0.50304714348E+02  0.10651841355E+03  0.47000000000E+01 0. -1.
         -5    1    5    5    0  503 -0.12608148171E+02  0.34833684622E+02 -0.76713781444E+01  0.38122054342E+02  0.47000000000E+01 0. -1.
<mgrwt>
<rscale>  0 0.27625376E+03</rscale>
<asrwt>0</asrwt>
<pdfrwt beam="1">  1        2 0.30912136E-01 0.27625376E+03</pdfrwt>
<pdfrwt beam="2">  1       -2 0.14608334E-01 0.27625376E+03</pdfrwt>
<totfact> 0.60246575E+03</totfact>
</mgrwt>
</event>
<event>
 9    1  0.7997082E-001  0.2737732E+03  0.7818608E-02  0.1099139E+00
          1   -1    0    0  501    0  0.00000000000E+00  0.00000000000E+00  0.17316952935E+03  0.17316952935E+03  0.00000000000E+00 0. -1.
         -1   -1    0    0    0  501 -0.00000000000E+00 -0.00000000000E+00 -0.10820578529E+03  0.10820578529E+03  0.00000000000E+00 0. -1.
         35    2    1    2    0    0 -0.71054273576E-14  0.00000000000E+00  0.64963744060E+02  0.28137531465E+03  0.27377322669E+03 0.  0.
         25    2    3    3    0    0 -0.19363973830E+02  0.12047200760E+00  0.86154195529E+02  0.15309933586E+03  0.12506751471E+03 0.  0.
         25    2    3    3    0    0  0.19363973830E+02 -0.12047200760E+00 -0.21190451469E+02  0.12827597879E+03  0.12502285193E+03 0.  0.
          5    1    4    4  502    0 -0.40321421140E+02 -0.54167683240E+02  0.39559583521E+02  0.78402841522E+02  0.47000000000E+01 0. -1.
         -5    1    4    4    0  502  0.20957447310E+02  0.54288155247E+02  0.46594612008E+02  0.74696494336E+02  0.47000000000E+01 0. -1.
          5    1    5    5  503    0 -0.36999794058E+02 -0.41631688301E+02 -0.14837105834E+02  0.57830890886E+02  0.47000000000E+01 0. -1.
         -5    1    5    5    0  503  0.56363767888E+02  0.41511216293E+02 -0.63533456349E+01  0.70445087902E+02  0.47000000000E+01 0. -1.
<mgrwt>
<rscale>  0 0.27377323E+03</rscale>
<asrwt>0</asrwt>
<pdfrwt beam="1">  1        1 0.26641466E-01 0.27377323E+03</pdfrwt>
<pdfrwt beam="2">  1       -1 0.16647044E-01 0.27377323E+03</pdfrwt>
<totfact> 0.47592208E+03</totfact>
</mgrwt>
</event>
<event>
 9    1  0.7997082E-001  0.2794786E+03  0.7818608E-02  0.1095974E+00
          2   -1    0    0  501    0  0.00000000000E+00  0.00000000000E+00  0.20135408191E+04  0.20135408191E+04  0.00000000000E+00 0. -1.
         -2   -1    0    0    0  501 -0.00000000000E+00 -0.00000000000E+00 -0.96978749039E+01  0.96978749039E+01  0.00000000000E+00 0. -1.
         35    2    1    2    0    0  0.00000000000E+00  0.00000000000E+00  0.20038429442E+04  0.20232386940E+04  0.27947856431E+03 0.  0.
         25    2    3    3    0    0  0.81944127016E+01  0.44223864775E+02  0.70700095887E+03  0.71958224986E+03  0.12619572045E+03 0.  0.
         25    2    3    3    0    0 -0.81944127016E+01 -0.44223864775E+02  0.12968419853E+04  0.13036564441E+04  0.12529202221E+03 0.  0.
          5    1    4    4  502    0 -0.18858346119E+02 -0.21432579467E+02  0.49717073762E+03  0.49801187237E+03  0.47000000000E+01 0.  1.
         -5    1    4    4    0  502  0.27052758821E+02  0.65656444242E+02  0.20983022125E+03  0.22157037749E+03  0.47000000000E+01 0.  1.
          5    1    5    5  503    0  0.31470428042E+01 -0.78798632702E+02  0.11332632797E+04  0.11360135912E+04  0.47000000000E+01 0.  1.
         -5    1    5    5    0  503 -0.11341455506E+02  0.34574767927E+02  0.16357870562E+03  0.16764285288E+03  0.47000000000E+01 0.  1.
<mgrwt>
<rscale>  0 0.27947856E+03</rscale>
<asrwt>0</asrwt>
<pdfrwt beam="1">  1        2 0.30977518E+00 0.27947856E+03</pdfrwt>
<pdfrwt beam="2">  1       -2 0.14919824E-02 0.27947856E+03</pdfrwt>
<totfact> 0.86919713E+03</totfact>
</mgrwt>
</event>
<event>
 9    1  0.7997082E-001  0.2747724E+03  0.7818608E-02  0.1098579E+00
          2   -1    0    0  501    0  0.00000000000E+00  0.00000000000E+00  0.75861787880E+03  0.75861787880E+03  0.00000000000E+00 0. -1.
         -2   -1    0    0    0  501 -0.00000000000E+00 -0.00000000000E+00 -0.24880729223E+02  0.24880729223E+02  0.00000000000E+00 0. -1.
         35    2    1    2    0    0 -0.88817841970E-15 -0.71054273576E-14  0.73373714958E+03  0.78349860802E+03  0.27477238600E+03 0.  0.
         25    2    3    3    0    0  0.42698748653E+01  0.26948624985E+02  0.52208593375E+03  0.53659544650E+03  0.12089867974E+03 0.  0.
         25    2    3    3    0    0 -0.42698748653E+01 -0.26948624985E+02  0.21165121583E+03  0.24690316153E+03  0.12417920031E+03 0.  0.
          5    1    4    4  502    0 -0.46682113160E+01  0.59626037889E+02  0.13177457172E+03  0.14478841232E+03  0.47000000000E+01 0.  1.
         -5    1    4    4    0  502  0.89380861813E+01 -0.32677412904E+02  0.39031136203E+03  0.39180703418E+03  0.47000000000E+01 0.  1.
          5    1    5    5  503    0 -0.11304535917E+01 -0.66792640972E+02  0.18946053607E+03  0.20094755421E+03  0.47000000000E+01 0. -1.
         -5    1    5    5    0  503 -0.31394212736E+01  0.39844015987E+02  0.22190679753E+02  0.45955607316E+02  0.47000000000E+01 0. -1.
<mgrwt>
<rscale>  0 0.27477239E+03</rscale>
<asrwt>0</asrwt>
<pdfrwt beam="1">  1        2 0.11671043E+00 0.27477239E+03</pdfrwt>
<pdfrwt beam="2">  1       -2 0.38278051E-02 0.27477239E+03</pdfrwt>
<totfact> 0.11107260E+04</totfact>
</mgrwt>
</event>
<event>
 9    1  0.7997082E-001  0.2742520E+03  0.7818608E-02  0.1098870E+00
         -4   -1    0    0    0  501 -0.00000000000E+00  0.00000000000E+00  0.88350707877E+03  0.88350707877E+03  0.00000000000E+00 0.  1.
          4   -1    0    0  501    0  0.00000000000E+00 -0.00000000000E+00 -0.21282840197E+02  0.21282840197E+02  0.00000000000E+00 0.  1.
         35    2    1    2    0    0  0.00000000000E+00  0.15543122345E-14  0.86222423857E+03  0.90478991896E+03  0.27425200069E+03 0.  0.
         25    2    3    3    0    0 -0.39379326058E+02  0.16570092668E+00  0.29469369076E+03  0.32249788108E+03  0.12493899772E+03 0.  0.
         25    2    3    3    0    0  0.39379326058E+02 -0.16570092668E+00  0.56753054781E+03  0.58229203788E+03  0.12418669777E+03 0.  0.
          5    1    4    4  502    0 -0.39978587313E+02 -0.29766755089E+02  0.35103783445E+02  0.61145014222E+02  0.47000000000E+01 0.  1.
         -5    1    4    4    0  502  0.59926125498E+00  0.29932456016E+02  0.25958990731E+03  0.26135286686E+03  0.47000000000E+01 0.  1.
          5    1    5    5  503    0 -0.39095661432E+02  0.10695745300E+01  0.32394878788E+03  0.32633498418E+03  0.47000000000E+01 0. -1.
         -5    1    5    5    0  503  0.78474987489E+02 -0.12352754567E+01  0.24358175993E+03  0.25595705370E+03  0.47000000000E+01 0. -1.
<mgrwt>
<rscale>  0 0.27425200E+03</rscale>
<asrwt>0</asrwt>
<pdfrwt beam="1">  1        4 0.32742838E-02 0.27425200E+03</pdfrwt>
<pdfrwt beam="2">  1       -4 0.13592414E+00 0.27425200E+03</pdfrwt>
<totfact> 0.35752355E+02</totfact>
</mgrwt>
</event>
<event>
 9    1  0.7997082E-001  0.2764173E+03  0.7818608E-02  0.1097662E+00
         -4   -1    0    0    0  501 -0.00000000000E+00  0.00000000000E+00  0.18231516748E+03  0.18231516748E+03  0.00000000000E+00 0. -1.
          4   -1    0    0  501    0  0.00000000000E+00 -0.00000000000E+00 -0.10477256509E+03  0.10477256509E+03  0.00000000000E+00 0. -1.
         35    2    1    2    0    0  0.35527136788E-14 -0.71054273576E-14  0.77542602390E+02  0.28708773256E+03  0.27641727696E+03 0.  0.
         25    2    3    3    0    0  0.12189596238E+02  0.55456188756E+02  0.50757775785E+02  0.14704629171E+03  0.12578666454E+03 0.  0.
         25    2    3    3    0    0 -0.12189596238E+02 -0.55456188756E+02  0.26784826605E+02  0.14004144086E+03  0.12518068179E+03 0.  0.
          5    1    4    4  502    0  0.32801835700E+02  0.81409815530E+02  0.20182888250E+01  0.87918609973E+02  0.47000000000E+01 0. -1.
         -5    1    4    4    0  502 -0.20612239462E+02 -0.25953626774E+02  0.48739486960E+02  0.59127681736E+02  0.47000000000E+01 0. -1.
          5    1    5    5  503    0 -0.66320780110E+02 -0.23755621933E+02  0.30752243423E+02  0.77010167662E+02  0.47000000000E+01 0. -1.
         -5    1    5    5    0  503  0.54131183872E+02 -0.31700566823E+02 -0.39674168181E+01  0.63031273194E+02  0.47000000000E+01 0. -1.
<mgrwt>
<rscale>  0 0.27641728E+03</rscale>
<asrwt>0</asrwt>
<pdfrwt beam="1">  1        4 0.16118856E-01 0.27641728E+03</pdfrwt>
<pdfrwt beam="2">  1       -4 0.28048487E-01 0.27641728E+03</pdfrwt>
<totfact> 0.75250142E+02</totfact>
</mgrwt>
</event>
<event>
 9    1  0.7997082E-001  0.2750248E+03  0.7818608E-02  0.1098438E+00
         -1   -1    0    0    0  501 -0.00000000000E+00  0.00000000000E+00  0.61369793535E+02  0.61369793535E+02  0.00000000000E+00 0. -1.
          1   -1    0    0  501    0  0.00000000000E+00 -0.00000000000E+00 -0.30812658113E+03  0.30812658113E+03  0.00000000000E+00 0. -1.
         35    2    1    2    0    0  0.71054273576E-14  0.71054273576E-14 -0.24675678760E+03  0.36949637467E+03  0.27502483282E+03 0.  0.
         25    2    3    3    0    0  0.24830054855E+02 -0.93928924121E+01 -0.19471477354E+03  0.23169897608E+03  0.12274287934E+03 0.  0.
         25    2    3    3    0    0 -0.24830054855E+02  0.93928924121E+01 -0.52042014055E+02  0.13779739859E+03  0.12479981482E+03 0.  0.
          5    1    4    4  502    0  0.32362333493E+02 -0.56175355170E+02 -0.58674779648E+02  0.87566037505E+02  0.47000000000E+01 0. -1.
         -5    1    4    4    0  502 -0.75322786381E+01  0.46782462758E+02 -0.13603999390E+03  0.14413293858E+03  0.47000000000E+01 0. -1.
          5    1    5    5  503    0  0.58788217051E+01  0.60504289585E+02 -0.48450822996E+02  0.77877479748E+02  0.47000000000E+01 0.  1.
         -5    1    5    5    0  503 -0.30708876560E+02 -0.51111397173E+02 -0.35911910592E+01  0.59919918840E+02  0.47000000000E+01 0.  1.
<mgrwt>
<rscale>  0 0.27502483E+03</rscale>
<asrwt>0</asrwt>
<pdfrwt beam="1">  1        1 0.47404090E-01 0.27502483E+03</pdfrwt>
<pdfrwt beam="2">  1       -1 0.94415066E-02 0.27502483E+03</pdfrwt>
<totfact> 0.56078080E+03</totfact>
</mgrwt>
</event>
<event>
 9    1  0.7997082E-001  0.2779163E+03  0.7818608E-02  0.1096832E+00
         -1   -1    0    0    0  501 -0.00000000000E+00  0.00000000000E+00  0.19251340316E+02  0.19251340316E+02  0.00000000000E+00 0.  1.
          1   -1    0    0  501    0  0.00000000000E+00 -0.00000000000E+00 -0.10030143798E+04  0.10030143798E+04  0.00000000000E+00 0.  1.
         35    2    1    2    0    0  0.00000000000E+00  0.00000000000E+00 -0.98376303951E+03  0.10222657201E+04  0.27791632675E+03 0.  0.
         25    2    3    3    0    0  0.13769248559E+02  0.21805915855E+02 -0.29255609611E+03  0.31927141583E+03  0.12522011589E+03 0.  0.
         25    2    3    3    0    0 -0.13769248559E+02 -0.21805915855E+02 -0.69120694340E+03  0.70299430431E+03  0.12557413396E+03 0.  0.
          5    1    4    4  502    0  0.12591317291E+02 -0.50566469353E+02 -0.89792548606E+02  0.10392449605E+03  0.47000000000E+01 0. -1.
         -5    1    4    4    0  502  0.11779312679E+01  0.72372385208E+02 -0.20276354751E+03  0.21534691979E+03  0.47000000000E+01 0. -1.
          5    1    5    5  503    0  0.42590469024E+02  0.28854579855E+02 -0.31408109950E+03  0.31830105544E+03  0.47000000000E+01 0.  1.
         -5    1    5    5    0  503 -0.56359717583E+02 -0.50660495710E+02 -0.37712584390E+03  0.38469324887E+03  0.47000000000E+01 0.  1.
<mgrwt>
<rscale>  0 0.27791633E+03</rscale>
<asrwt>0</asrwt>
<pdfrwt beam="1">  1        1 0.15430989E+00 0.27791633E+03</pdfrwt>
<pdfrwt beam="2">  1       -1 0.29617449E-02 0.27791633E+03</pdfrwt>
<totfact> 0.61134176E+03</totfact>
</mgrwt>
</event>
<event>
 9    1  0.7997082E-001  0.2827716E+03  0.7818608E-02  0.1094185E+00
         -2   -1    0    0    0  501 -0.00000000000E+00  0.00000000000E+00  0.27986970661E+02  0.27986970661E+02  0.00000000000E+00 0.  1.
          2   -1    0    0  501    0  0.00000000000E+00 -0.00000000000E+00 -0.71425912895E+03  0.71425912895E+03  0.00000000000E+00 0.  1.
         35    2    1    2    0    0  0.00000000000E+00  0.71054273576E-14 -0.68627215829E+03  0.74224609961E+03  0.28277163427E+03 0.  0.
         25    2    3    3    0    0 -0.20789140044E+00 -0.63537876570E+02 -0.39120133446E+03  0.41549619582E+03  0.12474574012E+03 0.  0.
         25    2    3    3    0    0  0.20789140044E+00  0.63537876570E+02 -0.29507082383E+03  0.32674990379E+03  0.12514632866E+03 0.  0.
          5    1    4    4  502    0  0.24332167727E+01 -0.89472653591E+02 -0.16520088657E+03  0.18794866110E+03  0.47000000000E+01 0.  1.
         -5    1    4    4    0  502 -0.26411081731E+01  0.25934777021E+02 -0.22600044788E+03  0.22754753472E+03  0.47000000000E+01 0.  1.
          5    1    5    5  503    0 -0.19377545393E+02  0.33181213534E+02 -0.10849156767E+02  0.40202940186E+02  0.47000000000E+01 0.  1.
         -5    1    5    5    0  503  0.19585436794E+02  0.30356663036E+02 -0.28422166706E+03  0.28654696361E+03  0.47000000000E+01 0.  1.
<mgrwt>
<rscale>  0 0.28277163E+03</rscale>
<asrwt>0</asrwt>
<pdfrwt beam="1">  1        2 0.10988602E+00 0.28277163E+03</pdfrwt>
<pdfrwt beam="2">  1       -2 0.43056879E-02 0.28277163E+03</pdfrwt>
<totfact> 0.10032776E+04</totfact>
</mgrwt>
</event>
<event>
 8    1  0.7997082E-001  0.4236189E+03  0.7818608E-02  0.1035895E+00
         -1   -1    0    0    0  501 -0.00000000000E+00  0.00000000000E+00  0.78348084286E+02  0.78348084286E+02  0.00000000000E+00 0.  1.
          1   -1    0    0  501    0  0.00000000000E+00 -0.00000000000E+00 -0.57261432550E+03  0.57261432550E+03  0.00000000000E+00 0.  1.
         25    2    1    2    0    0  0.15374872768E+02  0.16054374004E+03 -0.16144276144E+03  0.26004451084E+03  0.12469443940E+03 0.  0.
         25    2    1    2    0    0 -0.15374872768E+02 -0.16054374004E+03 -0.33282347977E+03  0.39091789894E+03  0.12662802157E+03 0.  0.
          5    1    3    3  502    0  0.38490239413E+01  0.17961030146E+03 -0.15207795146E+03  0.23542401894E+03  0.47000000000E+01 0.  1.
         -5    1    3    3    0  502  0.11525848827E+02 -0.19066561415E+02 -0.93648099817E+01  0.24620491899E+02  0.47000000000E+01 0.  1.
          5    1    4    4  503    0 -0.57702077935E+02 -0.13277906450E+03 -0.29110856676E+03  0.32515549727E+03  0.47000000000E+01 0.  1.
         -5    1    4    4    0  503  0.42327205167E+02 -0.27764675547E+02 -0.41714913008E+02  0.65762401665E+02  0.47000000000E+01 0.  1.
<mgrwt>
<rscale>  0 0.42361886E+03</rscale>
<asrwt>0</asrwt>
<pdfrwt beam="1">  1        1 0.88094513E-01 0.42361886E+03</pdfrwt>
<pdfrwt beam="2">  1       -1 0.12053551E-01 0.42361886E+03</pdfrwt>
<totfact> 0.17135033E+03</totfact>
</mgrwt>
</event>
<event>
 9    1  0.7997082E-001  0.2745731E+03  0.7818608E-02  0.1098690E+00
         -2   -1    0    0    0  501 -0.00000000000E+00  0.00000000000E+00  0.73269317662E+01  0.73269317662E+01  0.00000000000E+00 0.  1.
          2   -1    0    0  501    0  0.00000000000E+00 -0.00000000000E+00 -0.25723724940E+04  0.25723724940E+04  0.00000000000E+00 0.  1.
         35    2    1    2    0    0  0.71054273576E-14  0.35527136788E-14 -0.25650455622E+04  0.25796994257E+04  0.27457310677E+03 0.  0.
         25    2    3    3    0    0  0.39866192236E+02 -0.26639760669E+02 -0.15529673027E+04  0.15587017975E+04  0.12467902825E+03 0.  0.
         25    2    3    3    0    0 -0.39866192236E+02  0.26639760669E+02 -0.10120782595E+04  0.10209976283E+04  0.12583625634E+03 0.  0.
          5    1    4    4  502    0 -0.11736232552E+02  0.26889495769E+02 -0.10327127969E+04  0.10331401623E+04  0.47000000000E+01 0. -1.
         -5    1    4    4    0  502  0.51602424788E+02 -0.53529256438E+02 -0.52025450582E+03  0.52556163517E+03  0.47000000000E+01 0. -1.
          5    1    5    5  503    0 -0.36944711972E+02  0.33495439946E+02 -0.13691123936E+03  0.14578626034E+03  0.47000000000E+01 0.  1.
         -5    1    5    5    0  503 -0.29214802648E+01 -0.68556792773E+01 -0.87516702016E+03  0.87521136793E+03  0.47000000000E+01 0.  1.
<mgrwt>
<rscale>  0 0.27457311E+03</rscale>
<asrwt>0</asrwt>
<pdfrwt beam="1">  1        2 0.39575022E+00 0.27457311E+03</pdfrwt>
<pdfrwt beam="2">  1       -2 0.11272185E-02 0.27457311E+03</pdfrwt>
<totfact> 0.65532034E+03</totfact>
</mgrwt>
</event>
<event>
 9    1  0.7997082E-001  0.2784178E+03  0.7818608E-02  0.1096556E+00
         -1   -1    0    0    0  501 -0.00000000000E+00  0.00000000000E+00  0.57256823897E+02  0.57256823897E+02  0.00000000000E+00 0. -1.
          1   -1    0    0  501    0  0.00000000000E+00 -0.00000000000E+00 -0.33845948791E+03  0.33845948791E+03  0.00000000000E+00 0. -1.
         35    2    1    2    0    0  0.00000000000E+00  0.35527136788E-14 -0.28120266402E+03  0.39571631181E+03  0.27841778173E+03 0.  0.
         25    2    3    3    0    0  0.50243338082E+02  0.30614249871E+02 -0.12549954709E+03  0.18728277190E+03  0.12594869994E+03 0.  0.
         25    2    3    3    0    0 -0.50243338082E+02 -0.30614249871E+02 -0.15570311693E+03  0.20843353991E+03  0.12545698315E+03 0.  0.
          5    1    4    4  502    0  0.42432583546E+02  0.78683491511E+02 -0.72910380153E+02  0.11545401473E+03  0.47000000000E+01 0. -1.
         -5    1    4    4    0  502  0.78107545352E+01 -0.48069241640E+02 -0.52589166938E+02  0.71828757176E+02  0.47000000000E+01 0. -1.
          5    1    5    5  503    0  0.26598939309E+02 -0.38538128596E+02 -0.17833445116E+02  0.50327057263E+02  0.47000000000E+01 0. -1.
         -5    1    5    5    0  503 -0.76842277391E+02  0.79238787255E+01 -0.13786967181E+03  0.15810648264E+03  0.47000000000E+01 0. -1.
<mgrwt>
<rscale>  0 0.27841778E+03</rscale>
<asrwt>0</asrwt>
<pdfrwt beam="1">  1        1 0.52070691E-01 0.27841778E+03</pdfrwt>
<pdfrwt beam="2">  1       -1 0.88087421E-02 0.27841778E+03</pdfrwt>
<totfact> 0.55441461E+03</totfact>
</mgrwt>
</event>
<event>
 9    1  0.7997082E-001  0.2752888E+03  0.7818608E-02  0.1098290E+00
          1   -1    0    0  501    0  0.00000000000E+00  0.00000000000E+00  0.85019271676E+03  0.85019271676E+03  0.00000000000E+00 0. -1.
         -1   -1    0    0    0  501 -0.00000000000E+00 -0.00000000000E+00 -0.22284332528E+02  0.22284332528E+02  0.00000000000E+00 0. -1.
         35    2    1    2    0    0  0.71054273576E-14  0.35527136788E-14  0.82790838423E+03  0.87247704929E+03  0.27528877357E+03 0.  0.
         25    2    3    3    0    0 -0.53530523766E+02 -0.21661667215E+02  0.42097247790E+03  0.44290838938E+03  0.12496107164E+03 0.  0.
         25    2    3    3    0    0  0.53530523766E+02  0.21661667215E+02  0.40693590633E+03  0.42956865991E+03  0.12489057978E+03 0.  0.
          5    1    4    4  502    0 -0.78530629164E+02 -0.45759724534E+02  0.37016736359E+03  0.38119152558E+03  0.47000000000E+01 0. -1.
         -5    1    4    4    0  502  0.25000105398E+02  0.24098057319E+02  0.50805114312E+02  0.61716863795E+02  0.47000000000E+01 0. -1.
          5    1    5    5  503    0  0.71144039608E+02 -0.24625916986E+02  0.15042949097E+03  0.16828259539E+03  0.47000000000E+01 0. -1.
         -5    1    5    5    0  503 -0.17613515841E+02  0.46287584201E+02  0.25650641536E+03  0.26128606452E+03  0.47000000000E+01 0. -1.
<mgrwt>
<rscale>  0 0.27528877E+03</rscale>
<asrwt>0</asrwt>
<pdfrwt beam="1">  1        1 0.13079885E+00 0.27528877E+03</pdfrwt>
<pdfrwt beam="2">  1       -1 0.34283595E-02 0.27528877E+03</pdfrwt>
<totfact> 0.64694836E+03</totfact>
</mgrwt>
</event>
<event>
 9    1  0.7997082E-001  0.2831570E+03  0.7818608E-02  0.1093977E+00
         -2   -1    0    0    0  501 -0.00000000000E+00  0.00000000000E+00  0.14753818743E+03  0.14753818743E+03  0.00000000000E+00 0. -1.
          2   -1    0    0  501    0  0.00000000000E+00 -0.00000000000E+00 -0.13585952754E+03  0.13585952754E+03  0.00000000000E+00 0. -1.
         35    2    1    2    0    0  0.00000000000E+00 -0.17763568394E-14  0.11678659886E+02  0.28339771497E+03  0.28315697723E+03 0.  0.
         25    2    3    3    0    0  0.59750011736E+02 -0.14002445754E+02  0.42746902896E+02  0.14241463839E+03  0.12119611847E+03 0.  0.
         25    2    3    3    0    0 -0.59750011736E+02  0.14002445754E+02 -0.31068243010E+02  0.14098307657E+03  0.12306445371E+03 0.  0.
          5    1    4    4  502    0 -0.10873546980E+02  0.35640614296E+02 -0.12771554839E+02  0.39669762091E+02  0.47000000000E+01 0.  1.
         -5    1    4    4    0  502  0.70623558717E+02 -0.49643060050E+02  0.55518457735E+02  0.10274487630E+03  0.47000000000E+01 0.  1.
          5    1    5    5  503    0  0.36354292475E+02  0.15888893474E+02 -0.18152007999E+02  0.43882535383E+02  0.47000000000E+01 0.  1.
         -5    1    5    5    0  503 -0.96104304212E+02 -0.18864477200E+01 -0.12916235011E+02  0.97100541192E+02  0.47000000000E+01 0.  1.
<mgrwt>
<rscale>  0 0.28315698E+03</rscale>
<asrwt>0</asrwt>
<pdfrwt beam="1">  1        2 0.20901466E-01 0.28315698E+03</pdfrwt>
<pdfrwt beam="2">  1       -2 0.22698183E-01 0.28315698E+03</pdfrwt>
<totfact> 0.44283446E+03</totfact>
</mgrwt>
</event>
<event>
 9    1  0.7997082E-001  0.2741041E+03  0.7818608E-02  0.1098953E+00
          1   -1    0    0  501    0  0.00000000000E+00  0.00000000000E+00  0.22137532667E+03  0.22137532667E+03  0.00000000000E+00 0. -1.
         -1   -1    0    0    0  501 -0.00000000000E+00 -0.00000000000E+00 -0.84848032957E+02  0.84848032957E+02  0.00000000000E+00 0. -1.
         35    2    1    2    0    0  0.00000000000E+00  0.00000000000E+00  0.13652729371E+03  0.30622335962E+03  0.27410407522E+03 0.  0.
         25    2    3    3    0    0  0.12230772720E+02  0.71810015879E+01  0.54549776622E+01  0.12578648039E+03  0.12486522047E+03 0.  0.
         25    2    3    3    0    0 -0.12230772720E+02 -0.71810015879E+01  0.13107231605E+03  0.18043687923E+03  0.12319235677E+03 0.  0.
          5    1    4    4  502    0  0.29620184395E+02  0.54854051140E+02 -0.23951291334E+02  0.66948312949E+02  0.47000000000E+01 0.  1.
         -5    1    4    4    0  502 -0.17389411675E+02 -0.47673049553E+02  0.29406268996E+02  0.58838167445E+02  0.47000000000E+01 0.  1.
          5    1    5    5  503    0  0.37112586441E+02 -0.44865539582E+02  0.42813154925E+02  0.72424560399E+02  0.47000000000E+01 0. -1.
         -5    1    5    5    0  503 -0.49343359162E+02  0.37684537994E+02  0.88259161120E+02  0.10801231883E+03  0.47000000000E+01 0. -1.
<mgrwt>
<rscale>  0 0.27410408E+03</rscale>
<asrwt>0</asrwt>
<pdfrwt beam="1">  1        1 0.34057742E-01 0.27410408E+03</pdfrwt>
<pdfrwt beam="2">  1       -1 0.13053544E-01 0.27410408E+03</pdfrwt>
<totfact> 0.51324265E+03</totfact>
</mgrwt>
</event>
<event>
 9    1  0.7997082E-001  0.2730579E+03  0.7818608E-02  0.1099542E+00
          1   -1    0    0  501    0  0.00000000000E+00  0.00000000000E+00  0.30928935272E+02  0.30928935272E+02  0.00000000000E+00 0.  1.
         -1   -1    0    0    0  501 -0.00000000000E+00 -0.00000000000E+00 -0.60267684587E+03  0.60267684587E+03  0.00000000000E+00 0.  1.
         35    2    1    2    0    0  0.71054273576E-14  0.00000000000E+00 -0.57174791060E+03  0.63360578114E+03  0.27305789244E+03 0.  0.
         25    2    3    3    0    0 -0.49737993499E+02  0.96428237068E+01 -0.24048575849E+03  0.27595018059E+03  0.12549203195E+03 0.  0.
         25    2    3    3    0    0  0.49737993499E+02 -0.96428237068E+01 -0.33126215211E+03  0.35765560055E+03  0.12496424746E+03 0.  0.
          5    1    4    4  502    0 -0.79040601220E+02  0.31490902917E+02 -0.10335051060E+03  0.13394966088E+03  0.47000000000E+01 0. -1.
         -5    1    4    4    0  502  0.29302607721E+02 -0.21848079210E+02 -0.13713524788E+03  0.14200051971E+03  0.47000000000E+01 0. -1.
          5    1    5    5  503    0  0.39438777303E+02 -0.23453087335E+02 -0.33602335057E+03  0.33917436016E+03  0.47000000000E+01 0. -1.
         -5    1    5    5    0  503  0.10299216196E+02  0.13810263628E+02  0.47611984625E+01  0.18481240395E+02  0.47000000000E+01 0. -1.
<mgrwt>
<rscale>  0 0.27305789E+03</rscale>
<asrwt>0</asrwt>
<pdfrwt beam="1">  1        1 0.47582976E-02 0.27305789E+03</pdfrwt>
<pdfrwt beam="2">  1       -1 0.92719517E-01 0.27305789E+03</pdfrwt>
<totfact> 0.21210557E+03</totfact>
</mgrwt>
</event>
<event>
 9    1  0.7997082E-001  0.2733744E+03  0.7818608E-02  0.1099364E+00
          2   -1    0    0  501    0  0.00000000000E+00  0.00000000000E+00  0.11287745020E+02  0.11287745020E+02  0.00000000000E+00 0. -1.
         -2   -1    0    0    0  501 -0.00000000000E+00 -0.00000000000E+00 -0.16551923109E+04  0.16551923109E+04  0.00000000000E+00 0. -1.
         35    2    1    2    0    0  0.00000000000E+00  0.71054273576E-14 -0.16439045659E+04  0.16664800560E+04  0.27337438626E+03 0.  0.
         25    2    3    3    0    0  0.16338057068E+02 -0.51429390419E+02 -0.94958948778E+03  0.95895994494E+03  0.12236039555E+03 0.  0.
         25    2    3    3    0    0 -0.16338057068E+02  0.51429390419E+02 -0.69431507813E+03  0.70752011101E+03  0.12489741971E+03 0.  0.
          5    1    4    4  502    0 -0.37328694663E+02 -0.12640563646E+02 -0.68573964716E+03  0.68688730442E+03  0.47000000000E+01 0. -1.
         -5    1    4    4    0  502  0.53666751730E+02 -0.38788826773E+02 -0.26384984062E+03  0.27207264052E+03  0.47000000000E+01 0. -1.
          5    1    5    5  503    0 -0.45444504127E+02  0.37703598075E+02 -0.13700917867E+03  0.14926610232E+03  0.47000000000E+01 0.  1.
         -5    1    5    5    0  503  0.29106447060E+02  0.13725792344E+02 -0.55730589947E+03  0.55825400869E+03  0.47000000000E+01 0.  1.
<mgrwt>
<rscale>  0 0.27337439E+03</rscale>
<asrwt>0</asrwt>
<pdfrwt beam="1">  1        2 0.17365754E-02 0.27337439E+03</pdfrwt>
<pdfrwt beam="2">  1       -2 0.25464508E+00 0.27337439E+03</pdfrwt>
<totfact> 0.44880348E+02</totfact>
</mgrwt>
</event>
<event>
 9    1  0.7997082E-001  0.2723814E+03  0.7818608E-02  0.1099924E+00
         -1   -1    0    0    0  501 -0.00000000000E+00  0.00000000000E+00  0.68396401378E+02  0.68396401378E+02  0.00000000000E+00 0.  1.
          1   -1    0    0  501    0  0.00000000000E+00 -0.00000000000E+00 -0.27118245819E+03  0.27118245819E+03  0.00000000000E+00 0.  1.
         35    2    1    2    0    0  0.00000000000E+00 -0.71054273576E-14 -0.20278605681E+03  0.33957885956E+03  0.27238138157E+03 0.  0.
         25    2    3    3    0    0  0.20565189380E+02  0.48857329644E+02 -0.11776328872E+03  0.17932525874E+03  0.12441619902E+03 0.  0.
         25    2    3    3    0    0 -0.20565189380E+02 -0.48857329644E+02 -0.85022768085E+02  0.16025360082E+03  0.12506949992E+03 0.  0.
          5    1    4    4  502    0  0.87712359359E+01  0.82766048184E+02 -0.11629673646E+03  0.14308799468E+03  0.47000000000E+01 0.  1.
         -5    1    4    4    0  502  0.11793953445E+02 -0.33908718540E+02 -0.14665522633E+01  0.36237264058E+02  0.47000000000E+01 0.  1.
          5    1    5    5  503    0  0.33030113969E+02 -0.14474098061E+01 -0.81933617679E+02  0.88477630675E+02  0.47000000000E+01 0.  1.
         -5    1    5    5    0  503 -0.53595303350E+02 -0.47409919838E+02 -0.30891504067E+01  0.71775970146E+02  0.47000000000E+01 0.  1.
<mgrwt>
<rscale>  0 0.27238138E+03</rscale>
<asrwt>0</asrwt>
<pdfrwt beam="1">  1        1 0.41720377E-01 0.27238138E+03</pdfrwt>
<pdfrwt beam="2">  1       -1 0.10522523E-01 0.27238138E+03</pdfrwt>
<totfact> 0.55667099E+03</totfact>
</mgrwt>
</event>
<event>
 9    1  0.7997082E-001  0.2858875E+03  0.7818608E-02  0.1092516E+00
         -2   -1    0    0    0  501 -0.00000000000E+00  0.00000000000E+00  0.30877140043E+02  0.30877140043E+02  0.00000000000E+00 0. -1.
          2   -1    0    0  501    0  0.00000000000E+00 -0.00000000000E+00 -0.66174908499E+03  0.66174908499E+03  0.00000000000E+00 0. -1.
         35    2    1    2    0    0  0.35527136788E-14  0.00000000000E+00 -0.63087194494E+03  0.69262622503E+03  0.28588752453E+03 0.  0.
         25    2    3    3    0    0 -0.17595898349E+02 -0.41639717935E+02 -0.21336951908E+03  0.25142001865E+03  0.12506795097E+03 0.  0.
         25    2    3    3    0    0  0.17595898349E+02  0.41639717935E+02 -0.41750242587E+03  0.44120620638E+03  0.13531873187E+03 0.  0.
          5    1    4    4  502    0  0.42148442510E+02  0.19230487936E+02 -0.90467147726E+02  0.10174820731E+03  0.47000000000E+01 0. -1.
         -5    1    4    4    0  502 -0.59744340859E+02 -0.60870205871E+02 -0.12290237135E+03  0.14967181134E+03  0.47000000000E+01 0. -1.
          5    1    5    5  503    0  0.12688180059E+02  0.28980677703E+02 -0.10085757583E+02  0.33536280345E+02  0.47000000000E+01 0. -1.
         -5    1    5    5    0  503  0.49077182907E+01  0.12659040232E+02 -0.40741666828E+03  0.40766992603E+03  0.47000000000E+01 0. -1.
<mgrwt>
<rscale>  0 0.28588752E+03</rscale>
<asrwt>0</asrwt>
<pdfrwt beam="1">  1        2 0.10180755E+00 0.28588752E+03</pdfrwt>
<pdfrwt beam="2">  1       -2 0.47503291E-02 0.28588752E+03</pdfrwt>
<totfact> 0.94849974E+03</totfact>
</mgrwt>
</event>
<event>
 9    1  0.7997082E-001  0.2738019E+03  0.7818608E-02  0.1099123E+00
         -2   -1    0    0    0  501 -0.00000000000E+00  0.00000000000E+00  0.40404752200E+03  0.40404752200E+03  0.00000000000E+00 0. -1.
          2   -1    0    0  501    0  0.00000000000E+00 -0.00000000000E+00 -0.46385303668E+02  0.46385303668E+02  0.00000000000E+00 0. -1.
         35    2    1    2    0    0  0.00000000000E+00 -0.35527136788E-14  0.35766221833E+03  0.45043282567E+03  0.27380187731E+03 0.  0.
         25    2    3    3    0    0  0.14177660635E+02 -0.28332083787E+02  0.10299304795E+03  0.16521006464E+03  0.12523212248E+03 0.  0.
         25    2    3    3    0    0 -0.14177660635E+02  0.28332083787E+02  0.25466917038E+03  0.28522276103E+03  0.12446655789E+03 0.  0.
          5    1    4    4  502    0 -0.48688469025E+02 -0.16557698969E+02  0.83504578701E+02  0.98182631230E+02  0.47000000000E+01 0. -1.
         -5    1    4    4    0  502  0.62866129660E+02 -0.11774384818E+02  0.19488469252E+02  0.67027433414E+02  0.47000000000E+01 0. -1.
          5    1    5    5  503    0 -0.50058160895E+02  0.60515247894E+02  0.13711198954E+03  0.15808131571E+03  0.47000000000E+01 0.  1.
         -5    1    5    5    0  503  0.35880500260E+02 -0.32183164107E+02  0.11755718084E+03  0.12714144532E+03  0.47000000000E+01 0.  1.
<mgrwt>
<rscale>  0 0.27380188E+03</rscale>
<asrwt>0</asrwt>
<pdfrwt beam="1">  1        2 0.71362008E-02 0.27380188E+03</pdfrwt>
<pdfrwt beam="2">  1       -2 0.62161155E-01 0.27380188E+03</pdfrwt>
<totfact> 0.24123672E+03</totfact>
</mgrwt>
</event>
<event>
 9    1  0.7997082E-001  0.2737453E+03  0.7818608E-02  0.1099155E+00
          1   -1    0    0  501    0  0.00000000000E+00  0.00000000000E+00  0.27700584069E+03  0.27700584069E+03  0.00000000000E+00 0. -1.
         -1   -1    0    0    0  501 -0.00000000000E+00 -0.00000000000E+00 -0.67630772469E+02  0.67630772469E+02  0.00000000000E+00 0. -1.
         35    2    1    2    0    0 -0.71054273576E-14  0.17763568394E-14  0.20937506822E+03  0.34463661316E+03  0.27374527565E+03 0.  0.
         25    2    3    3    0    0 -0.53508948320E+02  0.19183898724E+01  0.12107402497E+03  0.18226396008E+03  0.12527706834E+03 0.  0.
         25    2    3    3    0    0  0.53508948320E+02 -0.19183898724E+01  0.88301043258E+02  0.16237265309E+03  0.12530329788E+03 0.  0.
          5    1    4    4  502    0 -0.38816296567E+02 -0.52410795262E+02  0.10473522559E+03  0.12347126718E+03  0.47000000000E+01 0. -1.
         -5    1    4    4    0  502 -0.14692651753E+02  0.54329185135E+02  0.16338799376E+02  0.58792692896E+02  0.47000000000E+01 0. -1.
          5    1    5    5  503    0  0.34407438301E+01 -0.47087204419E+01 -0.31519399392E+02  0.32397118766E+02  0.47000000000E+01 0. -1.
         -5    1    5    5    0  503  0.50068204490E+02  0.27903305695E+01  0.11982044265E+03  0.12997553432E+03  0.47000000000E+01 0. -1.
<mgrwt>
<rscale>  0 0.27374528E+03</rscale>
<asrwt>0</asrwt>
<pdfrwt beam="1">  1        1 0.42616282E-01 0.27374528E+03</pdfrwt>
<pdfrwt beam="2">  1       -1 0.10404734E-01 0.27374528E+03</pdfrwt>
<totfact> 0.55165485E+03</totfact>
</mgrwt>
</event>
<event>
 9    1  0.7997082E-001  0.2752219E+03  0.7818608E-02  0.1098328E+00
          2   -1    0    0  501    0  0.00000000000E+00  0.00000000000E+00  0.37034609814E+03  0.37034609814E+03  0.00000000000E+00 0.  1.
         -2   -1    0    0    0  501 -0.00000000000E+00 -0.00000000000E+00 -0.51132652317E+02  0.51132652317E+02  0.00000000000E+00 0.  1.
         35    2    1    2    0    0  0.71054273576E-14  0.71054273576E-14  0.31921344583E+03  0.42147875046E+03  0.27522193425E+03 0.  0.
         25    2    3    3    0    0  0.22768451736E+02  0.42213757057E+01  0.25241143012E+03  0.27753788968E+03  0.11304657335E+03 0.  0.
         25    2    3    3    0    0 -0.22768451736E+02 -0.42213757057E+01  0.66802015710E+02  0.14394086078E+03  0.12538038001E+03 0.  0.
          5    1    4    4  502    0 -0.23035745030E+02 -0.37048402184E+02  0.53252311011E+02  0.69000929570E+02  0.47000000000E+01 0.  1.
         -5    1    4    4    0  502  0.45804196766E+02  0.41269777889E+02  0.19915911911E+03  0.20853696011E+03  0.47000000000E+01 0.  1.
          5    1    5    5  503    0 -0.51046462021E+02 -0.51161558694E+02  0.40409028694E+02  0.82935070826E+02  0.47000000000E+01 0.  1.
         -5    1    5    5    0  503  0.28278010285E+02  0.46940182988E+02  0.26392987016E+02  0.61005789957E+02  0.47000000000E+01 0.  1.
<mgrwt>
<rscale>  0 0.27522193E+03</rscale>
<asrwt>0</asrwt>
<pdfrwt beam="1">  1        2 0.56976321E-01 0.27522193E+03</pdfrwt>
<pdfrwt beam="2">  1       -2 0.78665621E-02 0.27522193E+03</pdfrwt>
<totfact> 0.83760649E+03</totfact>
</mgrwt>
</event>
<event>
 9    1  0.7997082E-001  0.2765637E+03  0.7818608E-02  0.1097581E+00
         -1   -1    0    0    0  501 -0.00000000000E+00  0.00000000000E+00  0.13078057886E+02  0.13078057886E+02  0.00000000000E+00 0.  1.
          1   -1    0    0  501    0  0.00000000000E+00 -0.00000000000E+00 -0.14621334179E+04  0.14621334179E+04  0.00000000000E+00 0.  1.
         35    2    1    2    0    0  0.35527136788E-14  0.00000000000E+00 -0.14490553600E+04  0.14752114758E+04  0.27656366700E+03 0.  0.
         25    2    3    3    0    0  0.24419975267E+02  0.43295869523E+02 -0.56244903240E+03  0.57836587477E+03  0.12524896625E+03 0.  0.
         25    2    3    3    0    0 -0.24419975267E+02 -0.43295869523E+02 -0.88660632762E+03  0.89684560102E+03  0.12565979619E+03 0.  0.
          5    1    4    4  502    0  0.71477822585E+02  0.39739574982E+02 -0.27190450020E+03  0.28397616127E+03  0.47000000000E+01 0.  1.
         -5    1    4    4    0  502 -0.47057847319E+02  0.35562945412E+01 -0.29054453220E+03  0.29438971350E+03  0.47000000000E+01 0.  1.
          5    1    5    5  503    0  0.21085293057E+02  0.10605222741E+02 -0.63607873865E+03  0.63653382635E+03  0.47000000000E+01 0. -1.
         -5    1    5    5    0  503 -0.45505268324E+02 -0.53901092265E+02 -0.25052758897E+03  0.26031177466E+03  0.47000000000E+01 0. -1.
<mgrwt>
<rscale>  0 0.27656367E+03</rscale>
<asrwt>0</asrwt>
<pdfrwt beam="1">  1        1 0.22494364E+00 0.27656367E+03</pdfrwt>
<pdfrwt beam="2">  1       -1 0.20120086E-02 0.27656367E+03</pdfrwt>
<totfact> 0.51550435E+03</totfact>
</mgrwt>
</event>
<event>
 9    1  0.7997082E-001  0.2936627E+03  0.7818608E-02  0.1088452E+00
         -2   -1    0    0    0  501 -0.00000000000E+00  0.00000000000E+00  0.55233470800E+01  0.55233470800E+01  0.00000000000E+00 0. -1.
          2   -1    0    0  501    0  0.00000000000E+00 -0.00000000000E+00 -0.39033302037E+04  0.39033302037E+04  0.00000000000E+00 0. -1.
         35    2    1    2    0    0  0.35527136788E-14  0.00000000000E+00 -0.38978068566E+04  0.39088535508E+04  0.29366271457E+03 0.  0.
         25    2    3    3    0    0  0.46546196529E+01 -0.47519440463E+02 -0.11563160986E+04  0.11641420521E+04  0.12601600991E+03 0.  0.
         25    2    3    3    0    0 -0.46546196529E+01  0.47519440463E+02 -0.27414907580E+04  0.27447114987E+04  0.12405592397E+03 0.  0.
          5    1    4    4  502    0 -0.49698971735E+02  0.15083067556E+01 -0.25490733367E+03  0.25975392497E+03  0.47000000000E+01 0.  1.
         -5    1    4    4    0  502  0.54353591388E+02 -0.49027747219E+02 -0.90140876495E+03  0.90438812709E+03  0.47000000000E+01 0.  1.
          5    1    5    5  503    0  0.13723183483E+02  0.46120766592E+02 -0.37011981965E+03  0.37326427873E+03  0.47000000000E+01 0. -1.
         -5    1    5    5    0  503 -0.18377803136E+02  0.13986738711E+01 -0.23713709383E+04  0.23714472200E+04  0.47000000000E+01 0. -1.
<mgrwt>
<rscale>  0 0.29366271E+03</rscale>
<asrwt>0</asrwt>
<pdfrwt beam="1">  1        2 0.60051640E+00 0.29366271E+03</pdfrwt>
<pdfrwt beam="2">  1       -2 0.84973996E-03 0.29366271E+03</pdfrwt>
<totfact> 0.14235120E+03</totfact>
</mgrwt>
</event>
<event>
 9    1  0.7997082E-001  0.2740656E+03  0.7818608E-02  0.1098975E+00
          2   -1    0    0  501    0  0.00000000000E+00  0.00000000000E+00  0.19067066986E+03  0.19067066986E+03  0.00000000000E+00 0. -1.
         -2   -1    0    0    0  501 -0.00000000000E+00 -0.00000000000E+00 -0.98483851572E+02  0.98483851572E+02  0.00000000000E+00 0. -1.
         35    2    1    2    0    0  0.00000000000E+00  0.71054273576E-14  0.92186818287E+02  0.28915452143E+03  0.27406555383E+03 0.  0.
         25    2    3    3    0    0  0.57917593749E+01  0.49323323258E+02  0.20743500973E+02  0.13388449492E+03  0.12259049903E+03 0.  0.
         25    2    3    3    0    0 -0.57917593749E+01 -0.49323323258E+02  0.71443317314E+02  0.15527002651E+03  0.12860131745E+03 0.  0.
          5    1    4    4  502    0  0.61847214792E+02  0.43406021586E+02  0.11747908674E+02  0.76611122206E+02  0.47000000000E+01 0. -1.
         -5    1    4    4    0  502 -0.56055455417E+02  0.59173016718E+01  0.89955922992E+01  0.57273372713E+02  0.47000000000E+01 0. -1.
          5    1    5    5  503    0 -0.64668213777E+02 -0.43259743251E+02  0.47303362777E+02  0.91176100976E+02  0.47000000000E+01 0. -1.
         -5    1    5    5    0  503  0.58876454402E+02 -0.60635800076E+01  0.24139954537E+02  0.64093925535E+02  0.47000000000E+01 0. -1.
<mgrwt>
<rscale>  0 0.27406555E+03</rscale>
<asrwt>0</asrwt>
<pdfrwt beam="1">  1        2 0.29333949E-01 0.27406555E+03</pdfrwt>
<pdfrwt beam="2">  1       -2 0.15151362E-01 0.27406555E+03</pdfrwt>
<totfact> 0.60063815E+03</totfact>
</mgrwt>
</event>
<event>
 9    1  0.7997082E-001  0.2782622E+03  0.7818608E-02  0.1096642E+00
          2   -1    0    0  501    0  0.00000000000E+00  0.00000000000E+00  0.11454217244E+02  0.11454217244E+02  0.00000000000E+00 0. -1.
         -2   -1    0    0    0  501 -0.00000000000E+00 -0.00000000000E+00 -0.16899857823E+04  0.16899857823E+04  0.00000000000E+00 0. -1.
         35    2    1    2    0    0  0.00000000000E+00 -0.71054273576E-14 -0.16785315650E+04  0.17014399995E+04  0.27826220936E+03 0.  0.
         25    2    3    3    0    0 -0.14305993318E+02 -0.47034687198E+02 -0.11007628931E+04  0.11086646714E+04  0.12264372587E+03 0.  0.
         25    2    3    3    0    0  0.14305993318E+02  0.47034687198E+02 -0.57776867189E+03  0.59277532810E+03  0.12308138827E+03 0.  0.
          5    1    4    4  502    0  0.46007363124E+02  0.11550732919E+02 -0.43109233354E+03  0.43371971010E+03  0.47000000000E+01 0.  1.
         -5    1    4    4    0  502 -0.60313356442E+02 -0.58585420118E+02 -0.66967055958E+03  0.67494496130E+03  0.47000000000E+01 0.  1.
          5    1    5    5  503    0  0.38424139679E+02  0.70079364067E+02 -0.23312372614E+03  0.24648791749E+03  0.47000000000E+01 0.  1.
         -5    1    5    5    0  503 -0.24118146361E+02 -0.23044676868E+02 -0.34464494576E+03  0.34628741062E+03  0.47000000000E+01 0.  1.
<mgrwt>
<rscale>  0 0.27826221E+03</rscale>
<asrwt>0</asrwt>
<pdfrwt beam="1">  1        2 0.17621875E-02 0.27826221E+03</pdfrwt>
<pdfrwt beam="2">  1       -2 0.25999778E+00 0.27826221E+03</pdfrwt>
<totfact> 0.40915434E+02</totfact>
</mgrwt>
</event>
<event>
 9    1  0.7997082E-001  0.2836547E+03  0.7818608E-02  0.1093709E+00
          2   -1    0    0  501    0  0.00000000000E+00  0.00000000000E+00  0.27661976930E+04  0.27661976930E+04  0.00000000000E+00 0.  1.
         -2   -1    0    0    0  501 -0.00000000000E+00 -0.00000000000E+00 -0.72717143443E+01  0.72717143443E+01  0.00000000000E+00 0.  1.
         35    2    1    2    0    0 -0.14210854715E-13  0.00000000000E+00  0.27589259787E+04  0.27734694074E+04  0.28365471576E+03 0.  0.
         25    2    3    3    0    0 -0.68127022738E+02  0.54264831303E+01  0.14140310221E+04  0.14211007640E+04  0.12398754693E+03 0.  0.
         25    2    3    3    0    0  0.68127022738E+02 -0.54264831303E+01  0.13448949565E+04  0.13523686434E+04  0.12444985180E+03 0.  0.
          5    1    4    4  502    0 -0.61176060160E+02 -0.51804726588E+02  0.96996704994E+03  0.97328536822E+03  0.47000000000E+01 0.  1.
         -5    1    4    4    0  502 -0.69509625785E+01  0.57231209718E+02  0.44406397221E+03  0.44781539574E+03  0.47000000000E+01 0.  1.
          5    1    5    5  503    0  0.10068943723E+03  0.16671916513E+02  0.93773349752E+03  0.94328284090E+03  0.47000000000E+01 0. -1.
         -5    1    5    5    0  503 -0.32562414492E+02 -0.22098399644E+02  0.40716145902E+03  0.40908580251E+03  0.47000000000E+01 0. -1.
<mgrwt>
<rscale>  0 0.28365472E+03</rscale>
<asrwt>0</asrwt>
<pdfrwt beam="1">  1        2 0.42556804E+00 0.28365472E+03</pdfrwt>
<pdfrwt beam="2">  1       -2 0.11187275E-02 0.28365472E+03</pdfrwt>
<totfact> 0.51560673E+03</totfact>
</mgrwt>
</event>
<event>
 9    1  0.7997082E-001  0.2763834E+03  0.7818608E-02  0.1097681E+00
         -1   -1    0    0    0  501 -0.00000000000E+00  0.00000000000E+00  0.21322185925E+02  0.21322185925E+02  0.00000000000E+00 0.  1.
          1   -1    0    0  501    0  0.00000000000E+00 -0.00000000000E+00 -0.89563739988E+03  0.89563739988E+03  0.00000000000E+00 0.  1.
         35    2    1    2    0    0  0.71054273576E-14 -0.35527136788E-14 -0.87431521396E+03  0.91695958581E+03  0.27638340878E+03 0.  0.
         25    2    3    3    0    0  0.63338531821E+01 -0.11521654221E+02 -0.25540281282E+03  0.28486213079E+03  0.12547099486E+03 0.  0.
         25    2    3    3    0    0 -0.63338531821E+01  0.11521654221E+02 -0.61891240114E+03  0.63209745502E+03  0.12775666771E+03 0.  0.
          5    1    4    4  502    0  0.30016522977E+02 -0.55420347325E+02 -0.77310616715E+02  0.99857037840E+02  0.47000000000E+01 0.  1.
         -5    1    4    4    0  502 -0.23682669794E+02  0.43898693104E+02 -0.17809219610E+03  0.18500509295E+03  0.47000000000E+01 0.  1.
          5    1    5    5  503    0 -0.66065224989E+02  0.12341784778E+02 -0.36915034541E+03  0.37524791954E+03  0.47000000000E+01 0.  1.
         -5    1    5    5    0  503  0.59731371807E+02 -0.82013055707E+00 -0.24976205573E+03  0.25684953548E+03  0.47000000000E+01 0.  1.
<mgrwt>
<rscale>  0 0.27638341E+03</rscale>
<asrwt>0</asrwt>
<pdfrwt beam="1">  1        1 0.13779038E+00 0.27638341E+03</pdfrwt>
<pdfrwt beam="2">  1       -1 0.32803361E-02 0.27638341E+03</pdfrwt>
<totfact> 0.63535666E+03</totfact>
</mgrwt>
</event>
<event>
 9    1  0.7997082E-001  0.2682433E+03  0.7818608E-02  0.1102289E+00
         -2   -1    0    0    0  501 -0.00000000000E+00  0.00000000000E+00  0.98629469375E+02  0.98629469375E+02  0.00000000000E+00 0. -1.
          2   -1    0    0  501    0  0.00000000000E+00 -0.00000000000E+00 -0.18238578902E+03  0.18238578902E+03  0.00000000000E+00 0. -1.
         35    2    1    2    0    0  0.10658141036E-13  0.00000000000E+00 -0.83756319646E+02  0.28101525840E+03  0.26824327460E+03 0.  0.
         25    2    3    3    0    0 -0.20941117476E+02 -0.19373517581E+02 -0.77456256082E+02  0.15018807449E+03  0.12547160049E+03 0.  0.
         25    2    3    3    0    0  0.20941117476E+02  0.19373517581E+02 -0.63000635644E+01  0.13082718390E+03  0.12752332203E+03 0.  0.
          5    1    4    4  502    0 -0.31957908941E+02  0.39987139471E+02 -0.73247523340E+02  0.89485020771E+02  0.47000000000E+01 0. -1.
         -5    1    4    4    0  502  0.11016791464E+02 -0.59360657052E+02 -0.42087327416E+01  0.60703053721E+02  0.47000000000E+01 0. -1.
          5    1    5    5  503    0  0.74186716352E+02  0.41019671951E+01  0.27733829047E+01  0.74500178998E+02  0.47000000000E+01 0.  1.
         -5    1    5    5    0  503 -0.53245598876E+02  0.15271550386E+02 -0.90734464691E+01  0.56327004906E+02  0.47000000000E+01 0.  1.
<mgrwt>
<rscale>  0 0.26824327E+03</rscale>
<asrwt>0</asrwt>
<pdfrwt beam="1">  1        2 0.28059352E-01 0.26824327E+03</pdfrwt>
<pdfrwt beam="2">  1       -2 0.15173765E-01 0.26824327E+03</pdfrwt>
<totfact> 0.62871152E+03</totfact>
</mgrwt>
</event>
<event>
 9    1  0.7997082E-001  0.2757390E+03  0.7818608E-02  0.1098039E+00
         -1   -1    0    0    0  501 -0.00000000000E+00  0.00000000000E+00  0.43691442100E+02  0.43691442100E+02  0.00000000000E+00 0. -1.
          1   -1    0    0  501    0  0.00000000000E+00 -0.00000000000E+00 -0.43505083376E+03  0.43505083376E+03  0.00000000000E+00 0. -1.
         35    2    1    2    0    0  0.71054273576E-14  0.71054273576E-14 -0.39135939166E+03  0.47874227586E+03  0.27573899480E+03 0.  0.
         25    2    3    3    0    0 -0.49782384045E+02 -0.39197653084E+02 -0.15112230304E+03  0.20047579939E+03  0.11548962680E+03 0.  0.
         25    2    3    3    0    0  0.49782384045E+02  0.39197653084E+02 -0.24023708862E+03  0.27826647646E+03  0.12531413091E+03 0.  0.
          5    1    4    4  502    0 -0.20419690747E+00 -0.70194025473E+02 -0.10231022842E+03  0.12416406787E+03  0.47000000000E+01 0.  1.
         -5    1    4    4    0  502 -0.49578187138E+02  0.30996372389E+02 -0.48812074610E+02  0.76311731529E+02  0.47000000000E+01 0.  1.
          5    1    5    5  503    0 -0.16430363299E+02  0.25195051125E+01 -0.18155633135E+03  0.18237624900E+03  0.47000000000E+01 0. -1.
         -5    1    5    5    0  503  0.66212747344E+02  0.36678147972E+02 -0.58680757267E+02  0.95890227464E+02  0.47000000000E+01 0. -1.
<mgrwt>
<rscale>  0 0.27573899E+03</rscale>
<asrwt>0</asrwt>
<pdfrwt beam="1">  1        1 0.66930898E-01 0.27573899E+03</pdfrwt>
<pdfrwt beam="2">  1       -1 0.67217603E-02 0.27573899E+03</pdfrwt>
<totfact> 0.60721206E+03</totfact>
</mgrwt>
</event>
<event>
 9    1  0.7997082E-001  0.2797701E+03  0.7818608E-02  0.1095815E+00
         -1   -1    0    0    0  501 -0.00000000000E+00  0.00000000000E+00  0.35461495769E+02  0.35461495769E+02  0.00000000000E+00 0. -1.
          1   -1    0    0  501    0  0.00000000000E+00 -0.00000000000E+00 -0.55180491214E+03  0.55180491214E+03  0.00000000000E+00 0. -1.
         35    2    1    2    0    0  0.00000000000E+00  0.14210854715E-13 -0.51634341637E+03  0.58726640791E+03  0.27977010246E+03 0.  0.
         25    2    3    3    0    0 -0.38429078247E+01  0.60849084620E+02 -0.28691108048E+03  0.31885731077E+03  0.12503854403E+03 0.  0.
         25    2    3    3    0    0  0.38429078247E+01 -0.60849084620E+02 -0.22943233589E+03  0.26840909713E+03  0.12524722604E+03 0.  0.
          5    1    4    4  502    0  0.30803337029E+02  0.74620369628E+02 -0.26092774536E+03  0.27317105160E+03  0.47000000000E+01 0. -1.
         -5    1    4    4    0  502 -0.34646244853E+02 -0.13771285008E+02 -0.25983335116E+02  0.45686259170E+02  0.47000000000E+01 0. -1.
          5    1    5    5  503    0  0.34614202415E+02 -0.24720220080E+02 -0.10123482909E+02  0.43975074712E+02  0.47000000000E+01 0. -1.
         -5    1    5    5    0  503 -0.30771294591E+02 -0.36128864540E+02 -0.21930885298E+03  0.22443402242E+03  0.47000000000E+01 0. -1.
<mgrwt>
<rscale>  0 0.27977010E+03</rscale>
<asrwt>0</asrwt>
<pdfrwt beam="1">  1        1 0.84893065E-01 0.27977010E+03</pdfrwt>
<pdfrwt beam="2">  1       -1 0.54556147E-02 0.27977010E+03</pdfrwt>
<totfact> 0.60745418E+03</totfact>
</mgrwt>
</event>
<event>
 9    1  0.7997082E-001  0.2751607E+03  0.7818608E-02  0.1098362E+00
          2   -1    0    0  501    0  0.00000000000E+00  0.00000000000E+00  0.47438361214E+02  0.47438361214E+02  0.00000000000E+00 0.  1.
         -2   -1    0    0    0  501 -0.00000000000E+00 -0.00000000000E+00 -0.39900943954E+03  0.39900943954E+03  0.00000000000E+00 0.  1.
         35    2    1    2    0    0 -0.71054273576E-14  0.00000000000E+00 -0.35157107833E+03  0.44644780075E+03  0.27516070883E+03 0.  0.
         25    2    3    3    0    0  0.24975062350E+02 -0.51895821241E+02 -0.16669879391E+03  0.21582961642E+03  0.12440661330E+03 0.  0.
         25    2    3    3    0    0 -0.24975062350E+02  0.51895821241E+02 -0.18487228442E+03  0.23061818433E+03  0.12525995129E+03 0.  0.
          5    1    4    4  502    0  0.31364257311E+02 -0.88384732388E+02 -0.14467490271E+03  0.17247752036E+03  0.47000000000E+01 0. -1.
         -5    1    4    4    0  502 -0.63891949617E+01  0.36488911148E+02 -0.22023891194E+02  0.43352096055E+02  0.47000000000E+01 0. -1.
          5    1    5    5  503    0 -0.20631242454E+02 -0.81248992237E+01  0.11330532532E+02  0.25340345697E+02  0.47000000000E+01 0. -1.
         -5    1    5    5    0  503 -0.43438198953E+01  0.60020720464E+02 -0.19620281695E+03  0.20527783864E+03  0.47000000000E+01 0. -1.
<mgrwt>
<rscale>  0 0.27516071E+03</rscale>
<asrwt>0</asrwt>
<pdfrwt beam="1">  1        2 0.72982096E-02 0.27516071E+03</pdfrwt>
<pdfrwt beam="2">  1       -2 0.61386066E-01 0.27516071E+03</pdfrwt>
<totfact> 0.24062891E+03</totfact>
</mgrwt>
</event>
<event>
 9    1  0.7997082E-001  0.2743275E+03  0.7818608E-02  0.1098828E+00
          2   -1    0    0  501    0  0.00000000000E+00  0.00000000000E+00  0.31165273770E+04  0.31165273770E+04  0.00000000000E+00 0.  1.
         -2   -1    0    0    0  501 -0.00000000000E+00 -0.00000000000E+00 -0.60368151976E+01  0.60368151976E+01  0.00000000000E+00 0.  1.
         35    2    1    2    0    0 -0.71054273576E-14 -0.35527136788E-14  0.31104905618E+04  0.31225641922E+04  0.27432754024E+03 0.  0.
         25    2    3    3    0    0  0.38741317139E+01  0.27344704250E+02  0.97866245164E+03  0.98694839390E+03  0.12459613246E+03 0.  0.
         25    2    3    3    0    0 -0.38741317139E+01 -0.27344704250E+02  0.21318281102E+04  0.21356157983E+04  0.12410078530E+03 0.  0.
          5    1    4    4  502    0  0.41987559639E+02  0.91050007188E+01  0.12561644105E+03  0.13284365421E+03  0.47000000000E+01 0. -1.
         -5    1    4    4    0  502 -0.38113427925E+02  0.18239703531E+02  0.85304601059E+03  0.85410473968E+03  0.47000000000E+01 0. -1.
          5    1    5    5  503    0  0.50336734595E+02 -0.40835032166E+02  0.81150708466E+03  0.81410510695E+03  0.47000000000E+01 0. -1.
         -5    1    5    5    0  503 -0.54210866309E+02  0.13490327916E+02  0.13203210255E+04  0.13215106913E+04  0.47000000000E+01 0. -1.
<mgrwt>
<rscale>  0 0.27432754E+03</rscale>
<asrwt>0</asrwt>
<pdfrwt beam="1">  1        2 0.47946447E+00 0.27432754E+03</pdfrwt>
<pdfrwt beam="2">  1       -2 0.92874329E-03 0.27432754E+03</pdfrwt>
<totfact> 0.42111712E+03</totfact>
</mgrwt>
</event>
<event>
 9    1  0.7997082E-001  0.2767725E+03  0.7818608E-02  0.1097465E+00
         -1   -1    0    0    0  501 -0.00000000000E+00  0.00000000000E+00  0.13595455813E+02  0.13595455813E+02  0.00000000000E+00 0. -1.
          1   -1    0    0  501    0  0.00000000000E+00 -0.00000000000E+00 -0.14086144429E+04  0.14086144429E+04  0.00000000000E+00 0. -1.
         35    2    1    2    0    0  0.00000000000E+00  0.71054273576E-14 -0.13950189871E+04  0.14222098987E+04  0.27677250886E+03 0.  0.
         25    2    3    3    0    0 -0.11864341515E+02 -0.56996014255E+02 -0.75436919459E+03  0.76682503730E+03  0.12473350730E+03 0.  0.
         25    2    3    3    0    0  0.11864341515E+02  0.56996014255E+02 -0.64064979253E+03  0.65538486144E+03  0.12533096864E+03 0.  0.
          5    1    4    4  502    0 -0.98797951657E+01 -0.81342742524E+02 -0.71850970522E+03  0.72318223057E+03  0.47000000000E+01 0. -1.
         -5    1    4    4    0  502 -0.19845463496E+01  0.24346728268E+02 -0.35859489366E+02  0.43642806728E+02  0.47000000000E+01 0. -1.
          5    1    5    5  503    0  0.60539948049E+02  0.54508301189E+02 -0.49612600984E+03  0.50279155507E+03  0.47000000000E+01 0.  1.
         -5    1    5    5    0  503 -0.48675606534E+02  0.24877130669E+01 -0.14452378269E+03  0.15259330637E+03  0.47000000000E+01 0.  1.
<mgrwt>
<rscale>  0 0.27677251E+03</rscale>
<asrwt>0</asrwt>
<pdfrwt beam="1">  1        1 0.21670992E+00 0.27677251E+03</pdfrwt>
<pdfrwt beam="2">  1       -1 0.20916085E-02 0.27677251E+03</pdfrwt>
<totfact> 0.52887569E+03</totfact>
</mgrwt>
</event>
<event>
 9    1  0.7997082E-001  0.2783348E+03  0.7818608E-02  0.1096602E+00
          3   -1    0    0  501    0  0.00000000000E+00  0.00000000000E+00  0.84865444321E+03  0.84865444321E+03  0.00000000000E+00 0. -1.
         -3   -1    0    0    0  501 -0.00000000000E+00 -0.00000000000E+00 -0.22821493769E+02  0.22821493769E+02  0.00000000000E+00 0. -1.
         35    2    1    2    0    0  0.00000000000E+00  0.00000000000E+00  0.82583294944E+03  0.87147593698E+03  0.27833477747E+03 0.  0.
         25    2    3    3    0    0  0.32008515615E+02  0.53129940536E+02  0.40474919610E+03  0.42793687741E+03  0.12434115832E+03 0.  0.
         25    2    3    3    0    0 -0.32008515615E+02 -0.53129940536E+02  0.42108375335E+03  0.44353905957E+03  0.12477192946E+03 0.  0.
          5    1    4    4  502    0  0.62911856594E+01 -0.31782754160E+02  0.36106825799E+02  0.48739258799E+02  0.47000000000E+01 0.  1.
         -5    1    4    4    0  502  0.25717329956E+02  0.84912694696E+02  0.36864237030E+03  0.37919761861E+03  0.47000000000E+01 0.  1.
          5    1    5    5  503    0  0.21981777100E+01 -0.87877191492E+02  0.22984029596E+03  0.24612168620E+03  0.47000000000E+01 0.  1.
         -5    1    5    5    0  503 -0.34206693325E+02  0.34747250955E+02  0.19124345739E+03  0.19741737338E+03  0.47000000000E+01 0.  1.
<mgrwt>
<rscale>  0 0.27833478E+03</rscale>
<asrwt>0</asrwt>
<pdfrwt beam="1">  1        3 0.13056220E+00 0.27833478E+03</pdfrwt>
<pdfrwt beam="2">  1       -3 0.35109997E-02 0.27833478E+03</pdfrwt>
<totfact> 0.48949614E+02</totfact>
</mgrwt>
</event>
<event>
 9    1  0.7997082E-001  0.2744281E+03  0.7818608E-02  0.1098772E+00
         -3   -1    0    0    0  501 -0.00000000000E+00  0.00000000000E+00  0.78926445348E+02  0.78926445348E+02  0.00000000000E+00 0.  1.
          3   -1    0    0  501    0  0.00000000000E+00 -0.00000000000E+00 -0.23854736908E+03  0.23854736908E+03  0.00000000000E+00 0.  1.
         35    2    1    2    0    0 -0.71054273576E-14  0.35527136788E-14 -0.15962092373E+03  0.31747381442E+03  0.27442810270E+03 0.  0.
         25    2    3    3    0    0 -0.51889630932E+02 -0.22415620504E+02 -0.62775435071E+02  0.14985077322E+03  0.12377198853E+03 0.  0.
         25    2    3    3    0    0  0.51889630932E+02  0.22415620504E+02 -0.96845488656E+02  0.16762304121E+03  0.12459310346E+03 0.  0.
          5    1    4    4  502    0 -0.86134123663E+02 -0.15907775291E+02 -0.12662072222E+02  0.88625970498E+02  0.47000000000E+01 0.  1.
         -5    1    4    4    0  502  0.34244492730E+02 -0.65078452137E+01 -0.50113362849E+02  0.61224802717E+02  0.47000000000E+01 0.  1.
          5    1    5    5  503    0  0.46926311723E+02  0.28464429876E+02 -0.12576367549E+03  0.13729855998E+03  0.47000000000E+01 0. -1.
         -5    1    5    5    0  503  0.49633192091E+01 -0.60488093720E+01  0.28918186830E+02  0.30324481231E+02  0.47000000000E+01 0. -1.
<mgrwt>
<rscale>  0 0.27442810E+03</rscale>
<asrwt>0</asrwt>
<pdfrwt beam="1">  1        3 0.36699595E-01 0.27442810E+03</pdfrwt>
<pdfrwt beam="2">  1       -3 0.12142530E-01 0.27442810E+03</pdfrwt>
<totfact> 0.99317468E+02</totfact>
</mgrwt>
</event>
<event>
 9    1  0.7997082E-001  0.2767695E+03  0.7818608E-02  0.1097467E+00
          2   -1    0    0  501    0  0.00000000000E+00  0.00000000000E+00  0.17454031484E+03  0.17454031484E+03  0.00000000000E+00 0.  1.
         -2   -1    0    0    0  501 -0.00000000000E+00 -0.00000000000E+00 -0.10971874790E+03  0.10971874790E+03  0.00000000000E+00 0.  1.
         35    2    1    2    0    0 -0.71054273576E-14 -0.35527136788E-14  0.64821566942E+02  0.28425906274E+03  0.27676954169E+03 0.  0.
         25    2    3    3    0    0 -0.29032660722E+02  0.14202389507E+02  0.79648818397E+02  0.15227596497E+03  0.12569579141E+03 0.  0.
         25    2    3    3    0    0  0.29032660722E+02 -0.14202389507E+02 -0.14827251455E+02  0.13198309777E+03  0.12710266502E+03 0.  0.
          5    1    4    4  502    0 -0.96067537891E+01 -0.53994012743E+02  0.52904264917E+02  0.76345231526E+02  0.47000000000E+01 0.  1.
         -5    1    4    4    0  502 -0.19425906933E+02  0.68196402250E+02  0.26744553480E+02  0.75930733440E+02  0.47000000000E+01 0.  1.
          5    1    5    5  503    0 -0.41164347545E+02 -0.15581313040E+02  0.25293146066E+02  0.50981507067E+02  0.47000000000E+01 0. -1.
         -5    1    5    5    0  503  0.70197008267E+02  0.13789235332E+01 -0.40120397522E+02  0.81001590707E+02  0.47000000000E+01 0. -1.
<mgrwt>
<rscale>  0 0.27676954E+03</rscale>
<asrwt>0</asrwt>
<pdfrwt beam="1">  1        2 0.26852356E-01 0.27676954E+03</pdfrwt>
<pdfrwt beam="2">  1       -2 0.16879807E-01 0.27676954E+03</pdfrwt>
<totfact> 0.55345827E+03</totfact>
</mgrwt>
</event>
<event>
 9    1  0.7997082E-001  0.2694681E+03  0.7818608E-02  0.1101584E+00
         -3   -1    0    0    0  501 -0.00000000000E+00  0.00000000000E+00  0.70917297509E+02  0.70917297509E+02  0.00000000000E+00 0.  1.
          3   -1    0    0  501    0  0.00000000000E+00 -0.00000000000E+00 -0.25597790762E+03  0.25597790762E+03  0.00000000000E+00 0.  1.
         35    2    1    2    0    0  0.71054273576E-14 -0.71054273576E-14 -0.18506061011E+03  0.32689520513E+03  0.26946807922E+03 0.  0.
         25    2    3    3    0    0 -0.36824409735E+02  0.31926579363E+02 -0.86644014196E+02  0.16004747535E+03  0.12542992286E+03 0.  0.
         25    2    3    3    0    0  0.36824409735E+02 -0.31926579363E+02 -0.98416595912E+02  0.16684772977E+03  0.12560650842E+03 0.  0.
          5    1    4    4  502    0  0.19275743247E+02 -0.38847930887E+02 -0.21778602871E+02  0.48755651518E+02  0.47000000000E+01 0. -1.
         -5    1    4    4    0  502 -0.56100152982E+02  0.70774510251E+02 -0.64865411326E+02  0.11129182383E+03  0.47000000000E+01 0. -1.
          5    1    5    5  503    0  0.27199163929E+02  0.36963387295E+02 -0.83733465643E+02  0.95600574200E+02  0.47000000000E+01 0. -1.
         -5    1    5    5    0  503  0.96252458053E+01 -0.68889966658E+02 -0.14683130268E+02  0.71247155574E+02  0.47000000000E+01 0. -1.
<mgrwt>
<rscale>  0 0.26946808E+03</rscale>
<asrwt>0</asrwt>
<pdfrwt beam="1">  1        3 0.39381217E-01 0.26946808E+03</pdfrwt>
<pdfrwt beam="2">  1       -3 0.10910353E-01 0.26946808E+03</pdfrwt>
<totfact> 0.10362411E+03</totfact>
</mgrwt>
</event>
<event>
 9    1  0.7997082E-001  0.2774315E+03  0.7818608E-02  0.1097100E+00
         -1   -1    0    0    0  501 -0.00000000000E+00  0.00000000000E+00  0.43426549818E+02  0.43426549818E+02  0.00000000000E+00 0.  1.
          1   -1    0    0  501    0  0.00000000000E+00 -0.00000000000E+00 -0.44309432463E+03  0.44309432463E+03  0.00000000000E+00 0.  1.
         35    2    1    2    0    0  0.00000000000E+00  0.71054273576E-14 -0.39966777481E+03  0.48652087444E+03  0.27743148893E+03 0.  0.
         25    2    3    3    0    0  0.43775704821E+02  0.25942630645E+02 -0.25363980935E+03  0.28778631631E+03  0.12608916903E+03 0.  0.
         25    2    3    3    0    0 -0.43775704821E+02 -0.25942630645E+02 -0.14602796545E+03  0.19873455814E+03  0.12482758303E+03 0.  0.
          5    1    4    4  502    0 -0.50478432905E+01  0.69789903139E+02 -0.13473945057E+03  0.15189773152E+03  0.47000000000E+01 0.  1.
         -5    1    4    4    0  502  0.48823548111E+02 -0.43847272493E+02 -0.11890035879E+03  0.13588858478E+03  0.47000000000E+01 0.  1.
          5    1    5    5  503    0 -0.61053509744E+02  0.33747369601E+02 -0.57790162401E+02  0.90709475124E+02  0.47000000000E+01 0. -1.
         -5    1    5    5    0  503  0.17277804923E+02 -0.59690000246E+02 -0.88237803053E+02  0.10802508301E+03  0.47000000000E+01 0. -1.
<mgrwt>
<rscale>  0 0.27743149E+03</rscale>
<asrwt>0</asrwt>
<pdfrwt beam="1">  1        1 0.68168357E-01 0.27743149E+03</pdfrwt>
<pdfrwt beam="2">  1       -1 0.66810078E-02 0.27743149E+03</pdfrwt>
<totfact> 0.59853634E+03</totfact>
</mgrwt>
</event>
<event>
 9    1  0.7997082E-001  0.2679315E+03  0.7818608E-02  0.1102469E+00
         -2   -1    0    0    0  501 -0.00000000000E+00  0.00000000000E+00  0.18474658452E+03  0.18474658452E+03  0.00000000000E+00 0.  1.
          2   -1    0    0  501    0  0.00000000000E+00 -0.00000000000E+00 -0.97142912035E+02  0.97142912035E+02  0.00000000000E+00 0.  1.
         35    2    1    2    0    0  0.71054273576E-14 -0.14210854715E-13  0.87603672489E+02  0.28188949656E+03  0.26793149280E+03 0.  0.
         25    2    3    3    0    0 -0.27564728654E+02 -0.37057635828E+02  0.57640733174E+02  0.14494629514E+03  0.12471524251E+03 0.  0.
         25    2    3    3    0    0  0.27564728654E+02  0.37057635828E+02  0.29962939315E+02  0.13694320142E+03  0.12538971267E+03 0.  0.
          5    1    4    4  502    0 -0.71566408607E+01  0.41792240612E+02 -0.37791240751E+01  0.42827335460E+02  0.47000000000E+01 0.  1.
         -5    1    4    4    0  502 -0.20408087793E+02 -0.78849876440E+02  0.61419857249E+02  0.10211895968E+03  0.47000000000E+01 0.  1.
          5    1    5    5  503    0  0.65322849902E+02  0.49456329959E+02 -0.71314026321E+01  0.82376879012E+02  0.47000000000E+01 0. -1.
         -5    1    5    5    0  503 -0.37758121248E+02 -0.12398694131E+02  0.37094341947E+02  0.54566322405E+02  0.47000000000E+01 0. -1.
<mgrwt>
<rscale>  0 0.26793149E+03</rscale>
<asrwt>0</asrwt>
<pdfrwt beam="1">  1        2 0.14945063E-01 0.26793149E+03</pdfrwt>
<pdfrwt beam="2">  1       -2 0.28422551E-01 0.26793149E+03</pdfrwt>
<totfact> 0.43852556E+03</totfact>
</mgrwt>
</event>
<event>
 9    1  0.7997082E-001  0.2730212E+03  0.7818608E-02  0.1099563E+00
         -1   -1    0    0    0  501 -0.00000000000E+00  0.00000000000E+00  0.29740269875E+03  0.29740269875E+03  0.00000000000E+00 0.  1.
          1   -1    0    0  501    0  0.00000000000E+00 -0.00000000000E+00 -0.62659643777E+02  0.62659643777E+02  0.00000000000E+00 0.  1.
         35    2    1    2    0    0 -0.17763568394E-14  0.00000000000E+00  0.23474305498E+03  0.36006234253E+03  0.27302122381E+03 0.  0.
         25    2    3    3    0    0 -0.11788713897E+01  0.46787809375E+02  0.78034448502E+02  0.15341654349E+03  0.12351830561E+03 0.  0.
         25    2    3    3    0    0  0.11788713897E+01 -0.46787809375E+02  0.15670860647E+03  0.20664579904E+03  0.12631076784E+03 0.  0.
          5    1    4    4  502    0 -0.17508282938E+02  0.39564986532E+02 -0.24017529310E+02  0.49707744315E+02  0.47000000000E+01 0. -1.
         -5    1    4    4    0  502  0.16329411549E+02  0.72228228432E+01  0.10205197781E+03  0.10370879918E+03  0.47000000000E+01 0. -1.
          5    1    5    5  503    0  0.13712260658E+02 -0.85529507970E+01 -0.19547138917E+02  0.25794567248E+02  0.47000000000E+01 0. -1.
         -5    1    5    5    0  503 -0.12533389268E+02 -0.38234858578E+02  0.17625574539E+03  0.18085123179E+03  0.47000000000E+01 0. -1.
<mgrwt>
<rscale>  0 0.27302122E+03</rscale>
<asrwt>0</asrwt>
<pdfrwt beam="1">  1        1 0.96399454E-02 0.27302122E+03</pdfrwt>
<pdfrwt beam="2">  1       -1 0.45754261E-01 0.27302122E+03</pdfrwt>
<totfact> 0.32492927E+03</totfact>
</mgrwt>
</event>
<event>
 9    1  0.7997082E-001  0.2782165E+03  0.7818608E-02  0.1096667E+00
         -2   -1    0    0    0  501 -0.00000000000E+00  0.00000000000E+00  0.92102262841E+02  0.92102262841E+02  0.00000000000E+00 0.  1.
          2   -1    0    0  501    0  0.00000000000E+00 -0.00000000000E+00 -0.21010455155E+03  0.21010455155E+03  0.00000000000E+00 0.  1.
         35    2    1    2    0    0  0.35527136788E-14  0.00000000000E+00 -0.11800228871E+03  0.30220681439E+03  0.27821649578E+03 0.  0.
         25    2    3    3    0    0  0.21180359198E+02 -0.25680774233E+02 -0.12071693120E+03  0.17486896439E+03  0.12205927843E+03 0.  0.
         25    2    3    3    0    0 -0.21180359198E+02  0.25680774233E+02  0.27146424850E+01  0.12733785000E+03  0.12287981518E+03 0.  0.
          5    1    4    4  502    0  0.56245231552E+02 -0.38588122562E+02 -0.26364536591E+02  0.73278564839E+02  0.47000000000E+01 0. -1.
         -5    1    4    4    0  502 -0.35064872354E+02  0.12907348329E+02 -0.94352394605E+02  0.10159039956E+03  0.47000000000E+01 0. -1.
          5    1    5    5  503    0 -0.22211709118E+02  0.36423063296E+02  0.57247146074E+02  0.71549460483E+02  0.47000000000E+01 0. -1.
         -5    1    5    5    0  503  0.10313499200E+01 -0.10742289063E+02 -0.54532503589E+02  0.55788389515E+02  0.47000000000E+01 0. -1.
<mgrwt>
<rscale>  0 0.27821650E+03</rscale>
<asrwt>0</asrwt>
<pdfrwt beam="1">  1        2 0.32323777E-01 0.27821650E+03</pdfrwt>
<pdfrwt beam="2">  1       -2 0.14169579E-01 0.27821650E+03</pdfrwt>
<totfact> 0.60342963E+03</totfact>
</mgrwt>
</event>
<event>
 9    1  0.7997082E-001  0.2740668E+03  0.7818608E-02  0.1098974E+00
          4   -1    0    0  501    0  0.00000000000E+00  0.00000000000E+00  0.20288836738E+02  0.20288836738E+02  0.00000000000E+00 0.  1.
         -4   -1    0    0    0  501 -0.00000000000E+00 -0.00000000000E+00 -0.92554084884E+03  0.92554084884E+03  0.00000000000E+00 0.  1.
         35    2    1    2    0    0 -0.35527136788E-14  0.14210854715E-13 -0.90525201210E+03  0.94582968557E+03  0.27406675958E+03 0.  0.
         25    2    3    3    0    0 -0.31703616140E+01  0.46121234034E+02 -0.56535143054E+03  0.58083383240E+03  0.12493390822E+03 0.  0.
         25    2    3    3    0    0  0.31703616140E+01 -0.46121234034E+02 -0.33990058156E+03  0.36499585317E+03  0.12470905368E+03 0.  0.
          5    1    4    4  502    0 -0.28282141173E+02  0.18907270141E+02 -0.34527390159E+02  0.48699025090E+02  0.47000000000E+01 0.  1.
         -5    1    4    4    0  502  0.25111779559E+02  0.27213963893E+02 -0.53082404038E+03  0.53213480731E+03  0.47000000000E+01 0.  1.
          5    1    5    5  503    0 -0.38147223557E+02  0.26772069121E+02 -0.15540455086E+03  0.16231025469E+03  0.47000000000E+01 0.  1.
         -5    1    5    5    0  503  0.41317585171E+02 -0.72893303156E+02 -0.18449603070E+03  0.20268559848E+03  0.47000000000E+01 0.  1.
<mgrwt>
<rscale>  0 0.27406676E+03</rscale>
<asrwt>0</asrwt>
<pdfrwt beam="1">  1        4 0.31213594E-02 0.27406676E+03</pdfrwt>
<pdfrwt beam="2">  1       -4 0.14239090E+00 0.27406676E+03</pdfrwt>
<totfact> 0.34273144E+02</totfact>
</mgrwt>
</event>
<event>
 9    1  0.7997082E-001  0.2758053E+03  0.7818608E-02  0.1098002E+00
         -4   -1    0    0    0  501 -0.00000000000E+00  0.00000000000E+00  0.55786178944E+03  0.55786178944E+03  0.00000000000E+00 0.  1.
          4   -1    0    0  501    0  0.00000000000E+00 -0.00000000000E+00 -0.34089339303E+02  0.34089339303E+02  0.00000000000E+00 0.  1.
         35    2    1    2    0    0  0.00000000000E+00 -0.62172489379E-14  0.52377245014E+03  0.59195112875E+03  0.27580529237E+03 0.  0.
         25    2    3    3    0    0 -0.25192157985E+02  0.65494171800E+01  0.37470838310E+03  0.39558201388E+03  0.12410164242E+03 0.  0.
         25    2    3    3    0    0  0.25192157985E+02 -0.65494171800E+01  0.14906406704E+03  0.19636911486E+03  0.12515268076E+03 0.  0.
          5    1    4    4  502    0 -0.42398144935E+02 -0.36566195448E+01  0.37245636601E+03  0.37490906650E+03  0.47000000000E+01 0.  1.
         -5    1    4    4    0  502  0.17205986949E+02  0.10206036725E+02  0.22520170902E+01  0.20672947383E+02  0.47000000000E+01 0.  1.
          5    1    5    5  503    0  0.68399556757E+01 -0.48372864036E+02  0.14158454665E+03  0.14984990097E+03  0.47000000000E+01 0. -1.
         -5    1    5    5    0  503  0.18352202310E+02  0.41823446856E+02  0.74795203853E+01  0.46519213899E+02  0.47000000000E+01 0. -1.
<mgrwt>
<rscale>  0 0.27580529E+03</rscale>
<asrwt>0</asrwt>
<pdfrwt beam="1">  1        4 0.52445141E-02 0.27580529E+03</pdfrwt>
<pdfrwt beam="2">  1       -4 0.85824884E-01 0.27580529E+03</pdfrwt>
<totfact> 0.50240358E+02</totfact>
</mgrwt>
</event>
<event>
 9    1  0.7997082E-001  0.2732506E+03  0.7818608E-02  0.1099434E+00
          2   -1    0    0  501    0  0.00000000000E+00  0.00000000000E+00  0.65076108269E+02  0.65076108269E+02  0.00000000000E+00 0.  1.
         -2   -1    0    0    0  501 -0.00000000000E+00 -0.00000000000E+00 -0.28684055808E+03  0.28684055808E+03  0.00000000000E+00 0.  1.
         35    2    1    2    0    0  0.71054273576E-14 -0.71054273576E-14 -0.22176444981E+03  0.35191666635E+03  0.27325056058E+03 0.  0.
         25    2    3    3    0    0 -0.12503890760E+02  0.28441839890E+02 -0.17124548535E+03  0.21276183732E+03  0.12238177000E+03 0.  0.
         25    2    3    3    0    0  0.12503890760E+02 -0.28441839890E+02 -0.50518964466E+02  0.13915482903E+03  0.12588333937E+03 0.  0.
          5    1    4    4  502    0  0.21144868589E+02  0.86238768839E+01  0.11383590375E+02  0.25945189341E+02  0.47000000000E+01 0. -1.
         -5    1    4    4    0  502 -0.33648759349E+02  0.19817963006E+02 -0.18262907572E+03  0.18681664798E+03  0.47000000000E+01 0. -1.
          5    1    5    5  503    0  0.34870244046E+02 -0.21397933911E+02  0.32688957868E+02  0.52578165258E+02  0.47000000000E+01 0.  1.
         -5    1    5    5    0  503 -0.22366353286E+02 -0.70439059796E+01 -0.83207922333E+02  0.86576663771E+02  0.47000000000E+01 0.  1.
<mgrwt>
<rscale>  0 0.27325056E+03</rscale>
<asrwt>0</asrwt>
<pdfrwt beam="1">  1        2 0.10011709E-01 0.27325056E+03</pdfrwt>
<pdfrwt beam="2">  1       -2 0.44129316E-01 0.27325056E+03</pdfrwt>
<totfact> 0.31356097E+03</totfact>
</mgrwt>
</event>
<event>
 9    1  0.7997082E-001  0.2759309E+03  0.7818608E-02  0.1097932E+00
         -2   -1    0    0    0  501 -0.00000000000E+00  0.00000000000E+00  0.94626992718E+01  0.94626992718E+01  0.00000000000E+00 0. -1.
          2   -1    0    0  501    0  0.00000000000E+00 -0.00000000000E+00 -0.20115260061E+04  0.20115260061E+04  0.00000000000E+00 0. -1.
         35    2    1    2    0    0 -0.88817841970E-15  0.00000000000E+00 -0.20020633068E+04  0.20209887054E+04  0.27593090202E+03 0.  0.
         25    2    3    3    0    0 -0.90433805069E+00  0.39279365136E+02 -0.13275171448E+04  0.13339903771E+04  0.12523925169E+03 0.  0.
         25    2    3    3    0    0  0.90433805069E+00 -0.39279365136E+02 -0.67454616204E+03  0.68699832826E+03  0.12413900257E+03 0.  0.
          5    1    4    4  502    0 -0.55689250807E+01 -0.45464016485E+02 -0.50322170666E+03  0.50532382268E+03  0.47000000000E+01 0.  1.
         -5    1    4    4    0  502  0.46645870300E+01  0.84743381621E+02 -0.82429543813E+03  0.82866655443E+03  0.47000000000E+01 0.  1.
          5    1    5    5  503    0 -0.50022279952E+01 -0.68726457877E+02 -0.20212239249E+03  0.21359751834E+03  0.47000000000E+01 0.  1.
         -5    1    5    5    0  503  0.59065660459E+01  0.29447092741E+02 -0.47242376955E+03  0.47340080992E+03  0.47000000000E+01 0.  1.
<mgrwt>
<rscale>  0 0.27593090E+03</rscale>
<asrwt>0</asrwt>
<pdfrwt beam="1">  1        2 0.30946545E+00 0.27593090E+03</pdfrwt>
<pdfrwt beam="2">  1       -2 0.14558003E-02 0.27593090E+03</pdfrwt>
<totfact> 0.90308753E+03</totfact>
</mgrwt>
</event>
<event>
 9    1  0.7997082E-001  0.2768589E+03  0.7818608E-02  0.1097417E+00
         -2   -1    0    0    0  501 -0.00000000000E+00  0.00000000000E+00  0.36579243769E+02  0.36579243769E+02  0.00000000000E+00 0.  1.
          2   -1    0    0  501    0  0.00000000000E+00 -0.00000000000E+00 -0.52386840621E+03  0.52386840621E+03  0.00000000000E+00 0.  1.
         35    2    1    2    0    0  0.00000000000E+00  0.14210854715E-13 -0.48728916245E+03  0.56044764998E+03  0.27685888199E+03 0.  0.
         25    2    3    3    0    0 -0.24672607072E+02  0.55883824210E+02 -0.29150860327E+03  0.32264936614E+03  0.12407098106E+03 0.  0.
         25    2    3    3    0    0  0.24672607072E+02 -0.55883824210E+02 -0.19578055917E+03  0.23779828384E+03  0.12035886798E+03 0.  0.
          5    1    4    4  502    0 -0.70799371101E+02  0.40564492162E+02 -0.23014984181E+03  0.24423158816E+03  0.47000000000E+01 0.  1.
         -5    1    4    4    0  502  0.46126764029E+02  0.15319332049E+02 -0.61358761465E+02  0.78417777976E+02  0.47000000000E+01 0.  1.
          5    1    5    5  503    0  0.30189754262E+02 -0.88778399480E+02 -0.17391531745E+03  0.19764021130E+03  0.47000000000E+01 0.  1.
         -5    1    5    5    0  503 -0.55171471896E+01  0.32894575270E+02 -0.21865241721E+02  0.40158072549E+02  0.47000000000E+01 0.  1.
<mgrwt>
<rscale>  0 0.27685888E+03</rscale>
<asrwt>0</asrwt>
<pdfrwt beam="1">  1        2 0.80595134E-01 0.27685888E+03</pdfrwt>
<pdfrwt beam="2">  1       -2 0.56275764E-02 0.27685888E+03</pdfrwt>
<totfact> 0.95943946E+03</totfact>
</mgrwt>
</event>
<event>
 9    1  0.7997082E-001  0.2798120E+03  0.7818608E-02  0.1095792E+00
          2   -1    0    0  501    0  0.00000000000E+00  0.00000000000E+00  0.23998836968E+03  0.23998836968E+03  0.00000000000E+00 0.  1.
         -2   -1    0    0    0  501 -0.00000000000E+00 -0.00000000000E+00 -0.81560990721E+02  0.81560990721E+02  0.00000000000E+00 0.  1.
         35    2    1    2    0    0  0.00000000000E+00 -0.71054273576E-14  0.15842737896E+03  0.32154936040E+03  0.27981200255E+03 0.  0.
         25    2    3    3    0    0  0.27072541175E+02  0.37601764978E+02  0.11269521743E+03  0.17924588435E+03  0.13146124832E+03 0.  0.
         25    2    3    3    0    0 -0.27072541175E+02 -0.37601764978E+02  0.45732161525E+02  0.14230347605E+03  0.12653866398E+03 0.  0.
          5    1    4    4  502    0  0.17015173900E+02 -0.43178104786E+02  0.77455877851E+02  0.90417741010E+02  0.47000000000E+01 0.  1.
         -5    1    4    4    0  502  0.10057367275E+02  0.80779869764E+02  0.35239339583E+02  0.88828143343E+02  0.47000000000E+01 0.  1.
          5    1    5    5  503    0 -0.71907689773E+02 -0.43881120424E+02  0.47368316048E+02  0.96758027798E+02  0.47000000000E+01 0.  1.
         -5    1    5    5    0  503  0.44835148598E+02  0.62793554468E+01 -0.16361545235E+01  0.45545448250E+02  0.47000000000E+01 0.  1.
<mgrwt>
<rscale>  0 0.27981200E+03</rscale>
<asrwt>0</asrwt>
<pdfrwt beam="1">  1        2 0.36921287E-01 0.27981200E+03</pdfrwt>
<pdfrwt beam="2">  1       -2 0.12547845E-01 0.27981200E+03</pdfrwt>
<totfact> 0.63692939E+03</totfact>
</mgrwt>
</event>
<event>
 9    1  0.7997082E-001  0.2762403E+03  0.7818608E-02  0.1097760E+00
         -2   -1    0    0    0  501 -0.00000000000E+00  0.00000000000E+00  0.90972782228E+01  0.90972782228E+01  0.00000000000E+00 0.  1.
          2   -1    0    0  501    0  0.00000000000E+00 -0.00000000000E+00 -0.20970204567E+04  0.20970204567E+04  0.00000000000E+00 0.  1.
         35    2    1    2    0    0 -0.71054273576E-14  0.00000000000E+00 -0.20879231785E+04  0.21061177349E+04  0.27624031953E+03 0.  0.
         25    2    3    3    0    0  0.25634902369E+02  0.42486227492E+02 -0.12949829896E+04  0.13019589510E+04  0.12511570294E+03 0.  0.
         25    2    3    3    0    0 -0.25634902369E+02 -0.42486227492E+02 -0.79294018889E+03  0.80415878388E+03  0.12431805499E+03 0.  0.
          5    1    4    4  502    0 -0.27431810747E+02  0.69499136661E+02 -0.72003329932E+03  0.72391482674E+03  0.47000000000E+01 0. -1.
         -5    1    4    4    0  502  0.53066713116E+02 -0.27012909169E+02 -0.57494969026E+03  0.57804412430E+03  0.47000000000E+01 0. -1.
          5    1    5    5  503    0 -0.63634424873E+02 -0.35385144360E+02 -0.69409269677E+03  0.69791705107E+03  0.47000000000E+01 0. -1.
         -5    1    5    5    0  503  0.37999522504E+02 -0.71010831319E+01 -0.98847492116E+02  0.10624173281E+03  0.47000000000E+01 0. -1.
<mgrwt>
<rscale>  0 0.27624032E+03</rscale>
<asrwt>0</asrwt>
<pdfrwt beam="1">  1        2 0.32261835E+00 0.27624032E+03</pdfrwt>
<pdfrwt beam="2">  1       -2 0.13995820E-02 0.27624032E+03</pdfrwt>
<totfact> 0.86227153E+03</totfact>
</mgrwt>
</event>
<event>
 9    1  0.7997082E-001  0.2744311E+03  0.7818608E-02  0.1098770E+00
         -2   -1    0    0    0  501 -0.00000000000E+00  0.00000000000E+00  0.72939423758E+02  0.72939423758E+02  0.00000000000E+00 0.  1.
          2   -1    0    0  501    0  0.00000000000E+00 -0.00000000000E+00 -0.25813346830E+03  0.25813346830E+03  0.00000000000E+00 0.  1.
         35    2    1    2    0    0  0.71054273576E-14  0.35527136788E-14 -0.18519404454E+03  0.33107289206E+03  0.27443109467E+03 0.  0.
         25    2    3    3    0    0 -0.76633706397E+01  0.34261881917E+01 -0.10964490779E+02  0.11700365484E+03  0.11618592502E+03 0.  0.
         25    2    3    3    0    0  0.76633706397E+01 -0.34261881917E+01 -0.17422955377E+03  0.21406923722E+03  0.12409365375E+03 0.  0.
          5    1    4    4  502    0  0.49872613507E+02  0.22689156276E+02 -0.11322271940E+02  0.56145874580E+02  0.47000000000E+01 0.  1.
         -5    1    4    4    0  502 -0.57535984146E+02 -0.19262968084E+02  0.35778116107E+00  0.60857780262E+02  0.47000000000E+01 0.  1.
          5    1    5    5  503    0 -0.33469514137E+02 -0.33175551605E+02 -0.19604621654E+02  0.51256773124E+02  0.47000000000E+01 0. -1.
         -5    1    5    5    0  503  0.41132884777E+02  0.29749363413E+02 -0.15462493211E+03  0.16281246409E+03  0.47000000000E+01 0. -1.
<mgrwt>
<rscale>  0 0.27443109E+03</rscale>
<asrwt>0</asrwt>
<pdfrwt beam="1">  1        2 0.39712841E-01 0.27443109E+03</pdfrwt>
<pdfrwt beam="2">  1       -2 0.11221450E-01 0.27443109E+03</pdfrwt>
<totfact> 0.70442919E+03</totfact>
</mgrwt>
</event>
<event>
 9    1  0.7997082E-001  0.2661116E+03  0.7818608E-02  0.1103526E+00
         -1   -1    0    0    0  501 -0.00000000000E+00  0.00000000000E+00  0.18178965930E+03  0.18178965930E+03  0.00000000000E+00 0.  1.
          1   -1    0    0  501    0  0.00000000000E+00 -0.00000000000E+00 -0.97386435639E+02  0.97386435639E+02  0.00000000000E+00 0.  1.
         35    2    1    2    0    0 -0.35527136788E-14  0.17763568394E-14  0.84403223663E+02  0.27917609494E+03  0.26611160783E+03 0.  0.
         25    2    3    3    0    0 -0.12794029499E+02 -0.60112309392E+01 -0.11137697461E+02  0.12152105031E+03  0.12018109367E+03 0.  0.
         25    2    3    3    0    0  0.12794029499E+02  0.60112309392E+01  0.95540921124E+02  0.15765504463E+03  0.12460827982E+03 0.  0.
          5    1    4    4  502    0  0.13248092089E+02  0.98622539477E+01  0.50092720914E+02  0.52954194220E+02  0.47000000000E+01 0. -1.
         -5    1    4    4    0  502 -0.26042121588E+02 -0.15873484887E+02 -0.61230418375E+02  0.68566856087E+02  0.47000000000E+01 0. -1.
          5    1    5    5  503    0  0.80116590116E+01  0.62915984797E+02  0.71009652676E+02  0.95326117073E+02  0.47000000000E+01 0. -1.
         -5    1    5    5    0  503  0.47823704873E+01 -0.56904753858E+02  0.24531268448E+02  0.62328927560E+02  0.47000000000E+01 0. -1.
<mgrwt>
<rscale>  0 0.26611161E+03</rscale>
<asrwt>0</asrwt>
<pdfrwt beam="1">  1        1 0.14982529E-01 0.26611161E+03</pdfrwt>
<pdfrwt beam="2">  1       -1 0.27967640E-01 0.26611161E+03</pdfrwt>
<totfact> 0.42667714E+03</totfact>
</mgrwt>
</event>
<event>
 9    1  0.7997082E-001  0.2740809E+03  0.7818608E-02  0.1098966E+00
         -2   -1    0    0    0  501 -0.00000000000E+00  0.00000000000E+00  0.95334078373E+02  0.95334078373E+02  0.00000000000E+00 0.  1.
          2   -1    0    0  501    0  0.00000000000E+00 -0.00000000000E+00 -0.19699232102E+03  0.19699232102E+03  0.00000000000E+00 0.  1.
         35    2    1    2    0    0  0.00000000000E+00  0.00000000000E+00 -0.10165824265E+03  0.29232639940E+03  0.27408087399E+03 0.  0.
         25    2    3    3    0    0  0.23412214361E+02 -0.45831357390E+01 -0.10511283711E+03  0.16537085408E+03  0.12541799688E+03 0.  0.
         25    2    3    3    0    0 -0.23412214361E+02  0.45831357390E+01  0.34545944571E+01  0.12695554531E+03  0.12464605629E+03 0.  0.
          5    1    4    4  502    0  0.39430119588E+02 -0.58244327639E+02 -0.48254121819E+02  0.85426496507E+02  0.47000000000E+01 0. -1.
         -5    1    4    4    0  502 -0.16017905227E+02  0.53661191900E+02 -0.56858715289E+02  0.79944357577E+02  0.47000000000E+01 0. -1.
          5    1    5    5  503    0  0.29275370837E+02 -0.44663354344E+02  0.94468203239E+01  0.54435236502E+02  0.47000000000E+01 0. -1.
         -5    1    5    5    0  503 -0.52687585197E+02  0.49246490083E+02 -0.59922258668E+01  0.72520308812E+02  0.47000000000E+01 0. -1.
<mgrwt>
<rscale>  0 0.27408087E+03</rscale>
<asrwt>0</asrwt>
<pdfrwt beam="1">  1        2 0.30306511E-01 0.27408087E+03</pdfrwt>
<pdfrwt beam="2">  1       -2 0.14666781E-01 0.27408087E+03</pdfrwt>
<totfact> 0.61145707E+03</totfact>
</mgrwt>
</event>
<event>
 9    1  0.7997082E-001  0.2564067E+03  0.7818608E-02  0.1109322E+00
          2   -1    0    0  501    0  0.00000000000E+00  0.00000000000E+00  0.68754313479E+02  0.68754313479E+02  0.00000000000E+00 0.  1.
         -2   -1    0    0    0  501 -0.00000000000E+00 -0.00000000000E+00 -0.23905549589E+03  0.23905549589E+03  0.00000000000E+00 0.  1.
         35    2    1    2    0    0  0.00000000000E+00 -0.17763568394E-14 -0.17030118241E+03  0.30780980937E+03  0.25640668091E+03 0.  0.
         25    2    3    3    0    0  0.25920179681E+02 -0.45404618487E+01 -0.95378386383E+02  0.15937083052E+03  0.12493819882E+03 0.  0.
         25    2    3    3    0    0 -0.25920179681E+02  0.45404618487E+01 -0.74922796029E+02  0.14843897884E+03  0.12541225445E+03 0.  0.
          5    1    4    4  502    0  0.29019517783E+02 -0.42109216210E+02 -0.10779620084E+03  0.11940447822E+03  0.47000000000E+01 0. -1.
         -5    1    4    4    0  502 -0.30993381017E+01  0.37568754361E+02  0.12417814459E+02  0.39966352309E+02  0.47000000000E+01 0. -1.
          5    1    5    5  503    0  0.45049289879E+02 -0.95758232354E+01 -0.31331846471E+01  0.46400880975E+02  0.47000000000E+01 0.  1.
         -5    1    5    5    0  503 -0.70969469560E+02  0.14116285084E+02 -0.71789611382E+02  0.10203809787E+03  0.47000000000E+01 0.  1.
<mgrwt>
<rscale>  0 0.25640668E+03</rscale>
<asrwt>0</asrwt>
<pdfrwt beam="1">  1        2 0.10577586E-01 0.25640668E+03</pdfrwt>
<pdfrwt beam="2">  1       -2 0.36777769E-01 0.25640668E+03</pdfrwt>
<totfact> 0.41413332E+03</totfact>
</mgrwt>
</event>
<event>
 9    1  0.7997082E-001  0.2763942E+03  0.7818608E-02  0.1097675E+00
          2   -1    0    0  501    0  0.00000000000E+00  0.00000000000E+00  0.68755338982E+02  0.68755338982E+02  0.00000000000E+00 0. -1.
         -2   -1    0    0    0  501 -0.00000000000E+00 -0.00000000000E+00 -0.27777394503E+03  0.27777394503E+03  0.00000000000E+00 0. -1.
         35    2    1    2    0    0 -0.71054273576E-14  0.00000000000E+00 -0.20901860605E+03  0.34652928401E+03  0.27639422390E+03 0.  0.
         25    2    3    3    0    0 -0.64326081222E+01  0.27576502871E+02 -0.39853602863E+02  0.13423366638E+03  0.12501410149E+03 0.  0.
         25    2    3    3    0    0  0.64326081222E+01 -0.27576502871E+02 -0.16916500318E+03  0.21229561763E+03  0.12510311349E+03 0.  0.
          5    1    4    4  502    0 -0.54947680451E+02 -0.59985057477E+01  0.10580091763E+02  0.56473515915E+02  0.47000000000E+01 0. -1.
         -5    1    4    4    0  502  0.48515072328E+02  0.33575008619E+02 -0.50433694626E+02  0.77760150466E+02  0.47000000000E+01 0. -1.
          5    1    5    5  503    0 -0.47248091564E+02  0.20353195106E+02 -0.44080339623E+02  0.67910242591E+02  0.47000000000E+01 0. -1.
         -5    1    5    5    0  503  0.53680699686E+02 -0.47929697977E+02 -0.12508466356E+03  0.14438537504E+03  0.47000000000E+01 0. -1.
<mgrwt>
<rscale>  0 0.27639422E+03</rscale>
<asrwt>0</asrwt>
<pdfrwt beam="1">  1        2 0.10577744E-01 0.27639422E+03</pdfrwt>
<pdfrwt beam="2">  1       -2 0.42734455E-01 0.27639422E+03</pdfrwt>
<totfact> 0.31185706E+03</totfact>
</mgrwt>
</event>
<event>
 9    1  0.7997082E-001  0.2774869E+03  0.7818608E-02  0.1097069E+00
          1   -1    0    0  501    0  0.00000000000E+00  0.00000000000E+00  0.85939881974E+02  0.85939881974E+02  0.00000000000E+00 0. -1.
         -1   -1    0    0    0  501 -0.00000000000E+00 -0.00000000000E+00 -0.22399085978E+03  0.22399085978E+03  0.00000000000E+00 0. -1.
         35    2    1    2    0    0  0.00000000000E+00  0.00000000000E+00 -0.13805097780E+03  0.30993074175E+03  0.27748692259E+03 0.  0.
         25    2    3    3    0    0  0.56774442408E+01  0.37020315971E+02 -0.17075567950E+02  0.13241264903E+03  0.12585228419E+03 0.  0.
         25    2    3    3    0    0 -0.56774442408E+01 -0.37020315971E+02 -0.12097540985E+03  0.17751809272E+03  0.12439809599E+03 0.  0.
          5    1    4    4  502    0 -0.82458315972E+01 -0.23059588284E+02  0.40728073842E+02  0.47755673479E+02  0.47000000000E+01 0.  1.
         -5    1    4    4    0  502  0.13923275838E+02  0.60079904255E+02 -0.57803641792E+02  0.84656975553E+02  0.47000000000E+01 0.  1.
          5    1    5    5  503    0  0.19169635216E+02 -0.62092591515E+01 -0.13399724399E+03  0.13558532815E+03  0.47000000000E+01 0.  1.
         -5    1    5    5    0  503 -0.24847079457E+02 -0.30811056819E+02  0.13021834137E+02  0.41932764566E+02  0.47000000000E+01 0.  1.
<mgrwt>
<rscale>  0 0.27748692E+03</rscale>
<asrwt>0</asrwt>
<pdfrwt beam="1">  1        1 0.13221520E-01 0.27748692E+03</pdfrwt>
<pdfrwt beam="2">  1       -1 0.34460132E-01 0.27748692E+03</pdfrwt>
<totfact> 0.35256183E+03</totfact>
</mgrwt>
</event>
<event>
 9    1  0.7997082E-001  0.2778958E+03  0.7818608E-02  0.1096844E+00
          1   -1    0    0  501    0  0.00000000000E+00  0.00000000000E+00  0.16756730066E+03  0.16756730066E+03  0.00000000000E+00 0. -1.
         -1   -1    0    0    0  501 -0.00000000000E+00 -0.00000000000E+00 -0.11521654298E+03  0.11521654298E+03  0.00000000000E+00 0. -1.
         35    2    1    2    0    0  0.00000000000E+00 -0.71054273576E-14  0.52350757681E+02  0.28278384363E+03  0.27789584450E+03 0.  0.
         25    2    3    3    0    0  0.17629816138E+02 -0.49343440748E+02 -0.72281003710E+01  0.13464430332E+03  0.12381945493E+03 0.  0.
         25    2    3    3    0    0 -0.17629816138E+02  0.49343440748E+02  0.59578858052E+02  0.14813954032E+03  0.12510034979E+03 0.  0.
          5    1    4    4  502    0 -0.51568310597E+02 -0.33156916268E+02 -0.14126243315E+02  0.63089717897E+02  0.47000000000E+01 0. -1.
         -5    1    4    4    0  502  0.69198126735E+02 -0.16186524480E+02  0.68981429441E+01  0.71554585419E+02  0.47000000000E+01 0. -1.
          5    1    5    5  503    0  0.36745982303E+02  0.18975470998E+02  0.73206643286E+02  0.84211865769E+02  0.47000000000E+01 0.  1.
         -5    1    5    5    0  503 -0.54375798442E+02  0.30367969750E+02 -0.13627785234E+02  0.63927674549E+02  0.47000000000E+01 0.  1.
<mgrwt>
<rscale>  0 0.27789584E+03</rscale>
<asrwt>0</asrwt>
<pdfrwt beam="1">  1        1 0.25779585E-01 0.27789584E+03</pdfrwt>
<pdfrwt beam="2">  1       -1 0.17725622E-01 0.27789584E+03</pdfrwt>
<totfact> 0.44890172E+03</totfact>
</mgrwt>
</event>
<event>
 9    1  0.7997082E-001  0.2762364E+03  0.7818608E-02  0.1097762E+00
          1   -1    0    0  501    0  0.00000000000E+00  0.00000000000E+00  0.35922397515E+03  0.35922397515E+03  0.00000000000E+00 0.  1.
         -1   -1    0    0    0  501 -0.00000000000E+00 -0.00000000000E+00 -0.53105124633E+02  0.53105124633E+02  0.00000000000E+00 0.  1.
         35    2    1    2    0    0  0.00000000000E+00  0.00000000000E+00  0.30611885052E+03  0.41232909978E+03  0.27623637683E+03 0.  0.
         25    2    3    3    0    0 -0.40613748131E+02  0.25858148000E+02  0.20387421275E+03  0.24384403076E+03  0.12480823834E+03 0.  0.
         25    2    3    3    0    0  0.40613748131E+02 -0.25858148000E+02  0.10224463777E+03  0.16848506902E+03  0.12496052247E+03 0.  0.
          5    1    4    4  502    0 -0.30107087579E+02 -0.38230001063E+02  0.28080526718E+02  0.56378858489E+02  0.47000000000E+01 0.  1.
         -5    1    4    4    0  502 -0.10506660551E+02  0.64088149062E+02  0.17579368603E+03  0.18746517227E+03  0.47000000000E+01 0.  1.
          5    1    5    5  503    0  0.73991514723E+00  0.10706406619E+02  0.11259506114E+03  0.11320296997E+03  0.47000000000E+01 0. -1.
         -5    1    5    5    0  503  0.39873832983E+02 -0.36564554619E+02 -0.10350423376E+02  0.55282099049E+02  0.47000000000E+01 0. -1.
<mgrwt>
<rscale>  0 0.27623638E+03</rscale>
<asrwt>0</asrwt>
<pdfrwt beam="1">  1        1 0.55265225E-01 0.27623638E+03</pdfrwt>
<pdfrwt beam="2">  1       -1 0.81700194E-02 0.27623638E+03</pdfrwt>
<totfact> 0.57679125E+03</totfact>
</mgrwt>
</event>
<event>
 9    1  0.7997082E-001  0.2735357E+03  0.7818608E-02  0.1099273E+00
          1   -1    0    0  501    0  0.00000000000E+00  0.00000000000E+00  0.59046268743E+03  0.59046268743E+03  0.00000000000E+00 0.  1.
         -1   -1    0    0    0  501 -0.00000000000E+00 -0.00000000000E+00 -0.31679290949E+02  0.31679290949E+02  0.00000000000E+00 0.  1.
         35    2    1    2    0    0  0.00000000000E+00  0.00000000000E+00  0.55878339648E+03  0.62214197838E+03  0.27353565961E+03 0.  0.
         25    2    3    3    0    0  0.37269319682E+02  0.38110976812E+01  0.18030359324E+03  0.22169395596E+03  0.12343134820E+03 0.  0.
         25    2    3    3    0    0 -0.37269319682E+02 -0.38110976812E+01  0.37847980324E+03  0.40044802242E+03  0.12533208107E+03 0.  0.
          5    1    4    4  502    0  0.14366763289E+02 -0.48101907378E+02  0.24991217667E+02  0.56274757586E+02  0.47000000000E+01 0.  1.
         -5    1    4    4    0  502  0.22902556392E+02  0.51913005060E+02  0.15531237557E+03  0.16541919837E+03  0.47000000000E+01 0.  1.
          5    1    5    5  503    0 -0.42321098716E+02  0.56137871011E+02  0.20588961897E+03  0.21761241040E+03  0.47000000000E+01 0. -1.
         -5    1    5    5    0  503  0.50517790343E+01 -0.59948968692E+02  0.17259018427E+03  0.18283561203E+03  0.47000000000E+01 0. -1.
<mgrwt>
<rscale>  0 0.27353566E+03</rscale>
<asrwt>0</asrwt>
<pdfrwt beam="1">  1        1 0.90840405E-01 0.27353566E+03</pdfrwt>
<pdfrwt beam="2">  1       -1 0.48737375E-02 0.27353566E+03</pdfrwt>
<totfact> 0.65523300E+03</totfact>
</mgrwt>
</event>
<event>
 9    1  0.7997082E-001  0.2747000E+03  0.7818608E-02  0.1098619E+00
          1   -1    0    0  501    0  0.00000000000E+00  0.00000000000E+00  0.84717477612E+02  0.84717477612E+02  0.00000000000E+00 0.  1.
         -1   -1    0    0    0  501 -0.00000000000E+00 -0.00000000000E+00 -0.22268153929E+03  0.22268153929E+03  0.00000000000E+00 0.  1.
         35    2    1    2    0    0 -0.17763568394E-14  0.71054273576E-14 -0.13796406168E+03  0.30739901690E+03  0.27469996956E+03 0.  0.
         25    2    3    3    0    0  0.13376879529E+02 -0.31375386899E+02 -0.17979970088E+02  0.13094193116E+03  0.12513654224E+03 0.  0.
         25    2    3    3    0    0 -0.13376879529E+02  0.31375386899E+02 -0.11998409159E+03  0.17645708574E+03  0.12481011603E+03 0.  0.
          5    1    4    4  502    0  0.93951393061E+01  0.48435483183E+02 -0.44850094479E+01  0.49764143552E+02  0.47000000000E+01 0. -1.
         -5    1    4    4    0  502  0.39817402234E+01 -0.79810870083E+02 -0.13494960640E+02  0.81177787610E+02  0.47000000000E+01 0. -1.
          5    1    5    5  503    0 -0.32320446571E+02  0.13857979582E+02  0.15312432161E+02  0.38642145946E+02  0.47000000000E+01 0. -1.
         -5    1    5    5    0  503  0.18943567042E+02  0.17517407317E+02 -0.13529652375E+03  0.13781493980E+03  0.47000000000E+01 0. -1.
<mgrwt>
<rscale>  0 0.27469997E+03</rscale>
<asrwt>0</asrwt>
<pdfrwt beam="1">  1        1 0.13033458E-01 0.27469997E+03</pdfrwt>
<pdfrwt beam="2">  1       -1 0.34258698E-01 0.27469997E+03</pdfrwt>
<totfact> 0.36287407E+03</totfact>
</mgrwt>
</event>
<event>
 9    1  0.7997082E-001  0.2745920E+03  0.7818608E-02  0.1098680E+00
         -1   -1    0    0    0  501 -0.00000000000E+00  0.00000000000E+00  0.12844808619E+02  0.12844808619E+02  0.00000000000E+00 0. -1.
          1   -1    0    0  501    0  0.00000000000E+00 -0.00000000000E+00 -0.14675337502E+04  0.14675337502E+04  0.00000000000E+00 0. -1.
         35    2    1    2    0    0 -0.14210854715E-13  0.17763568394E-14 -0.14546889416E+04  0.14803785588E+04  0.27459198942E+03 0.  0.
         25    2    3    3    0    0  0.44226098523E+02  0.95804964431E+01 -0.90871227805E+03  0.91841172449E+03  0.12519727511E+03 0.  0.
         25    2    3    3    0    0 -0.44226098523E+02 -0.95804964431E+01 -0.54597666355E+03  0.56196683435E+03  0.12517376749E+03 0.  0.
          5    1    4    4  502    0 -0.30553136914E+02  0.41407155002E+02 -0.34129557188E+03  0.34518517356E+03  0.47000000000E+01 0. -1.
         -5    1    4    4    0  502  0.74779235437E+02 -0.31826658559E+02 -0.56741670618E+03  0.57322655093E+03  0.47000000000E+01 0. -1.
          5    1    5    5  503    0  0.27928967929E+02  0.15484278042E+02 -0.46164665397E+02  0.56329889466E+02  0.47000000000E+01 0. -1.
         -5    1    5    5    0  503 -0.72155066452E+02 -0.25064774485E+02 -0.49981199815E+03  0.50563694488E+03  0.47000000000E+01 0. -1.
<mgrwt>
<rscale>  0 0.27459199E+03</rscale>
<asrwt>0</asrwt>
<pdfrwt beam="1">  1        1 0.22577454E+00 0.27459199E+03</pdfrwt>
<pdfrwt beam="2">  1       -1 0.19761234E-02 0.27459199E+03</pdfrwt>
<totfact> 0.52485190E+03</totfact>
</mgrwt>
</event>
<event>
 9    1  0.7997082E-001  0.2772330E+03  0.7818608E-02  0.1097210E+00
          1   -1    0    0  501    0  0.00000000000E+00  0.00000000000E+00  0.30543489625E+04  0.30543489625E+04  0.00000000000E+00 0.  1.
         -1   -1    0    0    0  501 -0.00000000000E+00 -0.00000000000E+00 -0.62908782871E+01  0.62908782871E+01  0.00000000000E+00 0.  1.
         35    2    1    2    0    0  0.00000000000E+00  0.00000000000E+00  0.30480580842E+04  0.30606398408E+04  0.27723302523E+03 0.  0.
         25    2    3    3    0    0 -0.35638307659E+02  0.48169652274E+02  0.15119175583E+04  0.15182502427E+04  0.12489472392E+03 0.  0.
         25    2    3    3    0    0  0.35638307659E+02 -0.48169652274E+02  0.15361405260E+04  0.15423895981E+04  0.12509017742E+03 0.  0.
          5    1    4    4  502    0  0.38742536456E+02  0.12383262936E+02  0.87935928887E+03  0.88031197779E+03  0.47000000000E+01 0. -1.
         -5    1    4    4    0  502 -0.74380844116E+02  0.35786389338E+02  0.63255826939E+03  0.63793826489E+03  0.47000000000E+01 0. -1.
          5    1    5    5  503    0  0.65991351420E+02 -0.42728010738E+02  0.53524994092E+03  0.54101305956E+03  0.47000000000E+01 0. -1.
         -5    1    5    5    0  503 -0.30353043761E+02 -0.54416415365E+01  0.10008905850E+04  0.10013765385E+04  0.47000000000E+01 0. -1.
<mgrwt>
<rscale>  0 0.27723303E+03</rscale>
<asrwt>0</asrwt>
<pdfrwt beam="1">  1        1 0.46989866E+00 0.27723303E+03</pdfrwt>
<pdfrwt beam="2">  1       -1 0.96782987E-03 0.27723303E+03</pdfrwt>
<totfact> 0.13069278E+03</totfact>
</mgrwt>
</event>
<event>
 9    1  0.7997082E-001  0.2754377E+03  0.7818608E-02  0.1098207E+00
          3   -1    0    0  501    0  0.00000000000E+00  0.00000000000E+00  0.71844012477E+02  0.71844012477E+02  0.00000000000E+00 0.  1.
         -3   -1    0    0    0  501 -0.00000000000E+00 -0.00000000000E+00 -0.26399534615E+03  0.26399534615E+03  0.00000000000E+00 0.  1.
         35    2    1    2    0    0  0.71054273576E-14  0.71054273576E-14 -0.19215133368E+03  0.33583935863E+03  0.27543772395E+03 0.  0.
         25    2    3    3    0    0 -0.19153092144E+02 -0.23795703886E+02 -0.37237720344E+02  0.13384189397E+03  0.12487565137E+03 0.  0.
         25    2    3    3    0    0  0.19153092144E+02  0.23795703886E+02 -0.15491361333E+03  0.20199746466E+03  0.12598282292E+03 0.  0.
          5    1    4    4  502    0 -0.36163917144E+02 -0.43321867001E+02  0.28235336948E+02  0.63276672765E+02  0.47000000000E+01 0.  1.
         -5    1    4    4    0  502  0.17010825000E+02  0.19526163115E+02 -0.65473057292E+02  0.70565221209E+02  0.47000000000E+01 0.  1.
          5    1    5    5  503    0 -0.63432896009E+01  0.50104653594E+02 -0.90424587474E+01  0.51522516388E+02  0.47000000000E+01 0. -1.
         -5    1    5    5    0  503  0.25496381745E+02 -0.26308949708E+02 -0.14587115459E+03  0.15047494827E+03  0.47000000000E+01 0. -1.
<mgrwt>
<rscale>  0 0.27543772E+03</rscale>
<asrwt>0</asrwt>
<pdfrwt beam="1">  1        3 0.11052925E-01 0.27543772E+03</pdfrwt>
<pdfrwt beam="2">  1       -3 0.40614669E-01 0.27543772E+03</pdfrwt>
<totfact> 0.95675114E+02</totfact>
</mgrwt>
</event>
<event>
 9    1  0.7997082E-001  0.2780775E+03  0.7818608E-02  0.1096744E+00
          1   -1    0    0  501    0  0.00000000000E+00  0.00000000000E+00  0.85441222717E+03  0.85441222717E+03  0.00000000000E+00 0.  1.
         -1   -1    0    0    0  501 -0.00000000000E+00 -0.00000000000E+00 -0.22625818605E+02  0.22625818605E+02  0.00000000000E+00 0.  1.
         35    2    1    2    0    0 -0.71054273576E-14  0.35527136788E-14  0.83178640856E+03  0.87703804577E+03  0.27807751484E+03 0.  0.
         25    2    3    3    0    0 -0.47311538616E+02  0.17880537641E+02  0.52780364291E+03  0.54441569485E+03  0.12350574085E+03 0.  0.
         25    2    3    3    0    0  0.47311538616E+02 -0.17880537641E+02  0.30398276565E+03  0.33262235092E+03  0.12519589132E+03 0.  0.
          5    1    4    4  502    0  0.25360345098E+02  0.41262971068E+02  0.11981114645E+03  0.12931581767E+03  0.47000000000E+01 0. -1.
         -5    1    4    4    0  502 -0.72671883715E+02 -0.23382433428E+02  0.40799249646E+03  0.41509987719E+03  0.47000000000E+01 0. -1.
          5    1    5    5  503    0 -0.42962480044E+02 -0.76125319866E+01  0.10674002568E+03  0.11540904825E+03  0.47000000000E+01 0. -1.
         -5    1    5    5    0  503  0.90274018660E+02 -0.10268005654E+02  0.19724273997E+03  0.21721330267E+03  0.47000000000E+01 0. -1.
<mgrwt>
<rscale>  0 0.27807751E+03</rscale>
<asrwt>0</asrwt>
<pdfrwt beam="1">  1        1 0.13144801E+00 0.27807751E+03</pdfrwt>
<pdfrwt beam="2">  1       -1 0.34808958E-02 0.27807751E+03</pdfrwt>
<totfact> 0.62774318E+03</totfact>
</mgrwt>
</event>
<event>
 9    1  0.7997082E-001  0.2812336E+03  0.7818608E-02  0.1095017E+00
          2   -1    0    0  501    0  0.00000000000E+00  0.00000000000E+00  0.12972519215E+03  0.12972519215E+03  0.00000000000E+00 0.  1.
         -2   -1    0    0    0  501 -0.00000000000E+00 -0.00000000000E+00 -0.15242284440E+03  0.15242284440E+03  0.00000000000E+00 0.  1.
         35    2    1    2    0    0  0.00000000000E+00  0.00000000000E+00 -0.22697652251E+02  0.28214803656E+03  0.28123358817E+03 0.  0.
         25    2    3    3    0    0  0.30848493674E+02 -0.56077818195E+02 -0.73285342188E+01  0.14108620391E+03  0.12551995166E+03 0.  0.
         25    2    3    3    0    0 -0.30848493674E+02  0.56077818195E+02 -0.15369118032E+02  0.14106183265E+03  0.12476329422E+03 0.  0.
          5    1    4    4  502    0 -0.26031792684E+02 -0.66129995036E+02 -0.32022243971E+02  0.78091898317E+02  0.47000000000E+01 0.  1.
         -5    1    4    4    0  502  0.56880286358E+02  0.10052176841E+02  0.24693709753E+02  0.62994305590E+02  0.47000000000E+01 0.  1.
          5    1    5    5  503    0 -0.87602195793E+00  0.50370935549E+02  0.48522134692E+02  0.70103395907E+02  0.47000000000E+01 0.  1.
         -5    1    5    5    0  503 -0.29972471716E+02  0.57068826458E+01 -0.63891252724E+02  0.70958436743E+02  0.47000000000E+01 0.  1.
<mgrwt>
<rscale>  0 0.28123359E+03</rscale>
<asrwt>0</asrwt>
<pdfrwt beam="1">  1        2 0.19957722E-01 0.28123359E+03</pdfrwt>
<pdfrwt beam="2">  1       -2 0.23449668E-01 0.28123359E+03</pdfrwt>
<totfact> 0.44096664E+03</totfact>
</mgrwt>
</event>
<event>
 9    1  0.7997082E-001  0.2764366E+03  0.7818608E-02  0.1097651E+00
          1   -1    0    0  501    0  0.00000000000E+00  0.00000000000E+00  0.49519963271E+03  0.49519963271E+03  0.00000000000E+00 0. -1.
         -1   -1    0    0    0  501 -0.00000000000E+00 -0.00000000000E+00 -0.38578973071E+02  0.38578973071E+02  0.00000000000E+00 0. -1.
         35    2    1    2    0    0  0.71054273576E-14  0.71054273576E-14  0.45662065964E+03  0.53377860578E+03  0.27643656267E+03 0.  0.
         25    2    3    3    0    0 -0.93327435789E+01 -0.30662110544E+02  0.13253412723E+03  0.18496127285E+03  0.12497244675E+03 0.  0.
         25    2    3    3    0    0  0.93327435789E+01  0.30662110544E+02  0.32408653241E+03  0.34881733293E+03  0.12495673708E+03 0.  0.
          5    1    4    4  502    0 -0.62373270012E+02 -0.17032052137E+01  0.39744900529E+02  0.74128758509E+02  0.47000000000E+01 0. -1.
         -5    1    4    4    0  502  0.53040526433E+02 -0.28958905331E+02  0.92789226705E+02  0.11083251434E+03  0.47000000000E+01 0. -1.
          5    1    5    5  503    0  0.41786919194E+02  0.55209924117E+02  0.28068643053E+03  0.28913879819E+03  0.47000000000E+01 0. -1.
         -5    1    5    5    0  503 -0.32454175615E+02 -0.24547813573E+02  0.43400101879E+02  0.59678534743E+02  0.47000000000E+01 0. -1.
<mgrwt>
<rscale>  0 0.27643656E+03</rscale>
<asrwt>0</asrwt>
<pdfrwt beam="1">  1        1 0.76184554E-01 0.27643656E+03</pdfrwt>
<pdfrwt beam="2">  1       -1 0.59352270E-02 0.27643656E+03</pdfrwt>
<totfact> 0.61851515E+03</totfact>
</mgrwt>
</event>
<event>
 9    1  0.7997082E-001  0.2729141E+03  0.7818608E-02  0.1099623E+00
          1   -1    0    0  501    0  0.00000000000E+00  0.00000000000E+00  0.21639046084E+04  0.21639046084E+04  0.00000000000E+00 0.  1.
         -1   -1    0    0    0  501 -0.00000000000E+00 -0.00000000000E+00 -0.86050607585E+01  0.86050607585E+01  0.00000000000E+00 0.  1.
         35    2    1    2    0    0  0.00000000000E+00  0.00000000000E+00  0.21552995476E+04  0.21725096691E+04  0.27291413031E+03 0.  0.
         25    2    3    3    0    0 -0.36509918122E+02 -0.38244004988E+02  0.95838360776E+03  0.96792592608E+03  0.12484342486E+03 0.  0.
         25    2    3    3    0    0  0.36509918122E+02  0.38244004988E+02  0.11969159399E+04  0.12045837430E+04  0.12497459297E+03 0.  0.
          5    1    4    4  502    0  0.28290494175E+01 -0.68002527334E+02  0.77398511882E+03  0.77698610116E+03  0.47000000000E+01 0. -1.
         -5    1    4    4    0  502 -0.39338967540E+02  0.29758522346E+02  0.18439848893E+03  0.19093982492E+03  0.47000000000E+01 0. -1.
          5    1    5    5  503    0  0.66811138420E+02  0.45356067629E+02  0.46440989865E+03  0.47140168122E+03  0.47000000000E+01 0. -1.
         -5    1    5    5    0  503 -0.30301220297E+02 -0.71120626418E+01  0.73250604120E+03  0.73318206182E+03  0.47000000000E+01 0. -1.
<mgrwt>
<rscale>  0 0.27291413E+03</rscale>
<asrwt>0</asrwt>
<pdfrwt beam="1">  1        1 0.33290797E+00 0.27291413E+03</pdfrwt>
<pdfrwt beam="2">  1       -1 0.13238572E-02 0.27291413E+03</pdfrwt>
<totfact> 0.33038021E+03</totfact>
</mgrwt>
</event>
<event>
 9    1  0.7997082E-001  0.2697845E+03  0.7818608E-02  0.1101403E+00
          2   -1    0    0  501    0  0.00000000000E+00  0.00000000000E+00  0.58488886501E+03  0.58488886501E+03  0.00000000000E+00 0.  1.
         -2   -1    0    0    0  501 -0.00000000000E+00 -0.00000000000E+00 -0.31110046460E+02  0.31110046460E+02  0.00000000000E+00 0.  1.
         35    2    1    2    0    0 -0.21316282073E-13  0.71054273576E-14  0.55377881855E+03  0.61599891147E+03  0.26978450485E+03 0.  0.
         25    2    3    3    0    0 -0.49909026512E+02  0.59971997444E+01  0.30344266815E+03  0.33159156698E+03  0.12388961661E+03 0.  0.
         25    2    3    3    0    0  0.49909026512E+02 -0.59971997444E+01  0.25033615040E+03  0.28440734449E+03  0.12526959755E+03 0.  0.
          5    1    4    4  502    0 -0.40482274599E+02 -0.39231531524E+02  0.26596993204E+03  0.27191914675E+03  0.47000000000E+01 0. -1.
         -5    1    4    4    0  502 -0.94267519137E+01  0.45228731269E+02  0.37472736112E+02  0.59672420225E+02  0.47000000000E+01 0. -1.
          5    1    5    5  503    0 -0.14818979851E+02 -0.52737572693E+02  0.99595288202E+02  0.11376363729E+03  0.47000000000E+01 0. -1.
         -5    1    5    5    0  503  0.64728006364E+02  0.46740372948E+02  0.15074086219E+03  0.17064370720E+03  0.47000000000E+01 0. -1.
<mgrwt>
<rscale>  0 0.26978450E+03</rscale>
<asrwt>0</asrwt>
<pdfrwt beam="1">  1        2 0.89982894E-01 0.26978450E+03</pdfrwt>
<pdfrwt beam="2">  1       -2 0.47861614E-02 0.26978450E+03</pdfrwt>
<totfact> 0.10816486E+04</totfact>
</mgrwt>
</event>
<event>
 9    1  0.7997082E-001  0.2766879E+03  0.7818608E-02  0.1097512E+00
          1   -1    0    0  501    0  0.00000000000E+00  0.00000000000E+00  0.78350181278E+03  0.78350181278E+03  0.00000000000E+00 0. -1.
         -1   -1    0    0    0  501 -0.00000000000E+00 -0.00000000000E+00 -0.24427581636E+02  0.24427581636E+02  0.00000000000E+00 0. -1.
         35    2    1    2    0    0 -0.35527136788E-14 -0.71054273576E-14  0.75907423114E+03  0.80792939441E+03  0.27668794331E+03 0.  0.
         25    2    3    3    0    0 -0.98170125039E+01  0.61671985164E+02  0.36837871664E+03  0.39372594944E+03  0.12416697186E+03 0.  0.
         25    2    3    3    0    0  0.98170125039E+01 -0.61671985164E+02  0.39069551450E+03  0.41420344498E+03  0.12256305025E+03 0.  0.
          5    1    4    4  502    0 -0.41645487791E+02  0.87583859340E+02  0.27427989968E+03  0.29095847202E+03  0.47000000000E+01 0. -1.
         -5    1    4    4    0  502  0.31828475287E+02 -0.25911874177E+02  0.94098816957E+02  0.10276747742E+03  0.47000000000E+01 0. -1.
          5    1    5    5  503    0 -0.55428489493E+02 -0.16848532834E+02  0.15626571073E+03  0.16672508167E+03  0.47000000000E+01 0. -1.
         -5    1    5    5    0  503  0.65245501997E+02 -0.44823452329E+02  0.23442980377E+03  0.24747836331E+03  0.47000000000E+01 0. -1.
<mgrwt>
<rscale>  0 0.27668794E+03</rscale>
<asrwt>0</asrwt>
<pdfrwt beam="1">  1        1 0.12053872E+00 0.27668794E+03</pdfrwt>
<pdfrwt beam="2">  1       -1 0.37580901E-02 0.27668794E+03</pdfrwt>
<totfact> 0.64111190E+03</totfact>
</mgrwt>
</event>
<event>
 9    1  0.7997082E-001  0.2652625E+03  0.7818608E-02  0.1104022E+00
          2   -1    0    0  501    0  0.00000000000E+00  0.00000000000E+00  0.68617337333E+03  0.68617337333E+03  0.00000000000E+00 0. -1.
         -2   -1    0    0    0  501 -0.00000000000E+00 -0.00000000000E+00 -0.25636446439E+02  0.25636446439E+02  0.00000000000E+00 0. -1.
         35    2    1    2    0    0  0.14210854715E-13 -0.71054273576E-14  0.66053692690E+03  0.71180981977E+03  0.26526248836E+03 0.  0.
         25    2    3    3    0    0  0.47339511903E+02 -0.24730451479E+02  0.36021775414E+03  0.38490284847E+03  0.12466253545E+03 0.  0.
         25    2    3    3    0    0 -0.47339511903E+02  0.24730451479E+02  0.30031917275E+03  0.32690697130E+03  0.11757524291E+03 0.  0.
          5    1    4    4  502    0  0.13475326976E+01  0.39920080209E+02  0.22069778411E+03  0.22433241086E+03  0.47000000000E+01 0.  1.
         -5    1    4    4    0  502  0.45991979205E+02 -0.64650531688E+02  0.13951997003E+03  0.16057043761E+03  0.47000000000E+01 0.  1.
          5    1    5    5  503    0  0.29430639237E+02 -0.17987437104E+02  0.13749502772E+03  0.14183329323E+03  0.47000000000E+01 0.  1.
         -5    1    5    5    0  503 -0.76770151140E+02  0.42717888583E+02  0.16282414503E+03  0.18507367808E+03  0.47000000000E+01 0.  1.
<mgrwt>
<rscale>  0 0.26526249E+03</rscale>
<asrwt>0</asrwt>
<pdfrwt beam="1">  1        2 0.10556512E+00 0.26526249E+03</pdfrwt>
<pdfrwt beam="2">  1       -2 0.39440692E-02 0.26526249E+03</pdfrwt>
<totfact> 0.11992738E+04</totfact>
</mgrwt>
</event>
<event>
 9    1  0.7997082E-001  0.2819196E+03  0.7818608E-02  0.1094645E+00
          2   -1    0    0  501    0  0.00000000000E+00  0.00000000000E+00  0.19923893200E+02  0.19923893200E+02  0.00000000000E+00 0.  1.
         -2   -1    0    0    0  501 -0.00000000000E+00 -0.00000000000E+00 -0.99727835789E+03  0.99727835789E+03  0.00000000000E+00 0.  1.
         35    2    1    2    0    0  0.00000000000E+00  0.00000000000E+00 -0.97735446469E+03  0.10172022511E+04  0.28191961616E+03 0.  0.
         25    2    3    3    0    0  0.74096674407E+02 -0.95922789200E+01 -0.58226589926E+03  0.59802845809E+03  0.11411454890E+03 0.  0.
         25    2    3    3    0    0 -0.74096674407E+02  0.95922789200E+01 -0.39508856542E+03  0.41917379299E+03  0.11844562141E+03 0.  0.
          5    1    4    4  502    0  0.31963750156E+02  0.32023933539E+02 -0.45841820600E+03  0.46066968126E+03  0.47000000000E+01 0.  1.
         -5    1    4    4    0  502  0.42132924250E+02 -0.41616212459E+02 -0.12384769327E+03  0.13735877683E+03  0.47000000000E+01 0.  1.
          5    1    5    5  503    0 -0.51758009907E+02 -0.52449097926E+02 -0.20064923608E+03  0.21380366087E+03  0.47000000000E+01 0. -1.
         -5    1    5    5    0  503 -0.22338664500E+02  0.62041376846E+02 -0.19443932934E+03  0.20537013212E+03  0.47000000000E+01 0. -1.
<mgrwt>
<rscale>  0 0.28191962E+03</rscale>
<asrwt>0</asrwt>
<pdfrwt beam="1">  1        2 0.30652146E-02 0.28191962E+03</pdfrwt>
<pdfrwt beam="2">  1       -2 0.15342743E+00 0.28191962E+03</pdfrwt>
<totfact> 0.91060463E+02</totfact>
</mgrwt>
</event>
<event>
 9    1  0.7997082E-001  0.2781496E+03  0.7818608E-02  0.1096704E+00
          1   -1    0    0  501    0  0.00000000000E+00  0.00000000000E+00  0.90747729375E+02  0.90747729375E+02  0.00000000000E+00 0. -1.
         -1   -1    0    0    0  501 -0.00000000000E+00 -0.00000000000E+00 -0.21313812019E+03  0.21313812019E+03  0.00000000000E+00 0. -1.
         35    2    1    2    0    0  0.35527136788E-14  0.00000000000E+00 -0.12239039081E+03  0.30388584956E+03  0.27814960328E+03 0.  0.
         25    2    3    3    0    0 -0.10512867607E+02 -0.63369745578E+02 -0.50851479938E+02  0.14634612395E+03  0.12126446282E+03 0.  0.
         25    2    3    3    0    0  0.10512867607E+02  0.63369745578E+02 -0.71538910876E+02  0.15753972562E+03  0.12479865519E+03 0.  0.
          5    1    4    4  502    0 -0.65305919886E-01  0.31177833798E+02  0.10294132852E+02  0.33168068324E+02  0.47000000000E+01 0.  1.
         -5    1    4    4    0  502 -0.10447561687E+02 -0.94547579376E+02 -0.61145612790E+02  0.11317805562E+03  0.47000000000E+01 0.  1.
          5    1    5    5  503    0  0.37980983165E+02  0.47332495954E+02  0.17120149289E+02  0.63230607834E+02  0.47000000000E+01 0. -1.
         -5    1    5    5    0  503 -0.27468115558E+02  0.16037249624E+02 -0.88659060165E+02  0.94309117784E+02  0.47000000000E+01 0. -1.
<mgrwt>
<rscale>  0 0.27814960E+03</rscale>
<asrwt>0</asrwt>
<pdfrwt beam="1">  1        1 0.13961189E-01 0.27814960E+03</pdfrwt>
<pdfrwt beam="2">  1       -1 0.32790479E-01 0.27814960E+03</pdfrwt>
<totfact> 0.35753674E+03</totfact>
</mgrwt>
</event>
<event>
 9    1  0.7997082E-001  0.2725256E+03  0.7818608E-02  0.1099843E+00
         -1   -1    0    0    0  501 -0.00000000000E+00  0.00000000000E+00  0.45082735851E+02  0.45082735851E+02  0.00000000000E+00 0. -1.
          1   -1    0    0  501    0  0.00000000000E+00 -0.00000000000E+00 -0.41185486094E+03  0.41185486094E+03  0.00000000000E+00 0. -1.
         35    2    1    2    0    0  0.00000000000E+00  0.71054273576E-14 -0.36677212509E+03  0.45693759679E+03  0.27252555040E+03 0.  0.
         25    2    3    3    0    0  0.18104737197E+01 -0.47528957558E+02 -0.22116821679E+03  0.25862003639E+03  0.12532622824E+03 0.  0.
         25    2    3    3    0    0 -0.18104737197E+01  0.47528957558E+02 -0.14560390831E+03  0.19831756040E+03  0.12596458640E+03 0.  0.
          5    1    4    4  502    0  0.69260822273E+01 -0.56405604540E+02 -0.23440092188E+03  0.24123732095E+03  0.47000000000E+01 0.  1.
         -5    1    4    4    0  502 -0.51156085076E+01  0.88766469822E+01  0.13232705097E+02  0.17382715445E+02  0.47000000000E+01 0.  1.
          5    1    5    5  503    0 -0.11986669374E+02 -0.14277686744E+02 -0.13283366496E+03  0.13421775266E+03  0.47000000000E+01 0. -1.
         -5    1    5    5    0  503  0.10176195654E+02  0.61806644302E+02 -0.12770243347E+02  0.64099807746E+02  0.47000000000E+01 0. -1.
<mgrwt>
<rscale>  0 0.27252555E+03</rscale>
<asrwt>0</asrwt>
<pdfrwt beam="1">  1        1 0.63362285E-01 0.27252555E+03</pdfrwt>
<pdfrwt beam="2">  1       -1 0.69358056E-02 0.27252555E+03</pdfrwt>
<totfact> 0.62126366E+03</totfact>
</mgrwt>
</event>
<event>
 9    1  0.7997082E-001  0.2752492E+03  0.7818608E-02  0.1098312E+00
          1   -1    0    0  501    0  0.00000000000E+00  0.00000000000E+00  0.10453761091E+04  0.10453761091E+04  0.00000000000E+00 0.  1.
         -1   -1    0    0    0  501 -0.00000000000E+00 -0.00000000000E+00 -0.18118386301E+02  0.18118386301E+02  0.00000000000E+00 0.  1.
         35    2    1    2    0    0  0.00000000000E+00  0.00000000000E+00  0.10272577228E+04  0.10634944954E+04  0.27524918292E+03 0.  0.
         25    2    3    3    0    0 -0.21755631235E+02  0.31485484081E+02  0.67975510115E+03  0.69224874901E+03  0.12520658833E+03 0.  0.
         25    2    3    3    0    0  0.21755631235E+02 -0.31485484081E+02  0.34750262165E+03  0.37124574640E+03  0.12490271801E+03 0.  0.
          5    1    4    4  502    0 -0.50299472718E+02  0.65775345755E+02  0.36442806774E+03  0.37374635733E+03  0.47000000000E+01 0.  1.
         -5    1    4    4    0  502  0.28543841482E+02 -0.34289861674E+02  0.31532703341E+03  0.31850239167E+03  0.47000000000E+01 0.  1.
          5    1    5    5  503    0  0.58084369496E+02 -0.42016042383E+02  0.11468490656E+03  0.13532870940E+03  0.47000000000E+01 0. -1.
         -5    1    5    5    0  503 -0.36328738261E+02  0.10530558302E+02  0.23281771509E+03  0.23591703699E+03  0.47000000000E+01 0. -1.
<mgrwt>
<rscale>  0 0.27524918E+03</rscale>
<asrwt>0</asrwt>
<pdfrwt beam="1">  1        1 0.16082705E+00 0.27524918E+03</pdfrwt>
<pdfrwt beam="2">  1       -1 0.27874449E-02 0.27524918E+03</pdfrwt>
<totfact> 0.62176082E+03</totfact>
</mgrwt>
</event>
<event>
 9    1  0.7997082E-001  0.2734311E+03  0.7818608E-02  0.1099332E+00
         -2   -1    0    0    0  501 -0.00000000000E+00  0.00000000000E+00  0.73342050143E+02  0.73342050143E+02  0.00000000000E+00 0. -1.
          2   -1    0    0  501    0  0.00000000000E+00 -0.00000000000E+00 -0.25484884721E+03  0.25484884721E+03  0.00000000000E+00 0. -1.
         35    2    1    2    0    0  0.00000000000E+00 -0.71054273576E-14 -0.18150679707E+03  0.32819089735E+03  0.27343106576E+03 0.  0.
         25    2    3    3    0    0  0.19150559617E+02  0.41396231579E+02 -0.11781750742E+03  0.18011763596E+03  0.12837836969E+03 0.  0.
         25    2    3    3    0    0 -0.19150559617E+02 -0.41396231579E+02 -0.63689289641E+02  0.14807326139E+03  0.12565418100E+03 0.  0.
          5    1    4    4  502    0  0.25560689433E+02  0.69619066403E+02 -0.18524520402E+02  0.76585972001E+02  0.47000000000E+01 0.  1.
         -5    1    4    4    0  502 -0.64101298159E+01 -0.28222834824E+02 -0.99292987023E+02  0.10353166396E+03  0.47000000000E+01 0.  1.
          5    1    5    5  503    0  0.42583809798E+02 -0.54846765772E+02 -0.25642216655E+02  0.74169817632E+02  0.47000000000E+01 0.  1.
         -5    1    5    5    0  503 -0.61734369415E+02  0.13450534193E+02 -0.38047072986E+02  0.73903443762E+02  0.47000000000E+01 0.  1.
<mgrwt>
<rscale>  0 0.27343107E+03</rscale>
<asrwt>0</asrwt>
<pdfrwt beam="1">  1        2 0.39207515E-01 0.27343107E+03</pdfrwt>
<pdfrwt beam="2">  1       -2 0.11283392E-01 0.27343107E+03</pdfrwt>
<totfact> 0.70784694E+03</totfact>
</mgrwt>
</event>
<event>
 9    1  0.7997082E-001  0.2744875E+03  0.7818608E-02  0.1098738E+00
          2   -1    0    0  501    0  0.00000000000E+00  0.00000000000E+00  0.84471953225E+03  0.84471953225E+03  0.00000000000E+00 0. -1.
         -2   -1    0    0    0  501 -0.00000000000E+00 -0.00000000000E+00 -0.22298341233E+02  0.22298341233E+02  0.00000000000E+00 0. -1.
         35    2    1    2    0    0  0.00000000000E+00 -0.71054273576E-14  0.82242119101E+03  0.86701787348E+03  0.27448748151E+03 0.  0.
         25    2    3    3    0    0 -0.12805759606E+02  0.49607532764E+02  0.43191882238E+03  0.45276687027E+03  0.12577390392E+03 0.  0.
         25    2    3    3    0    0  0.12805759606E+02 -0.49607532764E+02  0.39050236864E+03  0.41425100320E+03  0.12840131993E+03 0.  0.
          5    1    4    4  502    0  0.19554060118E+02  0.39858010664E+02  0.41799256963E+02  0.61157911703E+02  0.47000000000E+01 0. -1.
         -5    1    4    4    0  502 -0.32359819724E+02  0.97495221000E+01  0.39011956541E+03  0.39160895857E+03  0.47000000000E+01 0. -1.
          5    1    5    5  503    0 -0.30588312109E+02 -0.56298019992E+02  0.34467521156E+03  0.35061118544E+03  0.47000000000E+01 0. -1.
         -5    1    5    5    0  503  0.43394071715E+02  0.66904872274E+01  0.45827157074E+02  0.63639817762E+02  0.47000000000E+01 0. -1.
<mgrwt>
<rscale>  0 0.27448748E+03</rscale>
<asrwt>0</asrwt>
<pdfrwt beam="1">  1        2 0.12995683E+00 0.27448748E+03</pdfrwt>
<pdfrwt beam="2">  1       -2 0.34305147E-02 0.27448748E+03</pdfrwt>
<totfact> 0.11413836E+04</totfact>
</mgrwt>
</event>
<event>
 9    1  0.7997082E-001  0.2750156E+03  0.7818608E-02  0.1098443E+00
         -2   -1    0    0    0  501 -0.00000000000E+00  0.00000000000E+00  0.19660974380E+02  0.19660974380E+02  0.00000000000E+00 0. -1.
          2   -1    0    0  501    0  0.00000000000E+00 -0.00000000000E+00 -0.96172222461E+03  0.96172222461E+03  0.00000000000E+00 0. -1.
         35    2    1    2    0    0  0.35527136788E-14  0.71054273576E-14 -0.94206125023E+03  0.98138319899E+03  0.27501560697E+03 0.  0.
         25    2    3    3    0    0  0.83642600983E+01  0.32153868988E+02 -0.63753593491E+03  0.65051005379E+03  0.12492969878E+03 0.  0.
         25    2    3    3    0    0 -0.83642600983E+01 -0.32153868988E+02 -0.30452531532E+03  0.33087314520E+03  0.12505014358E+03 0.  0.
          5    1    4    4  502    0 -0.83172985468E+01  0.15372324832E+02 -0.62099715988E+03  0.62126085376E+03  0.47000000000E+01 0.  1.
         -5    1    4    4    0  502  0.16681558645E+02  0.16781544155E+02 -0.16538775027E+02  0.29249200031E+02  0.47000000000E+01 0.  1.
          5    1    5    5  503    0 -0.63353645417E+02 -0.37683795913E+02 -0.17882819588E+03  0.19348221237E+03  0.47000000000E+01 0.  1.
         -5    1    5    5    0  503  0.54989385318E+02  0.55299269252E+01 -0.12569711944E+03  0.13739093283E+03  0.47000000000E+01 0.  1.
<mgrwt>
<rscale>  0 0.27501561E+03</rscale>
<asrwt>0</asrwt>
<pdfrwt beam="1">  1        2 0.14795726E+00 0.27501561E+03</pdfrwt>
<pdfrwt beam="2">  1       -2 0.30247653E-02 0.27501561E+03</pdfrwt>
<totfact> 0.11574613E+04</totfact>
</mgrwt>
</event>
<event>
 9    1  0.7997082E-001  0.2746328E+03  0.7818608E-02  0.1098657E+00
          2   -1    0    0  501    0  0.00000000000E+00  0.00000000000E+00  0.96368652713E+03  0.96368652713E+03  0.00000000000E+00 0. -1.
         -2   -1    0    0    0  501 -0.00000000000E+00 -0.00000000000E+00 -0.19566314157E+02  0.19566314157E+02  0.00000000000E+00 0. -1.
         35    2    1    2    0    0  0.00000000000E+00  0.71054273576E-14  0.94412021297E+03  0.98325284128E+03  0.27463279730E+03 0.  0.
         25    2    3    3    0    0  0.30492838657E+02 -0.42511325416E+02  0.55076304016E+03  0.56729051980E+03  0.12546545918E+03 0.  0.
         25    2    3    3    0    0 -0.30492838657E+02  0.42511325416E+02  0.39335717281E+03  0.41596232149E+03  0.12473075602E+03 0.  0.
          5    1    4    4  502    0  0.26162524820E+02 -0.24634193522E+02  0.32497895360E+02  0.48677760818E+02  0.47000000000E+01 0.  1.
         -5    1    4    4    0  502  0.43303138376E+01 -0.17877131894E+02  0.51826514480E+03  0.51861275898E+03  0.47000000000E+01 0.  1.
          5    1    5    5  503    0 -0.63790000298E+02  0.65423453731E+02  0.22803267708E+03  0.24570385477E+03  0.47000000000E+01 0.  1.
         -5    1    5    5    0  503  0.33297161640E+02 -0.22912128315E+02  0.16532449574E+03  0.17025846671E+03  0.47000000000E+01 0.  1.
<mgrwt>
<rscale>  0 0.27463280E+03</rscale>
<asrwt>0</asrwt>
<pdfrwt beam="1">  1        2 0.14825943E+00 0.27463280E+03</pdfrwt>
<pdfrwt beam="2">  1       -2 0.30102029E-02 0.27463280E+03</pdfrwt>
<totfact> 0.11624695E+04</totfact>
</mgrwt>
</event>
<event>
 9    1  0.7997082E-001  0.2764267E+03  0.7818608E-02  0.1097657E+00
         -2   -1    0    0    0  501 -0.00000000000E+00  0.00000000000E+00  0.61367319576E+02  0.61367319576E+02  0.00000000000E+00 0. -1.
          2   -1    0    0  501    0  0.00000000000E+00 -0.00000000000E+00 -0.31128839377E+03  0.31128839377E+03  0.00000000000E+00 0. -1.
         35    2    1    2    0    0  0.35527136788E-14  0.71054273576E-14 -0.24992107420E+03  0.37265571335E+03  0.27642673055E+03 0.  0.
         25    2    3    3    0    0  0.15675147110E+02 -0.59600298007E+02 -0.10303957580E+03  0.16775491322E+03  0.11716079109E+03 0.  0.
         25    2    3    3    0    0 -0.15675147110E+02  0.59600298007E+02 -0.14688149839E+03  0.20490080013E+03  0.12888854706E+03 0.  0.
          5    1    4    4  502    0  0.89967386571E+01  0.22922359132E+02 -0.76782663276E+02  0.80771549660E+02  0.47000000000E+01 0. -1.
         -5    1    4    4    0  502  0.66784084525E+01 -0.82522657139E+02 -0.26256912525E+02  0.86983363559E+02  0.47000000000E+01 0. -1.
          5    1    5    5  503    0  0.46246946387E+02 -0.11486927546E+02 -0.40845008975E+02  0.62937542951E+02  0.47000000000E+01 0.  1.
         -5    1    5    5    0  503 -0.61922093497E+02  0.71087225554E+02 -0.10603648942E+03  0.14196325718E+03  0.47000000000E+01 0.  1.
<mgrwt>
<rscale>  0 0.27642673E+03</rscale>
<asrwt>0</asrwt>
<pdfrwt beam="1">  1        2 0.47890523E-01 0.27642673E+03</pdfrwt>
<pdfrwt beam="2">  1       -2 0.94411259E-02 0.27642673E+03</pdfrwt>
<totfact> 0.75857293E+03</totfact>
</mgrwt>
</event>
<event>
 9    1  0.7997082E-001  0.2736761E+03  0.7818608E-02  0.1099194E+00
         -3   -1    0    0    0  501 -0.00000000000E+00  0.00000000000E+00  0.29088789119E+03  0.29088789119E+03  0.00000000000E+00 0. -1.
          3   -1    0    0  501    0  0.00000000000E+00 -0.00000000000E+00 -0.64370684488E+02  0.64370684488E+02  0.00000000000E+00 0. -1.
         35    2    1    2    0    0  0.35527136788E-14  0.00000000000E+00  0.22651720670E+03  0.35525857568E+03  0.27367610539E+03 0.  0.
         25    2    3    3    0    0  0.29594809724E+02 -0.42283107945E+02  0.14172130632E+03  0.19574934842E+03  0.12477645916E+03 0.  0.
         25    2    3    3    0    0 -0.29594809724E+02  0.42283107945E+02  0.84795900387E+02  0.15950922726E+03  0.12485645710E+03 0.  0.
          5    1    4    4  502    0  0.43463661007E+02  0.35222967007E+02  0.57717738664E+02  0.80518163102E+02  0.47000000000E+01 0.  1.
         -5    1    4    4    0  502 -0.13868851283E+02 -0.77506074952E+02  0.84003567653E+02  0.11523118531E+03  0.47000000000E+01 0.  1.
          5    1    5    5  503    0 -0.32072887084E+02  0.74639480605E+02  0.15486751856E+02  0.82835086974E+02  0.47000000000E+01 0.  1.
         -5    1    5    5    0  503  0.24780773595E+01 -0.32356372660E+02  0.69309148531E+02  0.76674140290E+02  0.47000000000E+01 0.  1.
<mgrwt>
<rscale>  0 0.27367611E+03</rscale>
<asrwt>0</asrwt>
<pdfrwt beam="1">  1        3 0.99031824E-02 0.27367611E+03</pdfrwt>
<pdfrwt beam="2">  1       -3 0.44751982E-01 0.27367611E+03</pdfrwt>
<totfact> 0.94970068E+02</totfact>
</mgrwt>
</event>
<event>
 9    1  0.7997082E-001  0.2761064E+03  0.7818608E-02  0.1097835E+00
         -1   -1    0    0    0  501 -0.00000000000E+00  0.00000000000E+00  0.15229936168E+03  0.15229936168E+03  0.00000000000E+00 0.  1.
          1   -1    0    0  501    0  0.00000000000E+00 -0.00000000000E+00 -0.12513964674E+03  0.12513964674E+03  0.00000000000E+00 0.  1.
         35    2    1    2    0    0  0.00000000000E+00  0.00000000000E+00  0.27159714943E+02  0.27743900842E+03  0.27610641658E+03 0.  0.
         25    2    3    3    0    0  0.40634628775E+01 -0.27067598436E+02  0.70712842504E+02  0.14044786693E+03  0.11822068607E+03 0.  0.
         25    2    3    3    0    0 -0.40634628775E+01  0.27067598436E+02 -0.43553127561E+02  0.13699114149E+03  0.12696665433E+03 0.  0.
          5    1    4    4  502    0 -0.26859238337E+02  0.35857143308E+02  0.69869022074E+01  0.45585745719E+02  0.47000000000E+01 0.  1.
         -5    1    4    4    0  502  0.30922701215E+02 -0.62924741745E+02  0.63725940297E+02  0.94862121212E+02  0.47000000000E+01 0.  1.
          5    1    5    5  503    0  0.15856994896E+02  0.48258119832E+02 -0.77033997339E+02  0.92393815609E+02  0.47000000000E+01 0.  1.
         -5    1    5    5    0  503 -0.19920457773E+02 -0.21190521395E+02  0.33480869778E+02  0.44597325884E+02  0.47000000000E+01 0.  1.
<mgrwt>
<rscale>  0 0.27610642E+03</rscale>
<asrwt>0</asrwt>
<pdfrwt beam="1">  1        1 0.19252253E-01 0.27610642E+03</pdfrwt>
<pdfrwt beam="2">  1       -1 0.23430671E-01 0.27610642E+03</pdfrwt>
<totfact> 0.41404851E+03</totfact>
</mgrwt>
</event>
<event>
 9    1  0.7997082E-001  0.2757820E+03  0.7818608E-02  0.1098015E+00
          3   -1    0    0  501    0  0.00000000000E+00  0.00000000000E+00  0.49994175240E+02  0.49994175240E+02  0.00000000000E+00 0.  1.
         -3   -1    0    0    0  501 -0.00000000000E+00 -0.00000000000E+00 -0.38032289748E+03  0.38032289748E+03  0.00000000000E+00 0.  1.
         35    2    1    2    0    0 -0.35527136788E-14  0.00000000000E+00 -0.33032872224E+03  0.43031707272E+03  0.27578201235E+03 0.  0.
         25    2    3    3    0    0  0.30450617514E+02 -0.48370460120E+02 -0.18555512376E+03  0.23089621748E+03  0.12496166521E+03 0.  0.
         25    2    3    3    0    0 -0.30450617514E+02  0.48370460120E+02 -0.14477359848E+03  0.19942085524E+03  0.12466892624E+03 0.  0.
          5    1    4    4  502    0 -0.41120883461E+01  0.35408878669E+02 -0.99636689632E+02  0.10592571869E+03  0.47000000000E+01 0.  1.
         -5    1    4    4    0  502  0.34562705860E+02 -0.83779338789E+02 -0.85918434124E+02  0.12497049879E+03  0.47000000000E+01 0.  1.
          5    1    5    5  503    0 -0.56762555447E+02 -0.19177225096E+02 -0.41016087025E+02  0.72760999568E+02  0.47000000000E+01 0.  1.
         -5    1    5    5    0  503  0.26311937933E+02  0.67547685216E+02 -0.10375751146E+03  0.12665985567E+03  0.47000000000E+01 0.  1.
<mgrwt>
<rscale>  0 0.27578201E+03</rscale>
<asrwt>0</asrwt>
<pdfrwt beam="1">  1        3 0.76914120E-02 0.27578201E+03</pdfrwt>
<pdfrwt beam="2">  1       -3 0.58511212E-01 0.27578201E+03</pdfrwt>
<totfact> 0.83866162E+02</totfact>
</mgrwt>
</event>
<event>
 9    1  0.7997082E-001  0.2770095E+03  0.7818608E-02  0.1097334E+00
          1   -1    0    0  501    0  0.00000000000E+00  0.00000000000E+00  0.20207202816E+02  0.20207202816E+02  0.00000000000E+00 0. -1.
         -1   -1    0    0    0  501 -0.00000000000E+00 -0.00000000000E+00 -0.94934313510E+03  0.94934313510E+03  0.00000000000E+00 0. -1.
         35    2    1    2    0    0 -0.71054273576E-14  0.35527136788E-14 -0.92913593228E+03  0.96955033791E+03  0.27700952527E+03 0.  0.
         25    2    3    3    0    0  0.51169391234E+02 -0.25624256303E+02 -0.45891139682E+03  0.47936234363E+03  0.12614942427E+03 0.  0.
         25    2    3    3    0    0 -0.51169391234E+02  0.25624256303E+02 -0.47022453546E+03  0.49018799428E+03  0.12608825039E+03 0.  0.
          5    1    4    4  502    0  0.16345883105E+02 -0.96741093809E+01 -0.43170030820E+03  0.43214352059E+03  0.47000000000E+01 0.  1.
         -5    1    4    4    0  502  0.34823508129E+02 -0.15950146922E+02 -0.27211088626E+02  0.47218823042E+02  0.47000000000E+01 0.  1.
          5    1    5    5  503    0 -0.88856856314E+02  0.34361408383E+02 -0.38219020844E+03  0.39391330611E+03  0.47000000000E+01 0.  1.
         -5    1    5    5    0  503  0.37687465080E+02 -0.87371520805E+01 -0.88034327016E+02  0.96274688178E+02  0.47000000000E+01 0.  1.
<mgrwt>
<rscale>  0 0.27700953E+03</rscale>
<asrwt>0</asrwt>
<pdfrwt beam="1">  1        1 0.31088005E-02 0.27700953E+03</pdfrwt>
<pdfrwt beam="2">  1       -1 0.14605279E+00 0.27700953E+03</pdfrwt>
<totfact> 0.13137663E+03</totfact>
</mgrwt>
</event>
<event>
 9    1  0.7997082E-001  0.2741554E+03  0.7818608E-02  0.1098925E+00
         -2   -1    0    0    0  501 -0.00000000000E+00  0.00000000000E+00  0.22177873561E+02  0.22177873561E+02  0.00000000000E+00 0. -1.
          2   -1    0    0  501    0  0.00000000000E+00 -0.00000000000E+00 -0.84725420398E+03  0.84725420398E+03  0.00000000000E+00 0. -1.
         35    2    1    2    0    0  0.71054273576E-14  0.00000000000E+00 -0.82507633042E+03  0.86943207754E+03  0.27415540563E+03 0.  0.
         25    2    3    3    0    0  0.50699972579E+02 -0.19318486029E+02 -0.44145603662E+03  0.46192435642E+03  0.12468756018E+03 0.  0.
         25    2    3    3    0    0 -0.50699972579E+02  0.19318486029E+02 -0.38362029380E+03  0.40750772112E+03  0.12631041856E+03 0.  0.
          5    1    4    4  502    0  0.25845829055E+02  0.27557973342E+02 -0.34132524092E+02  0.51132846344E+02  0.47000000000E+01 0. -1.
         -5    1    4    4    0  502  0.24854143524E+02 -0.46876459371E+02 -0.40732351253E+03  0.41079151008E+03  0.47000000000E+01 0. -1.
          5    1    5    5  503    0 -0.48801163484E+02 -0.45290503498E+02 -0.13526465180E+03  0.15083566982E+03  0.47000000000E+01 0.  1.
         -5    1    5    5    0  503 -0.18988090943E+01  0.64608989527E+02 -0.24835564201E+03  0.25667205130E+03  0.47000000000E+01 0.  1.
<mgrwt>
<rscale>  0 0.27415541E+03</rscale>
<asrwt>0</asrwt>
<pdfrwt beam="1">  1        2 0.13034681E+00 0.27415541E+03</pdfrwt>
<pdfrwt beam="2">  1       -2 0.34119803E-02 0.27415541E+03</pdfrwt>
<totfact> 0.11461364E+04</totfact>
</mgrwt>
</event>
<event>
 9    1  0.7997082E-001  0.2695204E+03  0.7818608E-02  0.1101554E+00
         -3   -1    0    0    0  501 -0.00000000000E+00  0.00000000000E+00  0.75308834802E+03  0.75308834802E+03  0.00000000000E+00 0. -1.
          3   -1    0    0  501    0  0.00000000000E+00 -0.00000000000E+00 -0.24114442752E+02  0.24114442752E+02  0.00000000000E+00 0. -1.
         35    2    1    2    0    0 -0.17763568394E-14  0.71054273576E-14  0.72897390527E+03  0.77720279077E+03  0.26952035809E+03 0.  0.
         25    2    3    3    0    0  0.15872403389E+02 -0.42674309349E+02  0.42584797764E+03  0.44617973018E+03  0.12512722203E+03 0.  0.
         25    2    3    3    0    0 -0.15872403389E+02  0.42674309349E+02  0.30312592763E+03  0.33102306060E+03  0.12497163189E+03 0.  0.
          5    1    4    4  502    0 -0.29034959170E+02  0.39492626140E+01  0.32434574546E+03  0.32570059583E+03  0.47000000000E+01 0.  1.
         -5    1    4    4    0  502  0.44907362559E+02 -0.46623571963E+02  0.10150223218E+03  0.12047913435E+03  0.47000000000E+01 0.  1.
          5    1    5    5  503    0 -0.71951290473E+01  0.77107504210E+02  0.11002980061E+03  0.13463277502E+03  0.47000000000E+01 0. -1.
         -5    1    5    5    0  503 -0.86772743420E+01 -0.34433194862E+02  0.19309612702E+03  0.19639028558E+03  0.47000000000E+01 0. -1.
<mgrwt>
<rscale>  0 0.26952036E+03</rscale>
<asrwt>0</asrwt>
<pdfrwt beam="1">  1        3 0.37099148E-02 0.26952036E+03</pdfrwt>
<pdfrwt beam="2">  1       -3 0.11585973E+00 0.26952036E+03</pdfrwt>
<totfact> 0.59455446E+02</totfact>
</mgrwt>
</event>
<event>
 9    1  0.7997082E-001  0.2754032E+03  0.7818608E-02  0.1098226E+00
         -2   -1    0    0    0  501 -0.00000000000E+00  0.00000000000E+00  0.30288515532E+03  0.30288515532E+03  0.00000000000E+00 0. -1.
          2   -1    0    0  501    0  0.00000000000E+00 -0.00000000000E+00 -0.62603699478E+02  0.62603699478E+02  0.00000000000E+00 0. -1.
         35    2    1    2    0    0 -0.35527136788E-14  0.00000000000E+00  0.24028145584E+03  0.36548885480E+03  0.27540320434E+03 0.  0.
         25    2    3    3    0    0  0.19661352384E+02  0.50566774345E+02  0.12174666441E+03  0.18520095617E+03  0.12858295542E+03 0.  0.
         25    2    3    3    0    0 -0.19661352384E+02 -0.50566774345E+02  0.11853479143E+03  0.18028789863E+03  0.12453779413E+03 0.  0.
          5    1    4    4  502    0 -0.53765530600E+02  0.32292589875E+02  0.45087457395E+02  0.77385479619E+02  0.47000000000E+01 0. -1.
         -5    1    4    4    0  502  0.73426882984E+02  0.18274184470E+02  0.76659207016E+02  0.10781547655E+03  0.47000000000E+01 0. -1.
          5    1    5    5  503    0 -0.10100632197E+01 -0.48027270723E+02  0.14191945297E+03  0.14990283550E+03  0.47000000000E+01 0. -1.
         -5    1    5    5    0  503 -0.18651289165E+02 -0.25395036224E+01 -0.23384661537E+02  0.30385063129E+02  0.47000000000E+01 0. -1.
<mgrwt>
<rscale>  0 0.27540320E+03</rscale>
<asrwt>0</asrwt>
<pdfrwt beam="1">  1        2 0.96313385E-02 0.27540320E+03</pdfrwt>
<pdfrwt beam="2">  1       -2 0.46597715E-01 0.27540320E+03</pdfrwt>
<totfact> 0.29588120E+03</totfact>
</mgrwt>
</event>
<event>
 9    1  0.7997082E-001  0.2722711E+03  0.7818608E-02  0.1099987E+00
         -2   -1    0    0    0  501 -0.00000000000E+00  0.00000000000E+00  0.27159843190E+02  0.27159843190E+02  0.00000000000E+00 0. -1.
          2   -1    0    0  501    0  0.00000000000E+00 -0.00000000000E+00 -0.68236343318E+03  0.68236343318E+03  0.00000000000E+00 0. -1.
         35    2    1    2    0    0  0.00000000000E+00  0.71054273576E-14 -0.65520358999E+03  0.70952327637E+03  0.27227106966E+03 0.  0.
         25    2    3    3    0    0  0.38902919102E+02 -0.88380492525E+01 -0.42211653312E+03  0.44187830554E+03  0.12442877940E+03 0.  0.
         25    2    3    3    0    0 -0.38902919102E+02  0.88380492525E+01 -0.23308705687E+03  0.26764497083E+03  0.12535033347E+03 0.  0.
          5    1    4    4  502    0  0.32331116307E+02 -0.56901300183E+02 -0.34092764099E+03  0.34718410884E+03  0.47000000000E+01 0.  1.
         -5    1    4    4    0  502  0.65718027945E+01  0.48063250931E+02 -0.81188892130E+02  0.94694196693E+02  0.47000000000E+01 0.  1.
          5    1    5    5  503    0 -0.33165090756E+02  0.54396531287E+02 -0.57022532531E+02  0.85630398091E+02  0.47000000000E+01 0. -1.
         -5    1    5    5    0  503 -0.57378283458E+01 -0.45558482034E+02 -0.17606452434E+03  0.18201457274E+03  0.47000000000E+01 0. -1.
<mgrwt>
<rscale>  0 0.27227107E+03</rscale>
<asrwt>0</asrwt>
<pdfrwt beam="1">  1        2 0.10497899E+00 0.27227107E+03</pdfrwt>
<pdfrwt beam="2">  1       -2 0.41784376E-02 0.27227107E+03</pdfrwt>
<totfact> 0.11080360E+04</totfact>
</mgrwt>
</event>
<event>
 9    1  0.7997082E-001  0.2766911E+03  0.7818608E-02  0.1097510E+00
         -3   -1    0    0    0  501 -0.00000000000E+00  0.00000000000E+00  0.43140758548E+03  0.43140758548E+03  0.00000000000E+00 0. -1.
          3   -1    0    0  501    0  0.00000000000E+00 -0.00000000000E+00 -0.44365219601E+02  0.44365219601E+02  0.00000000000E+00 0. -1.
         35    2    1    2    0    0 -0.88817841970E-15  0.71054273576E-14  0.38704236588E+03  0.47577280508E+03  0.27669110768E+03 0.  0.
         25    2    3    3    0    0  0.19236730347E+01 -0.46108630942E+02  0.12863009593E+03  0.18537016866E+03  0.12524652285E+03 0.  0.
         25    2    3    3    0    0 -0.19236730347E+01  0.46108630942E+02  0.25841226995E+03  0.29040263642E+03  0.12420581151E+03 0.  0.
          5    1    4    4  502    0  0.12970847562E+02  0.35715035639E+02  0.81836030762E+02  0.90349502423E+02  0.47000000000E+01 0. -1.
         -5    1    4    4    0  502 -0.11047174527E+02 -0.81823666581E+02  0.46794065165E+02  0.95020666239E+02  0.47000000000E+01 0. -1.
          5    1    5    5  503    0  0.77692624413E+01  0.76021974265E+01 -0.12111933973E+02  0.16939415255E+02  0.47000000000E+01 0. -1.
         -5    1    5    5    0  503 -0.96929354760E+01  0.38506433516E+02  0.27052420392E+03  0.27346322116E+03  0.47000000000E+01 0. -1.
<mgrwt>
<rscale>  0 0.27669111E+03</rscale>
<asrwt>0</asrwt>
<pdfrwt beam="1">  1        3 0.68254187E-02 0.27669111E+03</pdfrwt>
<pdfrwt beam="2">  1       -3 0.66370395E-01 0.27669111E+03</pdfrwt>
<totfact> 0.78291406E+02</totfact>
</mgrwt>
</event>
<event>
 9    1  0.7997082E-001  0.2744671E+03  0.7818608E-02  0.1098750E+00
         -4   -1    0    0    0  501 -0.00000000000E+00  0.00000000000E+00  0.29011336627E+02  0.29011336627E+02  0.00000000000E+00 0.  1.
          4   -1    0    0  501    0  0.00000000000E+00 -0.00000000000E+00 -0.64916169680E+03  0.64916169680E+03  0.00000000000E+00 0.  1.
         35    2    1    2    0    0  0.71054273576E-14 -0.17763568394E-14 -0.62015036017E+03  0.67817303342E+03  0.27446710922E+03 0.  0.
         25    2    3    3    0    0 -0.38717512285E+02 -0.74281590105E-01 -0.37665922943E+03  0.40164948435E+03  0.13398164759E+03 0.  0.
         25    2    3    3    0    0  0.38717512285E+02  0.74281590105E-01 -0.24349113074E+03  0.27652354907E+03  0.12521298322E+03 0.  0.
          5    1    4    4  502    0 -0.51155915809E+02 -0.25808996306E+02 -0.36645599620E+03  0.37093816084E+03  0.47000000000E+01 0.  1.
         -5    1    4    4    0  502  0.12438403523E+02  0.25734714716E+02 -0.10203233225E+02  0.30711323514E+02  0.47000000000E+01 0.  1.
          5    1    5    5  503    0  0.62542748675E+02 -0.11029445260E+02 -0.24149086318E+03  0.24974621333E+03  0.47000000000E+01 0.  1.
         -5    1    5    5    0  503 -0.23825236390E+02  0.11103726851E+02 -0.20002675616E+01  0.26777335740E+02  0.47000000000E+01 0.  1.
<mgrwt>
<rscale>  0 0.27446711E+03</rscale>
<asrwt>0</asrwt>
<pdfrwt beam="1">  1        4 0.99871020E-01 0.27446711E+03</pdfrwt>
<pdfrwt beam="2">  1       -4 0.44632830E-02 0.27446711E+03</pdfrwt>
<totfact> 0.45995299E+02</totfact>
</mgrwt>
</event>
<event>
 9    1  0.7997082E-001  0.2752025E+03  0.7818608E-02  0.1098338E+00
          2   -1    0    0  501    0  0.00000000000E+00  0.00000000000E+00  0.19041840764E+03  0.19041840764E+03  0.00000000000E+00 0. -1.
         -2   -1    0    0    0  501 -0.00000000000E+00 -0.00000000000E+00 -0.99434179265E+02  0.99434179265E+02  0.00000000000E+00 0. -1.
         35    2    1    2    0    0  0.00000000000E+00  0.00000000000E+00  0.90984228376E+02  0.28985258691E+03  0.27520245697E+03 0.  0.
         25    2    3    3    0    0  0.16498960893E+01  0.54539941775E+02  0.26961342701E+02  0.13879448990E+03  0.12473840235E+03 0.  0.
         25    2    3    3    0    0 -0.16498960893E+01 -0.54539941775E+02  0.64022885675E+02  0.15105809700E+03  0.12546828832E+03 0.  0.
          5    1    4    4  502    0  0.42395703803E+02  0.18486181377E+02 -0.33515404198E+02  0.57310617877E+02  0.47000000000E+01 0. -1.
         -5    1    4    4    0  502 -0.40745807714E+02  0.36053760398E+02  0.60476746899E+02  0.81483872027E+02  0.47000000000E+01 0. -1.
          5    1    5    5  503    0 -0.61711653370E+02 -0.13019443972E+02  0.35505681135E+02  0.72529838521E+02  0.47000000000E+01 0.  1.
         -5    1    5    5    0  503  0.60061757280E+02 -0.41520497803E+02  0.28517204540E+02  0.78528258482E+02  0.47000000000E+01 0.  1.
<mgrwt>
<rscale>  0 0.27520246E+03</rscale>
<asrwt>0</asrwt>
<pdfrwt beam="1">  1        2 0.29295139E-01 0.27520246E+03</pdfrwt>
<pdfrwt beam="2">  1       -2 0.15297566E-01 0.27520246E+03</pdfrwt>
<totfact> 0.59211931E+03</totfact>
</mgrwt>
</event>
<event>
 9    1  0.7997082E-001  0.2752807E+03  0.7818608E-02  0.1098295E+00
          2   -1    0    0  501    0  0.00000000000E+00  0.00000000000E+00  0.41270976111E+02  0.41270976111E+02  0.00000000000E+00 0.  1.
         -2   -1    0    0    0  501 -0.00000000000E+00 -0.00000000000E+00 -0.45903600775E+03  0.45903600775E+03  0.00000000000E+00 0.  1.
         35    2    1    2    0    0  0.00000000000E+00  0.00000000000E+00 -0.41776503164E+03  0.50030698386E+03  0.27528068664E+03 0.  0.
         25    2    3    3    0    0 -0.16004439086E+02 -0.53576893617E+02 -0.18465070855E+03  0.23011442341E+03  0.12541984729E+03 0.  0.
         25    2    3    3    0    0  0.16004439086E+02  0.53576893617E+02 -0.23311432309E+03  0.27019256045E+03  0.12463990730E+03 0.  0.
          5    1    4    4  502    0 -0.58651082155E+02 -0.41749183646E+02 -0.16757521452E+03  0.18244584482E+03  0.47000000000E+01 0. -1.
         -5    1    4    4    0  502  0.42646643068E+02 -0.11827709971E+02 -0.17075494031E+02  0.47668578587E+02  0.47000000000E+01 0. -1.
          5    1    5    5  503    0  0.14311881046E+02  0.64180961362E+02 -0.24487140146E+03  0.25359045525E+03  0.47000000000E+01 0.  1.
         -5    1    5    5    0  503  0.16925580406E+01 -0.10604067745E+02  0.11757078366E+02  0.16602105203E+02  0.47000000000E+01 0.  1.
<mgrwt>
<rscale>  0 0.27528069E+03</rscale>
<asrwt>0</asrwt>
<pdfrwt beam="1">  1        2 0.63493804E-02 0.27528069E+03</pdfrwt>
<pdfrwt beam="2">  1       -2 0.70620931E-01 0.27528069E+03</pdfrwt>
<totfact> 0.21418317E+03</totfact>
</mgrwt>
</event>
<event>
 9    1  0.7997082E-001  0.2754028E+03  0.7818608E-02  0.1098227E+00
          1   -1    0    0  501    0  0.00000000000E+00  0.00000000000E+00  0.20997388900E+03  0.20997388900E+03  0.00000000000E+00 0. -1.
         -1   -1    0    0    0  501 -0.00000000000E+00 -0.00000000000E+00 -0.90304921490E+02  0.90304921490E+02  0.00000000000E+00 0. -1.
         35    2    1    2    0    0  0.35527136788E-14  0.00000000000E+00  0.11966896751E+03  0.30027881049E+03  0.27540279999E+03 0.  0.
         25    2    3    3    0    0 -0.13735318383E+02  0.54186104641E+02  0.57601684855E+02  0.14991529223E+03  0.12661693347E+03 0.  0.
         25    2    3    3    0    0  0.13735318383E+02 -0.54186104641E+02  0.62067282654E+02  0.15036351826E+03  0.12502818538E+03 0.  0.
          5    1    4    4  502    0 -0.43763282218E+02 -0.45510818215E+01  0.69820084772E+02  0.82661184686E+02  0.47000000000E+01 0.  1.
         -5    1    4    4    0  502  0.30027963834E+02  0.58737186462E+02 -0.12218399916E+02  0.67254107548E+02  0.47000000000E+01 0.  1.
          5    1    5    5  503    0  0.34827797512E+02  0.28748217339E+02  0.43064597232E+02  0.62578630654E+02  0.47000000000E+01 0. -1.
         -5    1    5    5    0  503 -0.21092479129E+02 -0.82934321980E+02  0.19002685422E+02  0.87784887602E+02  0.47000000000E+01 0. -1.
<mgrwt>
<rscale>  0 0.27540280E+03</rscale>
<asrwt>0</asrwt>
<pdfrwt beam="1">  1        1 0.32303675E-01 0.27540280E+03</pdfrwt>
<pdfrwt beam="2">  1       -1 0.13893065E-01 0.27540280E+03</pdfrwt>
<totfact> 0.49734677E+03</totfact>
</mgrwt>
</event>
<event>
 9    1  0.7997082E-001  0.2753312E+03  0.7818608E-02  0.1098267E+00
          2   -1    0    0  501    0  0.00000000000E+00  0.00000000000E+00  0.31075228673E+03  0.31075228673E+03  0.00000000000E+00 0. -1.
         -2   -1    0    0    0  501 -0.00000000000E+00 -0.00000000000E+00 -0.60986912067E+02  0.60986912067E+02  0.00000000000E+00 0. -1.
         35    2    1    2    0    0  0.00000000000E+00  0.00000000000E+00  0.24976537466E+03  0.37173919880E+03  0.27533123604E+03 0.  0.
         25    2    3    3    0    0  0.13498138483E+02 -0.40271370189E+02  0.74081779290E+02  0.15126150010E+03  0.12485170559E+03 0.  0.
         25    2    3    3    0    0 -0.13498138483E+02  0.40271370189E+02  0.17568359537E+03  0.22047769870E+03  0.12626047260E+03 0.  0.
          5    1    4    4  502    0 -0.38493004997E+02 -0.62839851019E+02  0.31823271514E+02  0.80407517805E+02  0.47000000000E+01 0. -1.
         -5    1    4    4    0  502  0.51991143479E+02  0.22568480830E+02  0.42258507777E+02  0.70853982293E+02  0.47000000000E+01 0. -1.
          5    1    5    5  503    0  0.41759030549E+02 -0.20397982502E+02  0.38404687253E+02  0.60472343476E+02  0.47000000000E+01 0.  1.
         -5    1    5    5    0  503 -0.55257169032E+02  0.60669352691E+02  0.13727890812E+03  0.16000535522E+03  0.47000000000E+01 0.  1.
<mgrwt>
<rscale>  0 0.27533124E+03</rscale>
<asrwt>0</asrwt>
<pdfrwt beam="1">  1        2 0.47808043E-01 0.27533124E+03</pdfrwt>
<pdfrwt beam="2">  1       -2 0.93826021E-02 0.27533124E+03</pdfrwt>
<totfact> 0.76737663E+03</totfact>
</mgrwt>
</event>
<event>
 9    1  0.7997082E-001  0.2744010E+03  0.7818608E-02  0.1098787E+00
         -2   -1    0    0    0  501 -0.00000000000E+00  0.00000000000E+00  0.11397193257E+02  0.11397193257E+02  0.00000000000E+00 0.  1.
          2   -1    0    0  501    0  0.00000000000E+00 -0.00000000000E+00 -0.16516322034E+04  0.16516322034E+04  0.00000000000E+00 0.  1.
         35    2    1    2    0    0  0.00000000000E+00 -0.71054273576E-14 -0.16402350101E+04  0.16630293967E+04  0.27440095781E+03 0.  0.
         25    2    3    3    0    0 -0.36883395669E+02 -0.44105044256E+02 -0.82367107873E+03  0.83506223284E+03  0.12485690599E+03 0.  0.
         25    2    3    3    0    0  0.36883395669E+02  0.44105044256E+02 -0.81656393141E+03  0.82796716381E+03  0.12428729006E+03 0.  0.
          5    1    4    4  502    0 -0.70286071870E+02  0.64806456325E+01 -0.56120319995E+03  0.56564410392E+03  0.47000000000E+01 0. -1.
         -5    1    4    4    0  502  0.33402676201E+02 -0.50585689888E+02 -0.26246787878E+03  0.26941812892E+03  0.47000000000E+01 0. -1.
          5    1    5    5  503    0  0.25307863144E+02  0.17816314290E+02 -0.39698185908E+02  0.50556354262E+02  0.47000000000E+01 0.  1.
         -5    1    5    5    0  503  0.11575532525E+02  0.26288729966E+02 -0.77686574550E+03  0.77741080955E+03  0.47000000000E+01 0.  1.
<mgrwt>
<rscale>  0 0.27440096E+03</rscale>
<asrwt>0</asrwt>
<pdfrwt beam="1">  1        2 0.25409716E+00 0.27440096E+03</pdfrwt>
<pdfrwt beam="2">  1       -2 0.17534150E-02 0.27440096E+03</pdfrwt>
<totfact> 0.10630777E+04</totfact>
</mgrwt>
</event>
<event>
 9    1  0.7997082E-001  0.2723231E+03  0.7818608E-02  0.1099957E+00
         -2   -1    0    0    0  501 -0.00000000000E+00  0.00000000000E+00  0.11264268533E+03  0.11264268533E+03  0.00000000000E+00 0.  1.
          2   -1    0    0  501    0  0.00000000000E+00 -0.00000000000E+00 -0.16459093686E+03  0.16459093686E+03  0.00000000000E+00 0.  1.
         35    2    1    2    0    0  0.00000000000E+00  0.17763568394E-14 -0.51948251534E+02  0.27723362219E+03  0.27232308098E+03 0.  0.
         25    2    3    3    0    0 -0.10002689672E+02  0.72492513139E+01 -0.72352218749E+02  0.14899378400E+03  0.12965993470E+03 0.  0.
         25    2    3    3    0    0  0.10002689672E+02 -0.72492513139E+01  0.20403967215E+02  0.12823983819E+03  0.12600209830E+03 0.  0.
          5    1    4    4  502    0 -0.21883229154E+02 -0.14162738513E+02  0.32094227601E+02  0.41612357848E+02  0.47000000000E+01 0. -1.
         -5    1    4    4    0  502  0.11880539482E+02  0.21411989827E+02 -0.10444644635E+03  0.10738142615E+03  0.47000000000E+01 0. -1.
          5    1    5    5  503    0 -0.34697338124E+02  0.42636035961E+02 -0.72029648572E+01  0.55639100802E+02  0.47000000000E+01 0. -1.
         -5    1    5    5    0  503  0.44700027795E+02 -0.49885287275E+02  0.27606932072E+02  0.72600737392E+02  0.47000000000E+01 0. -1.
<mgrwt>
<rscale>  0 0.27232308E+03</rscale>
<asrwt>0</asrwt>
<pdfrwt beam="1">  1        2 0.25321683E-01 0.27232308E+03</pdfrwt>
<pdfrwt beam="2">  1       -2 0.17329644E-01 0.27232308E+03</pdfrwt>
<totfact> 0.56499591E+03</totfact>
</mgrwt>
</event>
<event>
 9    1  0.7997082E-001  0.2752148E+03  0.7818608E-02  0.1098332E+00
          2   -1    0    0  501    0  0.00000000000E+00  0.00000000000E+00  0.15728011430E+04  0.15728011430E+04  0.00000000000E+00 0.  1.
         -2   -1    0    0    0  501 -0.00000000000E+00 -0.00000000000E+00 -0.12039535297E+02  0.12039535297E+02  0.00000000000E+00 0.  1.
         35    2    1    2    0    0 -0.71054273576E-14 -0.71054273576E-14  0.15607616077E+04  0.15848406783E+04  0.27521478795E+03 0.  0.
         25    2    3    3    0    0  0.45983372155E+02 -0.20459592985E+02  0.61111525889E+03  0.62572006026E+03  0.12462210359E+03 0.  0.
         25    2    3    3    0    0 -0.45983372155E+02  0.20459592985E+02  0.94964634883E+03  0.95912061806E+03  0.12470407641E+03 0.  0.
          5    1    4    4  502    0 -0.48869458683E+01 -0.62436887489E+02  0.20995203958E+03  0.21914423580E+03  0.47000000000E+01 0. -1.
         -5    1    4    4    0  502  0.50870318024E+02  0.41977294504E+02  0.40116321931E+03  0.40657582446E+03  0.47000000000E+01 0. -1.
          5    1    5    5  503    0 -0.66589973784E+02  0.48965686589E+02  0.83533921110E+03  0.83943168315E+03  0.47000000000E+01 0.  1.
         -5    1    5    5    0  503  0.20606601629E+02 -0.28506093604E+02  0.11430713773E+03  0.11968893491E+03  0.47000000000E+01 0.  1.
<mgrwt>
<rscale>  0 0.27521479E+03</rscale>
<asrwt>0</asrwt>
<pdfrwt beam="1">  1        2 0.24196924E+00 0.27521479E+03</pdfrwt>
<pdfrwt beam="2">  1       -2 0.18522374E-02 0.27521479E+03</pdfrwt>
<totfact> 0.10798832E+04</totfact>
</mgrwt>
</event>
<event>
 9    1  0.7997082E-001  0.2734886E+03  0.7818608E-02  0.1099299E+00
          2   -1    0    0  501    0  0.00000000000E+00  0.00000000000E+00  0.13385864004E+04  0.13385864004E+04  0.00000000000E+00 0. -1.
         -2   -1    0    0    0  501 -0.00000000000E+00 -0.00000000000E+00 -0.13969220723E+02  0.13969220723E+02  0.00000000000E+00 0. -1.
         35    2    1    2    0    0 -0.35527136788E-14  0.00000000000E+00  0.13246171796E+04  0.13525556211E+04  0.27348863877E+03 0.  0.
         25    2    3    3    0    0  0.19294878594E+02 -0.50409790969E+02  0.73698315676E+03  0.74939075875E+03  0.12461499343E+03 0.  0.
         25    2    3    3    0    0 -0.19294878594E+02  0.50409790969E+02  0.58763402287E+03  0.60316486233E+03  0.12482254182E+03 0.  0.
          5    1    4    4  502    0  0.53795568796E+02 -0.62481190969E+02  0.30970679833E+03  0.32052808517E+03  0.47000000000E+01 0.  1.
         -5    1    4    4    0  502 -0.34500690202E+02  0.12071400000E+02  0.42727635843E+03  0.42886267359E+03  0.47000000000E+01 0.  1.
          5    1    5    5  503    0  0.15963408406E+02 -0.19319617678E+02  0.38642861355E+03  0.38726895229E+03  0.47000000000E+01 0.  1.
         -5    1    5    5    0  503 -0.35258287001E+02  0.69729408647E+02  0.20120540932E+03  0.21589591004E+03  0.47000000000E+01 0.  1.
<mgrwt>
<rscale>  0 0.27348864E+03</rscale>
<asrwt>0</asrwt>
<pdfrwt beam="1">  1        2 0.20593627E+00 0.27348864E+03</pdfrwt>
<pdfrwt beam="2">  1       -2 0.21491119E-02 0.27348864E+03</pdfrwt>
<totfact> 0.11602945E+04</totfact>
</mgrwt>
</event>
<event>
 9    1  0.7997082E-001  0.2711830E+03  0.7818608E-02  0.1100604E+00
          1   -1    0    0  501    0  0.00000000000E+00  0.00000000000E+00  0.11650544010E+04  0.11650544010E+04  0.00000000000E+00 0.  1.
         -1   -1    0    0    0  501 -0.00000000000E+00 -0.00000000000E+00 -0.15780421701E+02  0.15780421701E+02  0.00000000000E+00 0.  1.
         35    2    1    2    0    0 -0.35527136788E-14  0.71054273576E-14  0.11492739793E+04  0.11808348227E+04  0.27118296224E+03 0.  0.
         25    2    3    3    0    0 -0.12130534696E+02  0.24224554393E+02  0.73989863082E+03  0.75203357520E+03  0.13179732707E+03 0.  0.
         25    2    3    3    0    0  0.12130534696E+02 -0.24224554393E+02  0.40937534849E+03  0.42880124752E+03  0.12469304316E+03 0.  0.
          5    1    4    4  502    0 -0.44860006973E+02 -0.25284758038E+02  0.56332382399E+03  0.56569210697E+03  0.47000000000E+01 0.  1.
         -5    1    4    4    0  502  0.32729472277E+02  0.49509312431E+02  0.17657480683E+03  0.18634146823E+03  0.47000000000E+01 0.  1.
          5    1    5    5  503    0  0.38694085603E+02  0.39649289449E+02  0.22645150307E+03  0.23317733950E+03  0.47000000000E+01 0.  1.
         -5    1    5    5    0  503 -0.26563550907E+02 -0.63873843842E+02  0.18292384543E+03  0.19562390802E+03  0.47000000000E+01 0.  1.
<mgrwt>
<rscale>  0 0.27118296E+03</rscale>
<asrwt>0</asrwt>
<pdfrwt beam="1">  1        1 0.17923907E+00 0.27118296E+03</pdfrwt>
<pdfrwt beam="2">  1       -1 0.24277581E-02 0.27118296E+03</pdfrwt>
<totfact> 0.62455428E+03</totfact>
</mgrwt>
</event>
<event>
 9    1  0.7997082E-001  0.2760176E+03  0.7818608E-02  0.1097884E+00
         -3   -1    0    0    0  501 -0.00000000000E+00  0.00000000000E+00  0.26504995084E+03  0.26504995084E+03  0.00000000000E+00 0.  1.
          3   -1    0    0  501    0  0.00000000000E+00 -0.00000000000E+00 -0.71859764371E+02  0.71859764371E+02  0.00000000000E+00 0.  1.
         35    2    1    2    0    0  0.71054273576E-14  0.71054273576E-14  0.19319018646E+03  0.33690971521E+03  0.27601758649E+03 0.  0.
         25    2    3    3    0    0 -0.46850361536E+02 -0.28873581969E+01  0.13613941101E+03  0.19185246352E+03  0.12676803744E+03 0.  0.
         25    2    3    3    0    0  0.46850361536E+02  0.28873581969E+01  0.57050775450E+02  0.14505725168E+03  0.12483397804E+03 0.  0.
          5    1    4    4  502    0 -0.42639530773E+02  0.56472422559E+02  0.48892007029E+02  0.86138159056E+02  0.47000000000E+01 0.  1.
         -5    1    4    4    0  502 -0.42108307628E+01 -0.59359780756E+02  0.87247403986E+02  0.10571430447E+03  0.47000000000E+01 0.  1.
          5    1    5    5  503    0  0.21861583417E+02 -0.59705933111E+02  0.15059639782E+02  0.65510381075E+02  0.47000000000E+01 0.  1.
         -5    1    5    5    0  503  0.24988778119E+02  0.62593291308E+02  0.41991135668E+02  0.79546870607E+02  0.47000000000E+01 0.  1.
<mgrwt>
<rscale>  0 0.27601759E+03</rscale>
<asrwt>0</asrwt>
<pdfrwt beam="1">  1        3 0.11055349E-01 0.27601759E+03</pdfrwt>
<pdfrwt beam="2">  1       -3 0.40776915E-01 0.27601759E+03</pdfrwt>
<totfact> 0.94919720E+02</totfact>
</mgrwt>
</event>
<event>
 9    1  0.7997082E-001  0.2742965E+03  0.7818608E-02  0.1098846E+00
          2   -1    0    0  501    0  0.00000000000E+00  0.00000000000E+00  0.11990780765E+04  0.11990780765E+04  0.00000000000E+00 0. -1.
         -2   -1    0    0    0  501 -0.00000000000E+00 -0.00000000000E+00 -0.15686750010E+02  0.15686750010E+02  0.00000000000E+00 0. -1.
         35    2    1    2    0    0  0.00000000000E+00  0.00000000000E+00  0.11833913265E+04  0.12147648265E+04  0.27429646755E+03 0.  0.
         25    2    3    3    0    0 -0.41486497767E+02 -0.33962933009E+02  0.61691405320E+03  0.63200674824E+03  0.12639212978E+03 0.  0.
         25    2    3    3    0    0  0.41486497767E+02  0.33962933009E+02  0.56647727328E+03  0.58275807826E+03  0.12584063858E+03 0.  0.
          5    1    4    4  502    0  0.40827975942E+02 -0.39175043700E+01  0.10876817695E+03  0.11633948933E+03  0.47000000000E+01 0. -1.
         -5    1    4    4    0  502 -0.82314473709E+02 -0.30045428639E+02  0.50814587625E+03  0.51566725891E+03  0.47000000000E+01 0. -1.
          5    1    5    5  503    0  0.23381712309E+02  0.54990847877E+02  0.10881747620E+03  0.12423377539E+03  0.47000000000E+01 0. -1.
         -5    1    5    5    0  503  0.18104785457E+02 -0.21027914868E+02  0.45765979708E+03  0.45852430287E+03  0.47000000000E+01 0. -1.
<mgrwt>
<rscale>  0 0.27429647E+03</rscale>
<asrwt>0</asrwt>
<pdfrwt beam="1">  1        2 0.18447348E+00 0.27429647E+03</pdfrwt>
<pdfrwt beam="2">  1       -2 0.24133471E-02 0.27429647E+03</pdfrwt>
<totfact> 0.11698505E+04</totfact>
</mgrwt>
</event>
<event>
 9    1  0.7997082E-001  0.2705114E+03  0.7818608E-02  0.1100987E+00
          1   -1    0    0  501    0  0.00000000000E+00  0.00000000000E+00  0.20047580043E+02  0.20047580043E+02  0.00000000000E+00 0. -1.
         -1   -1    0    0    0  501 -0.00000000000E+00 -0.00000000000E+00 -0.91253442016E+03  0.91253442016E+03  0.00000000000E+00 0. -1.
         35    2    1    2    0    0 -0.71054273576E-14  0.00000000000E+00 -0.89248684012E+03  0.93258200021E+03  0.27051141810E+03 0.  0.
         25    2    3    3    0    0  0.37552435473E+02 -0.35305888468E+02 -0.48572379363E+03  0.50403077576E+03  0.12434921814E+03 0.  0.
         25    2    3    3    0    0 -0.37552435473E+02  0.35305888468E+02 -0.40676304649E+03  0.42855122444E+03  0.12467271076E+03 0.  0.
          5    1    4    4  502    0  0.19037310985E+02 -0.23533414272E+02 -0.47986258076E+03  0.48083929457E+03  0.47000000000E+01 0.  1.
         -5    1    4    4    0  502  0.18515124488E+02 -0.11772474196E+02 -0.58612128723E+01  0.23191481191E+02  0.47000000000E+01 0.  1.
          5    1    5    5  503    0 -0.81035864606E+02  0.42832128290E+01 -0.24562114025E+03  0.25872184253E+03  0.47000000000E+01 0. -1.
         -5    1    5    5    0  503  0.43483429133E+02  0.31022675639E+02 -0.16114190624E+03  0.16982938191E+03  0.47000000000E+01 0. -1.
<mgrwt>
<rscale>  0 0.27051142E+03</rscale>
<asrwt>0</asrwt>
<pdfrwt beam="1">  1        1 0.30842437E-02 0.27051142E+03</pdfrwt>
<pdfrwt beam="2">  1       -1 0.14038988E+00 0.27051142E+03</pdfrwt>
<totfact> 0.14700729E+03</totfact>
</mgrwt>
</event>
<event>
 9    1  0.7997082E-001  0.2749098E+03  0.7818608E-02  0.1098502E+00
         -2   -1    0    0    0  501 -0.00000000000E+00  0.00000000000E+00  0.12117732906E+02  0.12117732906E+02  0.00000000000E+00 0. -1.
          2   -1    0    0  501    0  0.00000000000E+00 -0.00000000000E+00 -0.15591896264E+04  0.15591896264E+04  0.00000000000E+00 0. -1.
         35    2    1    2    0    0 -0.71054273576E-14  0.00000000000E+00 -0.15470718935E+04  0.15713073594E+04  0.27490975569E+03 0.  0.
         25    2    3    3    0    0  0.54182741790E+02 -0.17825601352E+02 -0.76753873998E+03  0.77971986547E+03  0.12487525646E+03 0.  0.
         25    2    3    3    0    0 -0.54182741790E+02  0.17825601352E+02 -0.77953315356E+03  0.79158749388E+03  0.12524097329E+03 0.  0.
          5    1    4    4  502    0  0.82720666068E+02 -0.42808347906E+02 -0.63390577270E+03  0.64072917985E+03  0.47000000000E+01 0.  1.
         -5    1    4    4    0  502 -0.28537924278E+02  0.24982746554E+02 -0.13363296728E+03  0.13899068563E+03  0.47000000000E+01 0.  1.
          5    1    5    5  503    0  0.25077222367E+02 -0.25627132152E+02 -0.10597267394E+03  0.11197282977E+03  0.47000000000E+01 0.  1.
         -5    1    5    5    0  503 -0.79259964157E+02  0.43452733505E+02 -0.67356047962E+03  0.67961466411E+03  0.47000000000E+01 0.  1.
<mgrwt>
<rscale>  0 0.27490976E+03</rscale>
<asrwt>0</asrwt>
<pdfrwt beam="1">  1        2 0.23987532E+00 0.27490976E+03</pdfrwt>
<pdfrwt beam="2">  1       -2 0.18642667E-02 0.27490976E+03</pdfrwt>
<totfact> 0.10876085E+04</totfact>
</mgrwt>
</event>
<event>
 9    1  0.7997082E-001  0.2775319E+03  0.7818608E-02  0.1097045E+00
          2   -1    0    0  501    0  0.00000000000E+00  0.00000000000E+00  0.41313014671E+04  0.41313014671E+04  0.00000000000E+00 0. -1.
         -2   -1    0    0    0  501 -0.00000000000E+00 -0.00000000000E+00 -0.46609968212E+01  0.46609968212E+01  0.00000000000E+00 0. -1.
         35    2    1    2    0    0 -0.71054273576E-14  0.00000000000E+00  0.41266404703E+04  0.41359624639E+04  0.27753185767E+03 0.  0.
         25    2    3    3    0    0 -0.31964132525E+02 -0.34699772117E+02  0.25703574959E+04  0.25739763636E+04  0.12802688561E+03 0.  0.
         25    2    3    3    0    0  0.31964132525E+02  0.34699772117E+02  0.15562829744E+04  0.15619861004E+04  0.12473211878E+03 0.  0.
          5    1    4    4  502    0 -0.72956030198E+02 -0.52437312587E+02  0.15213834346E+04  0.15240413049E+04  0.47000000000E+01 0.  1.
         -5    1    4    4    0  502  0.40991897674E+02  0.17737540470E+02  0.10489740614E+04  0.10499350587E+04  0.47000000000E+01 0.  1.
          5    1    5    5  503    0 -0.30297091006E+02  0.24553164352E+02  0.11617732453E+04  0.11624370671E+04  0.47000000000E+01 0. -1.
         -5    1    5    5    0  503  0.62261223531E+02  0.10146607765E+02  0.39450972910E+03  0.39954903324E+03  0.47000000000E+01 0. -1.
<mgrwt>
<rscale>  0 0.27753186E+03</rscale>
<asrwt>0</asrwt>
<pdfrwt beam="1">  1        2 0.63558191E+00 0.27753186E+03</pdfrwt>
<pdfrwt beam="2">  1       -2 0.71707974E-03 0.27753186E+03</pdfrwt>
<totfact> 0.12176544E+03</totfact>
</mgrwt>
</event>
<event>
 9    1  0.7997082E-001  0.2760191E+03  0.7818608E-02  0.1097883E+00
          1   -1    0    0  501    0  0.00000000000E+00  0.00000000000E+00  0.38050727819E+03  0.38050727819E+03  0.00000000000E+00 0. -1.
         -1   -1    0    0    0  501 -0.00000000000E+00 -0.00000000000E+00 -0.50055893835E+02  0.50055893835E+02  0.00000000000E+00 0. -1.
         35    2    1    2    0    0  0.35527136788E-14  0.21316282073E-13  0.33045138435E+03  0.43056317202E+03  0.27601907123E+03 0.  0.
         25    2    3    3    0    0 -0.21756167688E+02 -0.27916464060E+02  0.23292762934E+03  0.26802981042E+03  0.12779686604E+03 0.  0.
         25    2    3    3    0    0  0.21756167688E+02  0.27916464060E+02  0.97523755016E+02  0.16253336160E+03  0.12511415205E+03 0.  0.
          5    1    4    4  502    0  0.15694496176E+02  0.44757534862E+02  0.59465170799E+02  0.76208599747E+02  0.47000000000E+01 0. -1.
         -5    1    4    4    0  502 -0.37450663864E+02 -0.72673998923E+02  0.17346245854E+03  0.19182121068E+03  0.47000000000E+01 0. -1.
          5    1    5    5  503    0 -0.14742697185E+02 -0.41639981773E+02  0.61809345008E+02  0.76116491857E+02  0.47000000000E+01 0.  1.
         -5    1    5    5    0  503  0.36498864873E+02  0.69556445833E+02  0.35714410009E+02  0.86416869744E+02  0.47000000000E+01 0.  1.
<mgrwt>
<rscale>  0 0.27601907E+03</rscale>
<asrwt>0</asrwt>
<pdfrwt beam="1">  1        1 0.58539579E-01 0.27601907E+03</pdfrwt>
<pdfrwt beam="2">  1       -1 0.77009070E-02 0.27601907E+03</pdfrwt>
<totfact> 0.58665955E+03</totfact>
</mgrwt>
</event>
<event>
 9    1  0.7997082E-001  0.2739176E+03  0.7818608E-02  0.1099058E+00
          1   -1    0    0  501    0  0.00000000000E+00  0.00000000000E+00  0.36613695837E+03  0.36613695837E+03  0.00000000000E+00 0. -1.
         -1   -1    0    0    0  501 -0.00000000000E+00 -0.00000000000E+00 -0.51231400707E+02  0.51231400707E+02  0.00000000000E+00 0. -1.
         35    2    1    2    0    0  0.35527136788E-14  0.00000000000E+00  0.31490555767E+03  0.41736835908E+03  0.27391757321E+03 0.  0.
         25    2    3    3    0    0  0.54387699283E+01 -0.36086693561E+02  0.92443840005E+02  0.15973183527E+03  0.12504625533E+03 0.  0.
         25    2    3    3    0    0 -0.54387699283E+01  0.36086693561E+02  0.22246171766E+03  0.25763652381E+03  0.12472182209E+03 0.  0.
          5    1    4    4  502    0  0.27543451911E+02  0.38694627235E+02  0.15759640984E+02  0.50263030192E+02  0.47000000000E+01 0. -1.
         -5    1    4    4    0  502 -0.22104681983E+02 -0.74781320796E+02  0.76684199021E+02  0.10946880508E+03  0.47000000000E+01 0. -1.
          5    1    5    5  503    0 -0.52743963711E+02  0.22796676270E+02  0.19001000268E+03  0.19856360511E+03  0.47000000000E+01 0.  1.
         -5    1    5    5    0  503  0.47305193783E+02  0.13290017291E+02  0.32451714986E+02  0.59072918702E+02  0.47000000000E+01 0.  1.
<mgrwt>
<rscale>  0 0.27391757E+03</rscale>
<asrwt>0</asrwt>
<pdfrwt beam="1">  1        1 0.56328761E-01 0.27391757E+03</pdfrwt>
<pdfrwt beam="2">  1       -1 0.78817542E-02 0.27391757E+03</pdfrwt>
<totfact> 0.59457253E+03</totfact>
</mgrwt>
</event>
<event>
 9    1  0.7997082E-001  0.2740826E+03  0.7818608E-02  0.1098965E+00
          2   -1    0    0  501    0  0.00000000000E+00  0.00000000000E+00  0.89509274629E+02  0.89509274629E+02  0.00000000000E+00 0. -1.
         -2   -1    0    0    0  501 -0.00000000000E+00 -0.00000000000E+00 -0.20981425331E+03  0.20981425331E+03  0.00000000000E+00 0. -1.
         35    2    1    2    0    0  0.00000000000E+00  0.71054273576E-14 -0.12030497868E+03  0.29932352794E+03  0.27408262711E+03 0.  0.
         25    2    3    3    0    0  0.40143673319E+02 -0.38127928207E+02 -0.68135819618E+02  0.15311010489E+03  0.12543907241E+03 0.  0.
         25    2    3    3    0    0 -0.40143673319E+02  0.38127928207E+02 -0.52169159065E+02  0.14621342305E+03  0.12486589009E+03 0.  0.
          5    1    4    4  502    0  0.67773155437E+02 -0.32274883776E+02  0.41840066193E+01  0.75329042421E+02  0.47000000000E+01 0. -1.
         -5    1    4    4    0  502 -0.27629482119E+02 -0.58530444309E+01 -0.72319826237E+02  0.77781062465E+02  0.47000000000E+01 0. -1.
          5    1    5    5  503    0 -0.96670184103E+00  0.68340028514E+02  0.70901124207E+01  0.68874187500E+02  0.47000000000E+01 0.  1.
         -5    1    5    5    0  503 -0.39176971478E+02 -0.30212100307E+02 -0.59259271486E+02  0.77339235554E+02  0.47000000000E+01 0.  1.
<mgrwt>
<rscale>  0 0.27408263E+03</rscale>
<asrwt>0</asrwt>
<pdfrwt beam="1">  1        2 0.13770658E-01 0.27408263E+03</pdfrwt>
<pdfrwt beam="2">  1       -2 0.32279115E-01 0.27408263E+03</pdfrwt>
<totfact> 0.38385736E+03</totfact>
</mgrwt>
</event>
<event>
 9    1  0.7997082E-001  0.2817688E+03  0.7818608E-02  0.1094727E+00
          2   -1    0    0  501    0  0.00000000000E+00  0.00000000000E+00  0.24165703497E+03  0.24165703497E+03  0.00000000000E+00 0. -1.
         -2   -1    0    0    0  501 -0.00000000000E+00 -0.00000000000E+00 -0.82134641660E+02  0.82134641660E+02  0.00000000000E+00 0. -1.
         35    2    1    2    0    0  0.00000000000E+00  0.00000000000E+00  0.15952239331E+03  0.32379167663E+03  0.28176879864E+03 0.  0.
         25    2    3    3    0    0 -0.12754002997E+01  0.59532583179E+02  0.70265983888E+02  0.15562715901E+03  0.12544619972E+03 0.  0.
         25    2    3    3    0    0  0.12754002997E+01 -0.59532583179E+02  0.89256409421E+02  0.16816451762E+03  0.12948684588E+03 0.  0.
          5    1    4    4  502    0  0.57603996574E+02  0.54727737052E+02  0.39677627535E+02  0.88936773895E+02  0.47000000000E+01 0. -1.
         -5    1    4    4    0  502 -0.58879396874E+02  0.48048461277E+01  0.30588356353E+02  0.66690385116E+02  0.47000000000E+01 0. -1.
          5    1    5    5  503    0  0.47433144264E+02 -0.58632570848E+02  0.95020331242E+02  0.12140277957E+03  0.47000000000E+01 0.  1.
         -5    1    5    5    0  503 -0.46157743964E+02 -0.90001233125E+00 -0.57639218210E+01  0.46761738043E+02  0.47000000000E+01 0.  1.
<mgrwt>
<rscale>  0 0.28176880E+03</rscale>
<asrwt>0</asrwt>
<pdfrwt beam="1">  1        2 0.37178005E-01 0.28176880E+03</pdfrwt>
<pdfrwt beam="2">  1       -2 0.12636099E-01 0.28176880E+03</pdfrwt>
<totfact> 0.62516932E+03</totfact>
</mgrwt>
</event>
<event>
 9    1  0.7997082E-001  0.2669407E+03  0.7818608E-02  0.1103043E+00
         -2   -1    0    0    0  501 -0.00000000000E+00  0.00000000000E+00  0.23154251815E+03  0.23154251815E+03  0.00000000000E+00 0. -1.
          2   -1    0    0  501    0  0.00000000000E+00 -0.00000000000E+00 -0.76937661854E+02  0.76937661854E+02  0.00000000000E+00 0. -1.
         35    2    1    2    0    0  0.00000000000E+00  0.35527136788E-14  0.15460485630E+03  0.30848018001E+03  0.26694074224E+03 0.  0.
         25    2    3    3    0    0 -0.44513273058E+02 -0.38015753067E+01  0.10549330472E+03  0.16663633169E+03  0.12100804206E+03 0.  0.
         25    2    3    3    0    0  0.44513273058E+02  0.38015753067E+01  0.49111551577E+02  0.14184384832E+03  0.12534691601E+03 0.  0.
          5    1    4    4  502    0 -0.16829696046E+02 -0.31103173471E+02  0.11975507700E+03  0.12495605042E+03  0.47000000000E+01 0. -1.
         -5    1    4    4    0  502 -0.27683577012E+02  0.27301598164E+02 -0.14261772276E+02  0.41680281272E+02  0.47000000000E+01 0. -1.
          5    1    5    5  503    0  0.24013814999E+02  0.36768817486E+02  0.80420070991E+02  0.91750133887E+02  0.47000000000E+01 0.  1.
         -5    1    5    5    0  503  0.20499458059E+02 -0.32967242179E+02 -0.31308519414E+02  0.50093714431E+02  0.47000000000E+01 0.  1.
<mgrwt>
<rscale>  0 0.26694074E+03</rscale>
<asrwt>0</asrwt>
<pdfrwt beam="1">  1        2 0.11836563E-01 0.26694074E+03</pdfrwt>
<pdfrwt beam="2">  1       -2 0.35621926E-01 0.26694074E+03</pdfrwt>
<totfact> 0.38359416E+03</totfact>
</mgrwt>
</event>
<event>
 9    1  0.7997082E-001  0.2751429E+03  0.7818608E-02  0.1098372E+00
          2   -1    0    0  501    0  0.00000000000E+00  0.00000000000E+00  0.27426241905E+03  0.27426241905E+03  0.00000000000E+00 0.  1.
         -2   -1    0    0    0  501 -0.00000000000E+00 -0.00000000000E+00 -0.69006557158E+02  0.69006557158E+02  0.00000000000E+00 0.  1.
         35    2    1    2    0    0  0.00000000000E+00  0.71054273576E-14  0.20525586190E+03  0.34326897621E+03  0.27514291048E+03 0.  0.
         25    2    3    3    0    0 -0.71447985741E+01  0.52554869798E+02  0.79733525351E+02  0.15816850763E+03  0.12588399126E+03 0.  0.
         25    2    3    3    0    0  0.71447985741E+01 -0.52554869798E+02  0.12552233654E+03  0.18510046858E+03  0.12527275846E+03 0.  0.
          5    1    4    4  502    0 -0.28068849386E+02  0.17963345969E+02  0.10500135824E+03  0.11026294635E+03  0.47000000000E+01 0.  1.
         -5    1    4    4    0  502  0.20924050811E+02  0.34591523829E+02 -0.25267832891E+02  0.47905561286E+02  0.47000000000E+01 0.  1.
          5    1    5    5  503    0 -0.20724614806E+02 -0.74056519951E+02  0.12811127995E+03  0.14949403953E+03  0.47000000000E+01 0. -1.
         -5    1    5    5    0  503  0.27869413381E+02  0.21501650153E+02 -0.25889434039E+01  0.35606429047E+02  0.47000000000E+01 0. -1.
<mgrwt>
<rscale>  0 0.27514291E+03</rscale>
<asrwt>0</asrwt>
<pdfrwt beam="1">  1        2 0.42194218E-01 0.27514291E+03</pdfrwt>
<pdfrwt beam="2">  1       -2 0.10616394E-01 0.27514291E+03</pdfrwt>
<totfact> 0.72123377E+03</totfact>
</mgrwt>
</event>
<event>
 9    1  0.7997082E-001  0.2662104E+03  0.7818608E-02  0.1103468E+00
          2   -1    0    0  501    0  0.00000000000E+00  0.00000000000E+00  0.10488174682E+04  0.10488174682E+04  0.00000000000E+00 0. -1.
         -2   -1    0    0    0  501 -0.00000000000E+00 -0.00000000000E+00 -0.16892346578E+02  0.16892346578E+02  0.00000000000E+00 0. -1.
         35    2    1    2    0    0  0.00000000000E+00  0.35527136788E-14  0.10319251216E+04  0.10657098147E+04  0.26621035419E+03 0.  0.
         25    2    3    3    0    0 -0.29064985403E+02  0.22669591505E+02  0.40648104616E+03  0.42685589711E+03  0.12498172768E+03 0.  0.
         25    2    3    3    0    0  0.29064985403E+02 -0.22669591505E+02  0.62544407543E+03  0.63885391764E+03  0.12488135504E+03 0.  0.
          5    1    4    4  502    0  0.42287709790E+02  0.38131933003E+02  0.17573388929E+03  0.18478848600E+03  0.47000000000E+01 0. -1.
         -5    1    4    4    0  502 -0.71352695193E+02 -0.15462341498E+02  0.23074715687E+03  0.24206741110E+03  0.47000000000E+01 0. -1.
          5    1    5    5  503    0  0.69497556214E+02 -0.44544361229E+02  0.35594195675E+03  0.36541876938E+03  0.47000000000E+01 0.  1.
         -5    1    5    5    0  503 -0.40432570812E+02  0.21874769724E+02  0.26950211868E+03  0.27343514826E+03  0.47000000000E+01 0.  1.
<mgrwt>
<rscale>  0 0.26621035E+03</rscale>
<asrwt>0</asrwt>
<pdfrwt beam="1">  1        2 0.16135648E+00 0.26621035E+03</pdfrwt>
<pdfrwt beam="2">  1       -2 0.25988234E-02 0.26621035E+03</pdfrwt>
<totfact> 0.12813838E+04</totfact>
</mgrwt>
</event>
<event>
 9    1  0.7997082E-001  0.2734359E+03  0.7818608E-02  0.1099329E+00
          2   -1    0    0  501    0  0.00000000000E+00  0.00000000000E+00  0.14126672478E+04  0.14126672478E+04  0.00000000000E+00 0. -1.
         -2   -1    0    0    0  501 -0.00000000000E+00 -0.00000000000E+00 -0.13231569157E+02  0.13231569157E+02  0.00000000000E+00 0. -1.
         35    2    1    2    0    0  0.00000000000E+00  0.71054273576E-14  0.13994356787E+04  0.14258988170E+04  0.27343594778E+03 0.  0.
         25    2    3    3    0    0 -0.27252917304E+02  0.42507842687E+02  0.56480509222E+03  0.58049260712E+03  0.12416616502E+03 0.  0.
         25    2    3    3    0    0  0.27252917304E+02 -0.42507842687E+02  0.83463058647E+03  0.84540620988E+03  0.12471489742E+03 0.  0.
          5    1    4    4  502    0 -0.16288372963E+02  0.80599621428E+02  0.47675717190E+03  0.48381928551E+03  0.47000000000E+01 0. -1.
         -5    1    4    4    0  502 -0.10964544341E+02 -0.38091778741E+02  0.88047920314E+02  0.96673321614E+02  0.47000000000E+01 0. -1.
          5    1    5    5  503    0 -0.92114522104E+01 -0.64950397750E+01  0.71586619999E+03  0.71597035042E+03  0.47000000000E+01 0.  1.
         -5    1    5    5    0  503  0.36464369515E+02 -0.36012802912E+02  0.11876438648E+03  0.12943585946E+03  0.47000000000E+01 0.  1.
<mgrwt>
<rscale>  0 0.27343595E+03</rscale>
<asrwt>0</asrwt>
<pdfrwt beam="1">  1        2 0.21733330E+00 0.27343595E+03</pdfrwt>
<pdfrwt beam="2">  1       -2 0.20356271E-02 0.27343595E+03</pdfrwt>
<totfact> 0.11451626E+04</totfact>
</mgrwt>
</event>
<event>
 9    1  0.7997082E-001  0.2706441E+03  0.7818608E-02  0.1100912E+00
         -1   -1    0    0    0  501 -0.00000000000E+00  0.00000000000E+00  0.30226310041E+02  0.30226310041E+02  0.00000000000E+00 0. -1.
          1   -1    0    0  501    0  0.00000000000E+00 -0.00000000000E+00 -0.60583184466E+03  0.60583184466E+03  0.00000000000E+00 0. -1.
         35    2    1    2    0    0  0.71054273576E-14  0.00000000000E+00 -0.57560553462E+03  0.63605815470E+03  0.27064412921E+03 0.  0.
         25    2    3    3    0    0  0.24538980319E+02  0.14749764932E+02 -0.19064752805E+03  0.22995670090E+03  0.12535504465E+03 0.  0.
         25    2    3    3    0    0 -0.24538980319E+02 -0.14749764932E+02 -0.38495800657E+03  0.40610145380E+03  0.12611901853E+03 0.  0.
          5    1    4    4  502    0  0.72922437092E+02  0.16354287165E+02 -0.82736167686E+02  0.11159080600E+03  0.47000000000E+01 0.  1.
         -5    1    4    4    0  502 -0.48383456773E+02 -0.16045222328E+01 -0.10791136036E+03  0.11836589491E+03  0.47000000000E+01 0.  1.
          5    1    5    5  503    0  0.29964505669E+02 -0.32083316377E+02 -0.30211351502E+03  0.30532257818E+03  0.47000000000E+01 0.  1.
         -5    1    5    5    0  503 -0.54503485987E+02  0.17333551445E+02 -0.82844491547E+02  0.10077887561E+03  0.47000000000E+01 0.  1.
<mgrwt>
<rscale>  0 0.27064413E+03</rscale>
<asrwt>0</asrwt>
<pdfrwt beam="1">  1        1 0.93204893E-01 0.27064413E+03</pdfrwt>
<pdfrwt beam="2">  1       -1 0.46502018E-02 0.27064413E+03</pdfrwt>
<totfact> 0.67805929E+03</totfact>
</mgrwt>
</event>
<event>
 9    1  0.7997082E-001  0.2762886E+03  0.7818608E-02  0.1097733E+00
          2   -1    0    0  501    0  0.00000000000E+00  0.00000000000E+00  0.29895303606E+02  0.29895303606E+02  0.00000000000E+00 0. -1.
         -2   -1    0    0    0  501 -0.00000000000E+00 -0.00000000000E+00 -0.63835602346E+03  0.63835602346E+03  0.00000000000E+00 0. -1.
         35    2    1    2    0    0 -0.71054273576E-14  0.26645352591E-14 -0.60846071986E+03  0.66825132707E+03  0.27628859643E+03 0.  0.
         25    2    3    3    0    0 -0.26809235534E+02 -0.54409559594E+01 -0.43523593904E+03  0.45334138313E+03  0.12385373598E+03 0.  0.
         25    2    3    3    0    0  0.26809235534E+02  0.54409559594E+01 -0.17322478082E+03  0.21490994394E+03  0.12422206004E+03 0.  0.
          5    1    4    4  502    0 -0.72989135082E+02 -0.10327943065E+02 -0.33085138204E+03  0.33899676583E+03  0.47000000000E+01 0. -1.
         -5    1    4    4    0  502  0.46179899548E+02  0.48869871059E+01 -0.10438455700E+03  0.11434461730E+03  0.47000000000E+01 0. -1.
          5    1    5    5  503    0 -0.22615496818E+02 -0.48596484200E+02 -0.74587480831E+02  0.91969893279E+02  0.47000000000E+01 0. -1.
         -5    1    5    5    0  503  0.49424732351E+02  0.54037440160E+02 -0.98637299987E+02  0.12294005066E+03  0.47000000000E+01 0. -1.
<mgrwt>
<rscale>  0 0.27628860E+03</rscale>
<asrwt>0</asrwt>
<pdfrwt beam="1">  1        2 0.45992778E-02 0.27628860E+03</pdfrwt>
<pdfrwt beam="2">  1       -2 0.98208612E-01 0.27628860E+03</pdfrwt>
<totfact> 0.15707586E+03</totfact>
</mgrwt>
</event>
<event>
 9    1  0.7997082E-001  0.2769436E+03  0.7818608E-02  0.1097370E+00
          1   -1    0    0  501    0  0.00000000000E+00  0.00000000000E+00  0.10356609340E+04  0.10356609340E+04  0.00000000000E+00 0.  1.
         -1   -1    0    0    0  501 -0.00000000000E+00 -0.00000000000E+00 -0.18514199744E+02  0.18514199744E+02  0.00000000000E+00 0.  1.
         35    2    1    2    0    0 -0.71054273576E-14  0.14210854715E-13  0.10171467342E+04  0.10541751337E+04  0.27694355669E+03 0.  0.
         25    2    3    3    0    0 -0.35297814501E+02  0.41938891142E+02  0.40269595293E+03  0.42470076160E+03  0.12329598573E+03 0.  0.
         25    2    3    3    0    0  0.35297814501E+02 -0.41938891142E+02  0.61445078131E+03  0.62947437213E+03  0.12523344688E+03 0.  0.
          5    1    4    4  502    0 -0.11685207851E+02 -0.42781808096E+02  0.17419223510E+03  0.17981060023E+03  0.47000000000E+01 0.  1.
         -5    1    4    4    0  502 -0.23612606650E+02  0.84720699238E+02  0.22850371783E+03  0.24489016137E+03  0.47000000000E+01 0.  1.
          5    1    5    5  503    0  0.34252129874E+01 -0.37504321578E+02  0.58299705014E+03  0.58423108159E+03  0.47000000000E+01 0. -1.
         -5    1    5    5    0  503  0.31872601513E+02 -0.44345695642E+01  0.31453731166E+02  0.45243290538E+02  0.47000000000E+01 0. -1.
<mgrwt>
<rscale>  0 0.27694356E+03</rscale>
<asrwt>0</asrwt>
<pdfrwt beam="1">  1        1 0.15933241E+00 0.27694356E+03</pdfrwt>
<pdfrwt beam="2">  1       -1 0.28483392E-02 0.27694356E+03</pdfrwt>
<totfact> 0.61235643E+03</totfact>
</mgrwt>
</event>
