<event>
 5    1  0.1107336E+001  0.2777499E+03  0.7818608E-02  0.1096924E+00
         -1   -1    0    0    0  501 -0.00000000000E+00  0.00000000000E+00  0.95429531083E+02  0.95429531083E+02  0.00000000000E+00 0.  1.
          1   -1    0    0  501    0  0.00000000000E+00 -0.00000000000E+00 -0.20209945448E+03  0.20209945448E+03  0.00000000000E+00 0.  1.
         35    2    1    2    0    0  0.00000000000E+00  0.00000000000E+00 -0.10666992339E+03  0.29752898556E+03  0.27774993194E+03 0.  0.
         25    1    3    3    0    0  0.13947889092E+02  0.51163513466E+02 -0.45506168882E+01  0.13127435711E+03  0.12000000000E+03 0.  0.
         25    1    3    3    0    0 -0.13947889092E+02 -0.51163513466E+02 -0.10211930651E+03  0.16625462845E+03  0.12000000000E+03 0.  0.
<mgrwt>
<rscale>  0 0.27774993E+03</rscale>
<asrwt>0</asrwt>
<pdfrwt beam="1">  1        1 0.31092224E-01 0.27774993E+03</pdfrwt>
<pdfrwt beam="2">  1       -1 0.14681466E-01 0.27774993E+03</pdfrwt>
<totfact> 0.47839280E+03</totfact>
</mgrwt>
</event>
<event>
 5    1  0.1107336E+001  0.2730082E+03  0.7818608E-02  0.1099570E+00
         -1   -1    0    0    0  501 -0.00000000000E+00  0.00000000000E+00  0.73702082720E+01  0.73702082720E+01  0.00000000000E+00 0. -1.
          1   -1    0    0  501    0  0.00000000000E+00 -0.00000000000E+00 -0.25282006750E+04  0.25282006750E+04  0.00000000000E+00 0. -1.
         35    2    1    2    0    0  0.00000000000E+00  0.00000000000E+00 -0.25208304668E+04  0.25355708833E+04  0.27300817225E+03 0.  0.
         25    1    3    3    0    0 -0.13584105421E+00 -0.22297617393E+02 -0.69272289160E+03  0.70339335136E+03  0.12000000000E+03 0.  0.
         25    1    3    3    0    0  0.13584105421E+00  0.22297617393E+02 -0.18281075752E+04  0.18321775319E+04  0.12000000000E+03 0.  0.
<mgrwt>
<rscale>  0 0.27300817E+03</rscale>
<asrwt>0</asrwt>
<pdfrwt beam="1">  1        1 0.38895370E+00 0.27300817E+03</pdfrwt>
<pdfrwt beam="2">  1       -1 0.11338789E-02 0.27300817E+03</pdfrwt>
<totfact> 0.23811469E+03</totfact>
</mgrwt>
</event>
<event>
 5    1  0.1107336E+001  0.2750586E+03  0.7818608E-02  0.1098419E+00
         -1   -1    0    0    0  501 -0.00000000000E+00  0.00000000000E+00  0.10906104211E+03  0.10906104211E+03  0.00000000000E+00 0.  1.
          1   -1    0    0  501    0  0.00000000000E+00 -0.00000000000E+00 -0.17342860253E+03  0.17342860253E+03  0.00000000000E+00 0.  1.
         35    2    1    2    0    0  0.00000000000E+00  0.00000000000E+00 -0.64367560422E+02  0.28248964463E+03  0.27505856920E+03 0.  0.
         25    1    3    3    0    0  0.42869327305E+02  0.51670787983E+02 -0.29534442637E+02  0.14064114923E+03  0.12000000000E+03 0.  0.
         25    1    3    3    0    0 -0.42869327305E+02 -0.51670787983E+02 -0.34833117785E+02  0.14184849541E+03  0.12000000000E+03 0.  0.
<mgrwt>
<rscale>  0 0.27505857E+03</rscale>
<asrwt>0</asrwt>
<pdfrwt beam="1">  1        1 0.26681323E-01 0.27505857E+03</pdfrwt>
<pdfrwt beam="2">  1       -1 0.16778622E-01 0.27505857E+03</pdfrwt>
<totfact> 0.46914400E+03</totfact>
</mgrwt>
</event>
<event>
 5    1  0.1107336E+001  0.2752730E+03  0.7818608E-02  0.1098299E+00
         -2   -1    0    0    0  501 -0.00000000000E+00  0.00000000000E+00  0.53050540509E+02  0.53050540509E+02  0.00000000000E+00 0. -1.
          2   -1    0    0  501    0  0.00000000000E+00 -0.00000000000E+00 -0.35708970264E+03  0.35708970264E+03  0.00000000000E+00 0. -1.
         35    2    1    2    0    0  0.00000000000E+00  0.00000000000E+00 -0.30403916213E+03  0.41014024315E+03  0.27527296805E+03 0.  0.
         25    1    3    3    0    0 -0.40490534940E+02  0.14585298066E+01 -0.71753545169E+02  0.14556847864E+03  0.12000000000E+03 0.  0.
         25    1    3    3    0    0  0.40490534940E+02 -0.14585298066E+01 -0.23228561696E+03  0.26457176451E+03  0.12000000000E+03 0.  0.
<mgrwt>
<rscale>  0 0.27527297E+03</rscale>
<asrwt>0</asrwt>
<pdfrwt beam="1">  1        2 0.54936877E-01 0.27527297E+03</pdfrwt>
<pdfrwt beam="2">  1       -2 0.81616217E-02 0.27527297E+03</pdfrwt>
<totfact> 0.82257996E+03</totfact>
</mgrwt>
</event>
<event>
 5    1  0.1107336E+001  0.2750545E+03  0.7818608E-02  0.1098421E+00
          2   -1    0    0  501    0  0.00000000000E+00  0.00000000000E+00  0.15126434068E+04  0.15126434068E+04  0.00000000000E+00 0.  1.
         -2   -1    0    0    0  501 -0.00000000000E+00 -0.00000000000E+00 -0.12503769521E+02  0.12503769521E+02  0.00000000000E+00 0.  1.
         35    2    1    2    0    0  0.00000000000E+00  0.00000000000E+00  0.15001396373E+04  0.15251471763E+04  0.27505450024E+03 0.  0.
         25    1    3    3    0    0 -0.83560565118E+01  0.28896483662E+02  0.41696472692E+03  0.43493035528E+03  0.12000000000E+03 0.  0.
         25    1    3    3    0    0  0.83560565118E+01 -0.28896483662E+02  0.10831749104E+04  0.10902168210E+04  0.12000000000E+03 0.  0.
<mgrwt>
<rscale>  0 0.27505450E+03</rscale>
<asrwt>0</asrwt>
<pdfrwt beam="1">  1        2 0.23271423E+00 0.27505450E+03</pdfrwt>
<pdfrwt beam="2">  1       -2 0.19236580E-02 0.27505450E+03</pdfrwt>
<totfact> 0.10997152E+04</totfact>
</mgrwt>
</event>
<event>
 5    1  0.1107336E+001  0.2743833E+03  0.7818608E-02  0.1098797E+00
          2   -1    0    0  501    0  0.00000000000E+00  0.00000000000E+00  0.32909262727E+03  0.32909262727E+03  0.00000000000E+00 0. -1.
         -2   -1    0    0    0  501 -0.00000000000E+00 -0.00000000000E+00 -0.57192272560E+02  0.57192272560E+02  0.00000000000E+00 0. -1.
         35    2    1    2    0    0  0.00000000000E+00  0.00000000000E+00  0.27190035471E+03  0.38628489983E+03  0.27438334670E+03 0.  0.
         25    1    3    3    0    0  0.18197824547E+02 -0.63615553482E+02  0.14523072755E+03  0.19967489498E+03  0.12000000000E+03 0.  0.
         25    1    3    3    0    0 -0.18197824547E+02  0.63615553482E+02  0.12666962716E+03  0.18661000485E+03  0.12000000000E+03 0.  0.
<mgrwt>
<rscale>  0 0.27438335E+03</rscale>
<asrwt>0</asrwt>
<pdfrwt beam="1">  1        2 0.50629634E-01 0.27438335E+03</pdfrwt>
<pdfrwt beam="2">  1       -2 0.87988114E-02 0.27438335E+03</pdfrwt>
<totfact> 0.79827777E+03</totfact>
</mgrwt>
</event>
<event>
 5    1  0.1107336E+001  0.2769804E+03  0.7818608E-02  0.1097350E+00
          1   -1    0    0  501    0  0.00000000000E+00  0.00000000000E+00  0.66087130913E+02  0.66087130913E+02  0.00000000000E+00 0.  1.
         -1   -1    0    0    0  501 -0.00000000000E+00 -0.00000000000E+00 -0.29021595798E+03  0.29021595798E+03  0.00000000000E+00 0.  1.
         35    2    1    2    0    0  0.00000000000E+00  0.00000000000E+00 -0.22412882706E+03  0.35630308889E+03  0.27698043258E+03 0.  0.
         25    1    3    3    0    0 -0.19845752886E+02  0.54891200055E+02 -0.64404946606E+02  0.14817184246E+03  0.12000000000E+03 0.  0.
         25    1    3    3    0    0  0.19845752886E+02 -0.54891200055E+02 -0.15972388046E+03  0.20813124643E+03  0.12000000000E+03 0.  0.
<mgrwt>
<rscale>  0 0.27698043E+03</rscale>
<asrwt>0</asrwt>
<pdfrwt beam="1">  1        1 0.10167251E-01 0.27698043E+03</pdfrwt>
<pdfrwt beam="2">  1       -1 0.44648609E-01 0.27698043E+03</pdfrwt>
<totfact> 0.31631751E+03</totfact>
</mgrwt>
</event>
<event>
 5    1  0.1107336E+001  0.2747023E+03  0.7818608E-02  0.1098618E+00
          1   -1    0    0  501    0  0.00000000000E+00  0.00000000000E+00  0.40974269343E+02  0.40974269343E+02  0.00000000000E+00 0. -1.
         -1   -1    0    0    0  501 -0.00000000000E+00 -0.00000000000E+00 -0.46041914469E+03  0.46041914469E+03  0.00000000000E+00 0. -1.
         35    2    1    2    0    0  0.00000000000E+00  0.00000000000E+00 -0.41944487535E+03  0.50139341403E+03  0.27470229737E+03 0.  0.
         25    1    3    3    0    0  0.54975538697E+02 -0.37335607250E+02 -0.19693535833E+03  0.23999956830E+03  0.12000000000E+03 0.  0.
         25    1    3    3    0    0 -0.54975538697E+02  0.37335607250E+02 -0.22250951701E+03  0.26139384573E+03  0.12000000000E+03 0.  0.
<mgrwt>
<rscale>  0 0.27470230E+03</rscale>
<asrwt>0</asrwt>
<pdfrwt beam="1">  1        1 0.63037337E-02 0.27470230E+03</pdfrwt>
<pdfrwt beam="2">  1       -1 0.70833715E-01 0.27470230E+03</pdfrwt>
<totfact> 0.25204935E+03</totfact>
</mgrwt>
</event>
<event>
 5    1  0.1107336E+001  0.2752476E+03  0.7818608E-02  0.1098313E+00
         -2   -1    0    0    0  501 -0.00000000000E+00  0.00000000000E+00  0.84629114373E+03  0.84629114373E+03  0.00000000000E+00 0.  1.
          2   -1    0    0  501    0  0.00000000000E+00 -0.00000000000E+00 -0.22380372113E+02  0.22380372113E+02  0.00000000000E+00 0.  1.
         35    2    1    2    0    0  0.00000000000E+00  0.00000000000E+00  0.82391077162E+03  0.86867151585E+03  0.27524760280E+03 0.  0.
         25    1    3    3    0    0  0.47764561587E+01  0.35030766750E+02  0.23092456221E+03  0.26263305692E+03  0.12000000000E+03 0.  0.
         25    1    3    3    0    0 -0.47764561587E+01 -0.35030766750E+02  0.59298620941E+03  0.60603845893E+03  0.12000000000E+03 0.  0.
<mgrwt>
<rscale>  0 0.27524760E+03</rscale>
<asrwt>0</asrwt>
<pdfrwt beam="1">  1        2 0.34431348E-02 0.27524760E+03</pdfrwt>
<pdfrwt beam="2">  1       -2 0.13019861E+00 0.27524760E+03</pdfrwt>
<totfact> 0.11794112E+03</totfact>
</mgrwt>
</event>
<event>
 5    1  0.1107336E+001  0.2750217E+03  0.7818608E-02  0.1098439E+00
          2   -1    0    0  501    0  0.00000000000E+00  0.00000000000E+00  0.25550373659E+02  0.25550373659E+02  0.00000000000E+00 0. -1.
         -2   -1    0    0    0  501 -0.00000000000E+00 -0.00000000000E+00 -0.74007644926E+03  0.74007644926E+03  0.00000000000E+00 0. -1.
         35    2    1    2    0    0  0.00000000000E+00  0.00000000000E+00 -0.71452607560E+03  0.76562682292E+03  0.27502167053E+03 0.  0.
         25    1    3    3    0    0  0.38980406629E+01  0.46018853525E+02 -0.49296960909E+03  0.50946242755E+03  0.12000000000E+03 0.  0.
         25    1    3    3    0    0 -0.38980406629E+01 -0.46018853525E+02 -0.22155646651E+03  0.25616439537E+03  0.12000000000E+03 0.  0.
<mgrwt>
<rscale>  0 0.27502167E+03</rscale>
<asrwt>0</asrwt>
<pdfrwt beam="1">  1        2 0.39308267E-02 0.27502167E+03</pdfrwt>
<pdfrwt beam="2">  1       -2 0.11385791E+00 0.27502167E+03</pdfrwt>
<totfact> 0.13677619E+03</totfact>
</mgrwt>
</event>
<event>
 5    1  0.1107336E+001  0.2745919E+03  0.7818608E-02  0.1098680E+00
         -1   -1    0    0    0  501 -0.00000000000E+00  0.00000000000E+00  0.20967115599E+02  0.20967115599E+02  0.00000000000E+00 0. -1.
          1   -1    0    0  501    0  0.00000000000E+00 -0.00000000000E+00 -0.89903510192E+03  0.89903510192E+03  0.00000000000E+00 0. -1.
         35    2    1    2    0    0  0.00000000000E+00  0.00000000000E+00 -0.87806798632E+03  0.92000221752E+03  0.27459186375E+03 0.  0.
         25    1    3    3    0    0  0.40778713908E+02  0.46517219998E+02 -0.52268877181E+03  0.53984285439E+03  0.12000000000E+03 0.  0.
         25    1    3    3    0    0 -0.40778713908E+02 -0.46517219998E+02 -0.35537921451E+03  0.38015936313E+03  0.12000000000E+03 0.  0.
<mgrwt>
<rscale>  0 0.27459186E+03</rscale>
<asrwt>0</asrwt>
<pdfrwt beam="1">  1        1 0.13831313E+00 0.27459186E+03</pdfrwt>
<pdfrwt beam="2">  1       -1 0.32257093E-02 0.27459186E+03</pdfrwt>
<totfact> 0.64723611E+03</totfact>
</mgrwt>
</event>
<event>
 5    1  0.1107336E+001  0.2756772E+03  0.7818608E-02  0.1098074E+00
         -3   -1    0    0    0  501 -0.00000000000E+00  0.00000000000E+00  0.17170247609E+03  0.17170247609E+03  0.00000000000E+00 0.  1.
          3   -1    0    0  501    0  0.00000000000E+00 -0.00000000000E+00 -0.11065352486E+03  0.11065352486E+03  0.00000000000E+00 0.  1.
         35    2    1    2    0    0  0.00000000000E+00  0.00000000000E+00  0.61048951231E+02  0.28235600094E+03  0.27567723305E+03 0.  0.
         25    1    3    3    0    0  0.36349310015E+02 -0.10698639109E+02  0.88134395073E+02  0.15363399628E+03  0.12000000000E+03 0.  0.
         25    1    3    3    0    0 -0.36349310015E+02  0.10698639109E+02 -0.27085443842E+02  0.12872200467E+03  0.12000000000E+03 0.  0.
<mgrwt>
<rscale>  0 0.27567723E+03</rscale>
<asrwt>0</asrwt>
<pdfrwt beam="1">  1        3 0.17023619E-01 0.27567723E+03</pdfrwt>
<pdfrwt beam="2">  1       -3 0.26415766E-01 0.27567723E+03</pdfrwt>
<totfact> 0.10298813E+03</totfact>
</mgrwt>
</event>
<event>
 5    1  0.1107336E+001  0.2745298E+03  0.7818608E-02  0.1098715E+00
         -1   -1    0    0    0  501 -0.00000000000E+00  0.00000000000E+00  0.13918856619E+02  0.13918856619E+02  0.00000000000E+00 0. -1.
          1   -1    0    0  501    0  0.00000000000E+00 -0.00000000000E+00 -0.13536784646E+04  0.13536784646E+04  0.00000000000E+00 0. -1.
         35    2    1    2    0    0  0.00000000000E+00  0.00000000000E+00 -0.13397596080E+04  0.13675973213E+04  0.27452982685E+03 0.  0.
         25    1    3    3    0    0  0.41940572734E+02  0.21455219693E+02 -0.43503992776E+03  0.45373899639E+03  0.12000000000E+03 0.  0.
         25    1    3    3    0    0 -0.41940572734E+02 -0.21455219693E+02 -0.90471968026E+03  0.91385832487E+03  0.12000000000E+03 0.  0.
<mgrwt>
<rscale>  0 0.27452983E+03</rscale>
<asrwt>0</asrwt>
<pdfrwt beam="1">  1        1 0.20825822E+00 0.27452983E+03</pdfrwt>
<pdfrwt beam="2">  1       -1 0.21413626E-02 0.27452983E+03</pdfrwt>
<totfact> 0.55639618E+03</totfact>
</mgrwt>
</event>
<event>
 5    1  0.1107336E+001  0.2757055E+03  0.7818608E-02  0.1098058E+00
         -2   -1    0    0    0  501 -0.00000000000E+00  0.00000000000E+00  0.39635596769E+02  0.39635596769E+02  0.00000000000E+00 0. -1.
          2   -1    0    0  501    0  0.00000000000E+00 -0.00000000000E+00 -0.47945222457E+03  0.47945222457E+03  0.00000000000E+00 0. -1.
         35    2    1    2    0    0  0.00000000000E+00  0.00000000000E+00 -0.43981662780E+03  0.51908782133E+03  0.27570545909E+03 0.  0.
         25    1    3    3    0    0  0.52258550007E+02 -0.18027553540E+02 -0.14584545670E+03  0.19679137678E+03  0.12000000000E+03 0.  0.
         25    1    3    3    0    0 -0.52258550007E+02  0.18027553540E+02 -0.29397117110E+03  0.32229644455E+03  0.12000000000E+03 0.  0.
<mgrwt>
<rscale>  0 0.27570546E+03</rscale>
<asrwt>0</asrwt>
<pdfrwt beam="1">  1        2 0.73761876E-01 0.27570546E+03</pdfrwt>
<pdfrwt beam="2">  1       -2 0.60977845E-02 0.27570546E+03</pdfrwt>
<totfact> 0.93675423E+03</totfact>
</mgrwt>
</event>
<event>
 5    1  0.1107336E+001  0.2647875E+03  0.7818608E-02  0.1104300E+00
         -2   -1    0    0    0  501 -0.00000000000E+00  0.00000000000E+00  0.19024081375E+02  0.19024081375E+02  0.00000000000E+00 0. -1.
          2   -1    0    0  501    0  0.00000000000E+00 -0.00000000000E+00 -0.92136414286E+03  0.92136414286E+03  0.00000000000E+00 0. -1.
         35    2    1    2    0    0  0.00000000000E+00  0.00000000000E+00 -0.90234006149E+03  0.94038822424E+03  0.26478751050E+03 0.  0.
         25    1    3    3    0    0  0.62003344710E+00 -0.55923332565E+02 -0.45312451733E+03  0.47206952006E+03  0.12000000000E+03 0.  0.
         25    1    3    3    0    0 -0.62003344710E+00  0.55923332565E+02 -0.44921554416E+03  0.46831870417E+03  0.12000000000E+03 0.  0.
<mgrwt>
<rscale>  0 0.26478751E+03</rscale>
<asrwt>0</asrwt>
<pdfrwt beam="1">  1        2 0.14174833E+00 0.26478751E+03</pdfrwt>
<pdfrwt beam="2">  1       -2 0.29267818E-02 0.26478751E+03</pdfrwt>
<totfact> 0.12872489E+04</totfact>
</mgrwt>
</event>
<event>
 5    1  0.1107336E+001  0.2750430E+03  0.7818608E-02  0.1098428E+00
         -1   -1    0    0    0  501 -0.00000000000E+00  0.00000000000E+00  0.19278934346E+03  0.19278934346E+03  0.00000000000E+00 0. -1.
          1   -1    0    0  501    0  0.00000000000E+00 -0.00000000000E+00 -0.98097529884E+02  0.98097529884E+02  0.00000000000E+00 0. -1.
         35    2    1    2    0    0  0.00000000000E+00  0.00000000000E+00  0.94691813576E+02  0.29088687334E+03  0.27504296669E+03 0.  0.
         25    1    3    3    0    0 -0.46526882639E+02  0.14166237202E+02 -0.16558687719E+01  0.12949198811E+03  0.12000000000E+03 0.  0.
         25    1    3    3    0    0  0.46526882639E+02 -0.14166237202E+02  0.96347682348E+02  0.16139488523E+03  0.12000000000E+03 0.  0.
<mgrwt>
<rscale>  0 0.27504297E+03</rscale>
<asrwt>0</asrwt>
<pdfrwt beam="1">  1        1 0.15091928E-01 0.27504297E+03</pdfrwt>
<pdfrwt beam="2">  1       -1 0.29659899E-01 0.27504297E+03</pdfrwt>
<totfact> 0.38302946E+03</totfact>
</mgrwt>
</event>
<event>
 5    1  0.1107336E+001  0.2763065E+03  0.7818608E-02  0.1097724E+00
          1   -1    0    0  501    0  0.00000000000E+00  0.00000000000E+00  0.41791194341E+03  0.41791194341E+03  0.00000000000E+00 0. -1.
         -1   -1    0    0    0  501 -0.00000000000E+00 -0.00000000000E+00 -0.45670669477E+02  0.45670669477E+02  0.00000000000E+00 0. -1.
         35    2    1    2    0    0  0.00000000000E+00  0.00000000000E+00  0.37224127393E+03  0.46358261289E+03  0.27630648373E+03 0.  0.
         25    1    3    3    0    0 -0.62362393210E+02  0.71539853052E+01  0.14029315034E+03  0.19499337329E+03  0.12000000000E+03 0.  0.
         25    1    3    3    0    0  0.62362393210E+02 -0.71539853052E+01  0.23194812359E+03  0.26858923960E+03  0.12000000000E+03 0.  0.
<mgrwt>
<rscale>  0 0.27630648E+03</rscale>
<asrwt>0</asrwt>
<pdfrwt beam="1">  1        1 0.64294142E-01 0.27630648E+03</pdfrwt>
<pdfrwt beam="2">  1       -1 0.70262571E-02 0.27630648E+03</pdfrwt>
<totfact> 0.59807456E+03</totfact>
</mgrwt>
</event>
<event>
 5    1  0.1107336E+001  0.2772180E+03  0.7818608E-02  0.1097218E+00
          2   -1    0    0  501    0  0.00000000000E+00  0.00000000000E+00  0.89838058633E+03  0.89838058633E+03  0.00000000000E+00 0.  1.
         -2   -1    0    0    0  501 -0.00000000000E+00 -0.00000000000E+00 -0.21385654273E+02  0.21385654273E+02  0.00000000000E+00 0.  1.
         35    2    1    2    0    0  0.00000000000E+00  0.00000000000E+00  0.87699493206E+03  0.91976624060E+03  0.27721801258E+03 0.  0.
         25    1    3    3    0    0  0.56866468797E+02 -0.39726386082E+02  0.43620935580E+03  0.45770141262E+03  0.12000000000E+03 0.  0.
         25    1    3    3    0    0 -0.56866468797E+02  0.39726386082E+02  0.44078557626E+03  0.46206482798E+03  0.12000000000E+03 0.  0.
<mgrwt>
<rscale>  0 0.27721801E+03</rscale>
<asrwt>0</asrwt>
<pdfrwt beam="1">  1        2 0.13821237E+00 0.27721801E+03</pdfrwt>
<pdfrwt beam="2">  1       -2 0.32901014E-02 0.27721801E+03</pdfrwt>
<totfact> 0.11204830E+04</totfact>
</mgrwt>
</event>
<event>
 5    1  0.1107336E+001  0.2749637E+03  0.7818608E-02  0.1098472E+00
          2   -1    0    0  501    0  0.00000000000E+00  0.00000000000E+00  0.56637139829E+03  0.56637139829E+03  0.00000000000E+00 0. -1.
         -2   -1    0    0    0  501 -0.00000000000E+00 -0.00000000000E+00 -0.33372540929E+02  0.33372540929E+02  0.00000000000E+00 0. -1.
         35    2    1    2    0    0  0.00000000000E+00  0.00000000000E+00  0.53299885736E+03  0.59974393922E+03  0.27496365338E+03 0.  0.
         25    1    3    3    0    0  0.63710794650E+02 -0.17438799801E+02  0.29212945262E+03  0.32264964618E+03  0.12000000000E+03 0.  0.
         25    1    3    3    0    0 -0.63710794650E+02  0.17438799801E+02  0.24086940474E+03  0.27709429304E+03  0.12000000000E+03 0.  0.
<mgrwt>
<rscale>  0 0.27496365E+03</rscale>
<asrwt>0</asrwt>
<pdfrwt beam="1">  1        2 0.87134054E-01 0.27496365E+03</pdfrwt>
<pdfrwt beam="2">  1       -2 0.51342375E-02 0.27496365E+03</pdfrwt>
<totfact> 0.10096397E+04</totfact>
</mgrwt>
</event>
<event>
 5    1  0.1107336E+001  0.2733907E+03  0.7818608E-02  0.1099355E+00
         -2   -1    0    0    0  501 -0.00000000000E+00  0.00000000000E+00  0.15912368971E+02  0.15912368971E+02  0.00000000000E+00 0.  1.
          2   -1    0    0  501    0  0.00000000000E+00 -0.00000000000E+00 -0.11742824462E+04  0.11742824462E+04  0.00000000000E+00 0.  1.
         35    2    1    2    0    0  0.00000000000E+00  0.00000000000E+00 -0.11583700773E+04  0.11901948152E+04  0.27339067695E+03 0.  0.
         25    1    3    3    0    0 -0.28974493054E+02 -0.22469410666E+02 -0.81528618802E+03  0.82488542479E+03  0.12000000000E+03 0.  0.
         25    1    3    3    0    0  0.28974493054E+02  0.22469410666E+02 -0.34308388926E+03  0.36530939042E+03  0.12000000000E+03 0.  0.
<mgrwt>
<rscale>  0 0.27339068E+03</rscale>
<asrwt>0</asrwt>
<pdfrwt beam="1">  1        2 0.18065889E+00 0.27339068E+03</pdfrwt>
<pdfrwt beam="2">  1       -2 0.24480561E-02 0.27339068E+03</pdfrwt>
<totfact> 0.11832159E+04</totfact>
</mgrwt>
</event>
<event>
 5    1  0.1107336E+001  0.2749100E+03  0.7818608E-02  0.1098502E+00
         -2   -1    0    0    0  501 -0.00000000000E+00  0.00000000000E+00  0.17965519181E+03  0.17965519181E+03  0.00000000000E+00 0.  1.
          2   -1    0    0  501    0  0.00000000000E+00 -0.00000000000E+00 -0.10516745123E+03  0.10516745123E+03  0.00000000000E+00 0.  1.
         35    2    1    2    0    0  0.00000000000E+00  0.00000000000E+00  0.74487740571E+02  0.28482264304E+03  0.27491001163E+03 0.  0.
         25    1    3    3    0    0  0.64532235802E+02 -0.50215658678E+01  0.19172069918E+02  0.13768512573E+03  0.12000000000E+03 0.  0.
         25    1    3    3    0    0 -0.64532235802E+02  0.50215658678E+01  0.55315670653E+02  0.14713751731E+03  0.12000000000E+03 0.  0.
<mgrwt>
<rscale>  0 0.27491001E+03</rscale>
<asrwt>0</asrwt>
<pdfrwt beam="1">  1        2 0.16179608E-01 0.27491001E+03</pdfrwt>
<pdfrwt beam="2">  1       -2 0.27639260E-01 0.27491001E+03</pdfrwt>
<totfact> 0.42023587E+03</totfact>
</mgrwt>
</event>
<event>
 5    1  0.1107336E+001  0.2750303E+03  0.7818608E-02  0.1098435E+00
         -2   -1    0    0    0  501 -0.00000000000E+00  0.00000000000E+00  0.60916042386E+03  0.60916042386E+03  0.00000000000E+00 0. -1.
          2   -1    0    0  501    0  0.00000000000E+00 -0.00000000000E+00 -0.31043404875E+02  0.31043404875E+02  0.00000000000E+00 0. -1.
         35    2    1    2    0    0  0.00000000000E+00  0.00000000000E+00  0.57811701899E+03  0.64020382873E+03  0.27503027958E+03 0.  0.
         25    1    3    3    0    0  0.36929820498E+02  0.60665772908E+01  0.15924978172E+03  0.20288200507E+03  0.12000000000E+03 0.  0.
         25    1    3    3    0    0 -0.36929820498E+02 -0.60665772908E+01  0.41886723726E+03  0.43732182367E+03  0.12000000000E+03 0.  0.
<mgrwt>
<rscale>  0 0.27503028E+03</rscale>
<asrwt>0</asrwt>
<pdfrwt beam="1">  1        2 0.47759089E-02 0.27503028E+03</pdfrwt>
<pdfrwt beam="2">  1       -2 0.93716979E-01 0.27503028E+03</pdfrwt>
<totfact> 0.16635540E+03</totfact>
</mgrwt>
</event>
<event>
 5    1  0.1107336E+001  0.2746704E+03  0.7818608E-02  0.1098636E+00
          2   -1    0    0  501    0  0.00000000000E+00  0.00000000000E+00  0.24047930919E+03  0.24047930919E+03  0.00000000000E+00 0.  1.
         -2   -1    0    0    0  501 -0.00000000000E+00 -0.00000000000E+00 -0.78430699001E+02  0.78430699001E+02  0.00000000000E+00 0.  1.
         35    2    1    2    0    0  0.00000000000E+00  0.00000000000E+00  0.16204861019E+03  0.31891000819E+03  0.27467042298E+03 0.  0.
         25    1    3    3    0    0 -0.48574188023E+02 -0.14206315314E+01  0.13422449675E+03  0.18648776224E+03  0.12000000000E+03 0.  0.
         25    1    3    3    0    0  0.48574188023E+02  0.14206315314E+01  0.27824113444E+02  0.13242224596E+03  0.12000000000E+03 0.  0.
<mgrwt>
<rscale>  0 0.27467042E+03</rscale>
<asrwt>0</asrwt>
<pdfrwt beam="1">  1        2 0.36996817E-01 0.27467042E+03</pdfrwt>
<pdfrwt beam="2">  1       -2 0.12066261E-01 0.27467042E+03</pdfrwt>
<totfact> 0.67662469E+03</totfact>
</mgrwt>
</event>
<event>
 5    1  0.1107336E+001  0.2760553E+03  0.7818608E-02  0.1097863E+00
         -1   -1    0    0    0  501 -0.00000000000E+00  0.00000000000E+00  0.11330795007E+03  0.11330795007E+03  0.00000000000E+00 0. -1.
          1   -1    0    0  501    0  0.00000000000E+00 -0.00000000000E+00 -0.16814024994E+03  0.16814024994E+03  0.00000000000E+00 0. -1.
         35    2    1    2    0    0  0.00000000000E+00  0.00000000000E+00 -0.54832299869E+02  0.28144820001E+03  0.27605526291E+03 0.  0.
         25    1    3    3    0    0 -0.27104384167E+02 -0.15578911404E+02 -0.89216137372E+02  0.15276409686E+03  0.12000000000E+03 0.  0.
         25    1    3    3    0    0  0.27104384167E+02  0.15578911404E+02  0.34383837503E+02  0.12868410315E+03  0.12000000000E+03 0.  0.
<mgrwt>
<rscale>  0 0.27605526E+03</rscale>
<asrwt>0</asrwt>
<pdfrwt beam="1">  1        1 0.25867731E-01 0.27605526E+03</pdfrwt>
<pdfrwt beam="2">  1       -1 0.17431992E-01 0.27605526E+03</pdfrwt>
<totfact> 0.45902429E+03</totfact>
</mgrwt>
</event>
<event>
 5    1  0.1107336E+001  0.2743733E+03  0.7818608E-02  0.1098802E+00
         -1   -1    0    0    0  501 -0.00000000000E+00  0.00000000000E+00  0.37059261393E+03  0.37059261393E+03  0.00000000000E+00 0. -1.
          1   -1    0    0  501    0  0.00000000000E+00 -0.00000000000E+00 -0.50784020017E+02  0.50784020017E+02  0.00000000000E+00 0. -1.
         35    2    1    2    0    0  0.00000000000E+00  0.00000000000E+00  0.31980859392E+03  0.42137663395E+03  0.27437334217E+03 0.  0.
         25    1    3    3    0    0  0.32712104605E+02  0.27193703905E+02  0.23837345380E+03  0.27024337697E+03  0.12000000000E+03 0.  0.
         25    1    3    3    0    0 -0.32712104605E+02 -0.27193703905E+02  0.81435140120E+02  0.15113325698E+03  0.12000000000E+03 0.  0.
<mgrwt>
<rscale>  0 0.27437334E+03</rscale>
<asrwt>0</asrwt>
<pdfrwt beam="1">  1        1 0.78129264E-02 0.27437334E+03</pdfrwt>
<pdfrwt beam="2">  1       -1 0.57014246E-01 0.27437334E+03</pdfrwt>
<totfact> 0.28703030E+03</totfact>
</mgrwt>
</event>
<event>
 5    1  0.1107336E+001  0.2746597E+03  0.7818608E-02  0.1098642E+00
         -2   -1    0    0    0  501 -0.00000000000E+00  0.00000000000E+00  0.28342088518E+04  0.28342088518E+04  0.00000000000E+00 0.  1.
          2   -1    0    0  501    0  0.00000000000E+00 -0.00000000000E+00 -0.66542344401E+01  0.66542344401E+01  0.00000000000E+00 0.  1.
         35    2    1    2    0    0  0.00000000000E+00  0.00000000000E+00  0.28275546174E+04  0.28408630863E+04  0.27465971785E+03 0.  0.
         25    1    3    3    0    0 -0.32820124127E+02  0.49287252756E+02  0.10944590660E+04  0.11026091969E+04  0.12000000000E+03 0.  0.
         25    1    3    3    0    0  0.32820124127E+02 -0.49287252756E+02  0.17330955514E+04  0.17382538894E+04  0.12000000000E+03 0.  0.
<mgrwt>
<rscale>  0 0.27465972E+03</rscale>
<asrwt>0</asrwt>
<pdfrwt beam="1">  1        2 0.10237306E-02 0.27465972E+03</pdfrwt>
<pdfrwt beam="2">  1       -2 0.43603117E+00 0.27465972E+03</pdfrwt>
<totfact> 0.73660699E+01</totfact>
</mgrwt>
</event>
<event>
 5    1  0.1107336E+001  0.2760695E+03  0.7818608E-02  0.1097855E+00
         -2   -1    0    0    0  501 -0.00000000000E+00  0.00000000000E+00  0.15247151867E+02  0.15247151867E+02  0.00000000000E+00 0.  1.
          2   -1    0    0  501    0  0.00000000000E+00 -0.00000000000E+00 -0.12496490562E+04  0.12496490562E+04  0.00000000000E+00 0.  1.
         35    2    1    2    0    0  0.00000000000E+00  0.00000000000E+00 -0.12344019043E+04  0.12648962081E+04  0.27606947633E+03 0.  0.
         25    1    3    3    0    0 -0.64435559329E+02  0.18140054893E+02 -0.55700887452E+03  0.57370714584E+03  0.12000000000E+03 0.  0.
         25    1    3    3    0    0  0.64435559329E+02 -0.18140054893E+02 -0.67739302981E+03  0.69118906222E+03  0.12000000000E+03 0.  0.
<mgrwt>
<rscale>  0 0.27606948E+03</rscale>
<asrwt>0</asrwt>
<pdfrwt beam="1">  1        2 0.19225380E+00 0.27606948E+03</pdfrwt>
<pdfrwt beam="2">  1       -2 0.23457145E-02 0.27606948E+03</pdfrwt>
<totfact> 0.11426297E+04</totfact>
</mgrwt>
</event>
<event>
 5    1  0.1107336E+001  0.2749659E+03  0.7818608E-02  0.1098471E+00
          1   -1    0    0  501    0  0.00000000000E+00  0.00000000000E+00  0.11007400947E+04  0.11007400947E+04  0.00000000000E+00 0. -1.
         -1   -1    0    0    0  501 -0.00000000000E+00 -0.00000000000E+00 -0.17171684272E+02  0.17171684272E+02  0.00000000000E+00 0. -1.
         35    2    1    2    0    0  0.00000000000E+00  0.00000000000E+00  0.10835684104E+04  0.11179117790E+04  0.27496589877E+03 0.  0.
         25    1    3    3    0    0  0.50196198784E+02  0.11934140219E+02  0.36741244635E+03  0.38994100555E+03  0.12000000000E+03 0.  0.
         25    1    3    3    0    0 -0.50196198784E+02 -0.11934140219E+02  0.71615596406E+03  0.72797077341E+03  0.12000000000E+03 0.  0.
<mgrwt>
<rscale>  0 0.27496590E+03</rscale>
<asrwt>0</asrwt>
<pdfrwt beam="1">  1        1 0.16934457E+00 0.27496590E+03</pdfrwt>
<pdfrwt beam="2">  1       -1 0.26417985E-02 0.27496590E+03</pdfrwt>
<totfact> 0.61324195E+03</totfact>
</mgrwt>
</event>
<event>
 5    1  0.1107336E+001  0.2748531E+03  0.7818608E-02  0.1098534E+00
         -2   -1    0    0    0  501 -0.00000000000E+00  0.00000000000E+00  0.59168027798E+02  0.59168027798E+02  0.00000000000E+00 0. -1.
          2   -1    0    0  501    0  0.00000000000E+00 -0.00000000000E+00 -0.31919355806E+03  0.31919355806E+03  0.00000000000E+00 0. -1.
         35    2    1    2    0    0  0.00000000000E+00  0.00000000000E+00 -0.26002553026E+03  0.37836158586E+03  0.27485307578E+03 0.  0.
         25    1    3    3    0    0  0.33235105121E+02  0.55406757041E+02 -0.10571390449E+03  0.17248162378E+03  0.12000000000E+03 0.  0.
         25    1    3    3    0    0 -0.33235105121E+02 -0.55406757041E+02 -0.15431162577E+03  0.20587996208E+03  0.12000000000E+03 0.  0.
<mgrwt>
<rscale>  0 0.27485308E+03</rscale>
<asrwt>0</asrwt>
<pdfrwt beam="1">  1        2 0.49106702E-01 0.27485308E+03</pdfrwt>
<pdfrwt beam="2">  1       -2 0.91027733E-02 0.27485308E+03</pdfrwt>
<totfact> 0.78203379E+03</totfact>
</mgrwt>
</event>
<event>
 5    1  0.1107336E+001  0.2706691E+03  0.7818608E-02  0.1100897E+00
         -1   -1    0    0    0  501 -0.00000000000E+00  0.00000000000E+00  0.59679894380E+02  0.59679894380E+02  0.00000000000E+00 0. -1.
          1   -1    0    0  501    0  0.00000000000E+00 -0.00000000000E+00 -0.30689469869E+03  0.30689469869E+03  0.00000000000E+00 0. -1.
         35    2    1    2    0    0  0.00000000000E+00  0.00000000000E+00 -0.24721480431E+03  0.36657459307E+03  0.27066912054E+03 0.  0.
         25    1    3    3    0    0 -0.53810491823E+02  0.65246496973E+01 -0.16594617750E+03  0.21184020844E+03  0.12000000000E+03 0.  0.
         25    1    3    3    0    0  0.53810491823E+02 -0.65246496973E+01 -0.81268626806E+02  0.15473438463E+03  0.12000000000E+03 0.  0.
<mgrwt>
<rscale>  0 0.27066912E+03</rscale>
<asrwt>0</asrwt>
<pdfrwt beam="1">  1        1 0.47214568E-01 0.27066912E+03</pdfrwt>
<pdfrwt beam="2">  1       -1 0.91815225E-02 0.27066912E+03</pdfrwt>
<totfact> 0.58805437E+03</totfact>
</mgrwt>
</event>
<event>
 5    1  0.1107336E+001  0.2785721E+03  0.7818608E-02  0.1096471E+00
         -1   -1    0    0    0  501 -0.00000000000E+00  0.00000000000E+00  0.93960014162E+02  0.93960014162E+02  0.00000000000E+00 0.  1.
          1   -1    0    0  501    0  0.00000000000E+00 -0.00000000000E+00 -0.20647724495E+03  0.20647724495E+03  0.00000000000E+00 0.  1.
         35    2    1    2    0    0  0.00000000000E+00  0.00000000000E+00 -0.11251723078E+03  0.30043725911E+03  0.27857210815E+03 0.  0.
         25    1    3    3    0    0 -0.56311596528E+02 -0.11068519651E+02 -0.11698609646E+02  0.13353039167E+03  0.12000000000E+03 0.  0.
         25    1    3    3    0    0  0.56311596528E+02  0.11068519651E+02 -0.10081862114E+03  0.16690686744E+03  0.12000000000E+03 0.  0.
<mgrwt>
<rscale>  0 0.27857211E+03</rscale>
<asrwt>0</asrwt>
<pdfrwt beam="1">  1        1 0.31765730E-01 0.27857211E+03</pdfrwt>
<pdfrwt beam="2">  1       -1 0.14455387E-01 0.27857211E+03</pdfrwt>
<totfact> 0.47727552E+03</totfact>
</mgrwt>
</event>
<event>
 5    1  0.1107336E+001  0.2810971E+03  0.7818608E-02  0.1095091E+00
          1   -1    0    0  501    0  0.00000000000E+00  0.00000000000E+00  0.16902287845E+04  0.16902287845E+04  0.00000000000E+00 0.  1.
         -1   -1    0    0    0  501 -0.00000000000E+00 -0.00000000000E+00 -0.11687114021E+02  0.11687114021E+02  0.00000000000E+00 0.  1.
         35    2    1    2    0    0  0.00000000000E+00  0.00000000000E+00  0.16785416705E+04  0.17019158986E+04  0.28109711152E+03 0.  0.
         25    1    3    3    0    0  0.28710507144E+02  0.15821576112E+02  0.12353364291E+04  0.12415839514E+04  0.12000000000E+03 0.  0.
         25    1    3    3    0    0 -0.28710507144E+02 -0.15821576112E+02  0.44320524147E+03  0.46033194714E+03  0.12000000000E+03 0.  0.
<mgrwt>
<rscale>  0 0.28109711E+03</rscale>
<asrwt>0</asrwt>
<pdfrwt beam="1">  1        1 0.26003500E+00 0.28109711E+03</pdfrwt>
<pdfrwt beam="2">  1       -1 0.17980189E-02 0.28109711E+03</pdfrwt>
<totfact> 0.42991433E+03</totfact>
</mgrwt>
</event>
<event>
 5    1  0.1107336E+001  0.2743776E+03  0.7818608E-02  0.1098800E+00
         -1   -1    0    0    0  501 -0.00000000000E+00  0.00000000000E+00  0.55539023117E+02  0.55539023117E+02  0.00000000000E+00 0.  1.
          1   -1    0    0  501    0  0.00000000000E+00 -0.00000000000E+00 -0.33887466127E+03  0.33887466127E+03  0.00000000000E+00 0.  1.
         35    2    1    2    0    0  0.00000000000E+00  0.00000000000E+00 -0.28333563815E+03  0.39441368439E+03  0.27437760584E+03 0.  0.
         25    1    3    3    0    0 -0.41435424126E+02 -0.97133316316E+01 -0.21509958942E+03  0.24995814960E+03  0.12000000000E+03 0.  0.
         25    1    3    3    0    0  0.41435424126E+02  0.97133316316E+01 -0.68236048739E+02  0.14445553479E+03  0.12000000000E+03 0.  0.
<mgrwt>
<rscale>  0 0.27437761E+03</rscale>
<asrwt>0</asrwt>
<pdfrwt beam="1">  1        1 0.52134564E-01 0.27437761E+03</pdfrwt>
<pdfrwt beam="2">  1       -1 0.85444649E-02 0.27437761E+03</pdfrwt>
<totfact> 0.57975775E+03</totfact>
</mgrwt>
</event>
<event>
 5    1  0.1107336E+001  0.2759800E+03  0.7818608E-02  0.1097905E+00
         -1   -1    0    0    0  501 -0.00000000000E+00  0.00000000000E+00  0.18374692564E+03  0.18374692564E+03  0.00000000000E+00 0. -1.
          1   -1    0    0  501    0  0.00000000000E+00 -0.00000000000E+00 -0.10362751693E+03  0.10362751693E+03  0.00000000000E+00 0. -1.
         35    2    1    2    0    0  0.00000000000E+00  0.00000000000E+00  0.80119408710E+02  0.28737444257E+03  0.27597998222E+03 0.  0.
         25    1    3    3    0    0  0.21133713262E+02 -0.64358701788E+02  0.32510456737E+02  0.14158250644E+03  0.12000000000E+03 0.  0.
         25    1    3    3    0    0 -0.21133713262E+02  0.64358701788E+02  0.47608951973E+02  0.14579193613E+03  0.12000000000E+03 0.  0.
<mgrwt>
<rscale>  0 0.27597998E+03</rscale>
<asrwt>0</asrwt>
<pdfrwt beam="1">  1        1 0.15942695E-01 0.27597998E+03</pdfrwt>
<pdfrwt beam="2">  1       -1 0.28268758E-01 0.27597998E+03</pdfrwt>
<totfact> 0.38674073E+03</totfact>
</mgrwt>
</event>
<event>
 5    1  0.1107336E+001  0.2743909E+03  0.7818608E-02  0.1098793E+00
          2   -1    0    0  501    0  0.00000000000E+00  0.00000000000E+00  0.11547139636E+03  0.11547139636E+03  0.00000000000E+00 0.  1.
         -2   -1    0    0    0  501 -0.00000000000E+00 -0.00000000000E+00 -0.16300655035E+03  0.16300655035E+03  0.00000000000E+00 0.  1.
         35    2    1    2    0    0  0.00000000000E+00  0.00000000000E+00 -0.47535153984E+02  0.27847794671E+03  0.27439091811E+03 0.  0.
         25    1    3    3    0    0 -0.52677291176E+02  0.20648187582E+02 -0.59235930174E+02  0.14529328986E+03  0.12000000000E+03 0.  0.
         25    1    3    3    0    0  0.52677291176E+02 -0.20648187582E+02  0.11700776190E+02  0.13318465685E+03  0.12000000000E+03 0.  0.
<mgrwt>
<rscale>  0 0.27439092E+03</rscale>
<asrwt>0</asrwt>
<pdfrwt beam="1">  1        2 0.17764830E-01 0.27439092E+03</pdfrwt>
<pdfrwt beam="2">  1       -2 0.25077931E-01 0.27439092E+03</pdfrwt>
<totfact> 0.44786803E+03</totfact>
</mgrwt>
</event>
<event>
 5    1  0.1107336E+001  0.2744995E+03  0.7818608E-02  0.1098732E+00
         -2   -1    0    0    0  501 -0.00000000000E+00  0.00000000000E+00  0.66239117691E+01  0.66239117691E+01  0.00000000000E+00 0. -1.
          2   -1    0    0  501    0  0.00000000000E+00 -0.00000000000E+00 -0.28438630574E+04  0.28438630574E+04  0.00000000000E+00 0. -1.
         35    2    1    2    0    0  0.00000000000E+00  0.00000000000E+00 -0.28372391456E+04  0.28504869692E+04  0.27449952988E+03 0.  0.
         25    1    3    3    0    0  0.23599632980E+02  0.30145598933E+02 -0.19847116934E+04  0.19887046553E+04  0.12000000000E+03 0.  0.
         25    1    3    3    0    0 -0.23599632980E+02 -0.30145598933E+02 -0.85252745220E+03  0.86178231391E+03  0.12000000000E+03 0.  0.
<mgrwt>
<rscale>  0 0.27449953E+03</rscale>
<asrwt>0</asrwt>
<pdfrwt beam="1">  1        2 0.43751768E+00 0.27449953E+03</pdfrwt>
<pdfrwt beam="2">  1       -2 0.10190627E-02 0.27449953E+03</pdfrwt>
<totfact> 0.53331384E+03</totfact>
</mgrwt>
</event>
<event>
 5    1  0.1107336E+001  0.2740228E+03  0.7818608E-02  0.1098999E+00
         -2   -1    0    0    0  501 -0.00000000000E+00  0.00000000000E+00  0.11120125251E+02  0.11120125251E+02  0.00000000000E+00 0. -1.
          2   -1    0    0  501    0  0.00000000000E+00 -0.00000000000E+00 -0.16881210366E+04  0.16881210366E+04  0.00000000000E+00 0. -1.
         35    2    1    2    0    0  0.00000000000E+00  0.00000000000E+00 -0.16770009114E+04  0.16992411619E+04  0.27402275356E+03 0.  0.
         25    1    3    3    0    0 -0.36251877442E+02 -0.35097139114E+02 -0.57350903689E+03  0.58809746062E+03  0.12000000000E+03 0.  0.
         25    1    3    3    0    0  0.36251877442E+02  0.35097139114E+02 -0.11034918745E+04  0.11111437013E+04  0.12000000000E+03 0.  0.
<mgrwt>
<rscale>  0 0.27402275E+03</rscale>
<asrwt>0</asrwt>
<pdfrwt beam="1">  1        2 0.25971089E+00 0.27402275E+03</pdfrwt>
<pdfrwt beam="2">  1       -2 0.17107887E-02 0.27402275E+03</pdfrwt>
<totfact> 0.10543516E+04</totfact>
</mgrwt>
</event>
<event>
 5    1  0.1107336E+001  0.2744622E+03  0.7818608E-02  0.1098753E+00
          2   -1    0    0  501    0  0.00000000000E+00  0.00000000000E+00  0.19257746508E+03  0.19257746508E+03  0.00000000000E+00 0.  1.
         -2   -1    0    0    0  501 -0.00000000000E+00 -0.00000000000E+00 -0.97791135103E+02  0.97791135103E+02  0.00000000000E+00 0.  1.
         35    2    1    2    0    0  0.00000000000E+00  0.00000000000E+00  0.94786329980E+02  0.29036860019E+03  0.27446215700E+03 0.  0.
         25    1    3    3    0    0  0.61973005981E+02  0.13409183794E+02  0.68864939529E+02  0.15219342817E+03  0.12000000000E+03 0.  0.
         25    1    3    3    0    0 -0.61973005981E+02 -0.13409183794E+02  0.25921390451E+02  0.13817517202E+03  0.12000000000E+03 0.  0.
<mgrwt>
<rscale>  0 0.27446216E+03</rscale>
<asrwt>0</asrwt>
<pdfrwt beam="1">  1        2 0.29627302E-01 0.27446216E+03</pdfrwt>
<pdfrwt beam="2">  1       -2 0.15044790E-01 0.27446216E+03</pdfrwt>
<totfact> 0.60111041E+03</totfact>
</mgrwt>
</event>
<event>
 5    1  0.1107336E+001  0.2751941E+03  0.7818608E-02  0.1098343E+00
         -2   -1    0    0    0  501 -0.00000000000E+00  0.00000000000E+00  0.95775778204E+02  0.95775778204E+02  0.00000000000E+00 0.  1.
          2   -1    0    0  501    0  0.00000000000E+00 -0.00000000000E+00 -0.19767995468E+03  0.19767995468E+03  0.00000000000E+00 0.  1.
         35    2    1    2    0    0  0.00000000000E+00  0.00000000000E+00 -0.10190417647E+03  0.29345573288E+03  0.27519412417E+03 0.  0.
         25    1    3    3    0    0  0.11380748081E+02 -0.33146519979E+01 -0.12162557463E+03  0.17126963756E+03  0.12000000000E+03 0.  0.
         25    1    3    3    0    0 -0.11380748081E+02  0.33146519979E+01  0.19721398160E+02  0.12218609532E+03  0.12000000000E+03 0.  0.
<mgrwt>
<rscale>  0 0.27519412E+03</rscale>
<asrwt>0</asrwt>
<pdfrwt beam="1">  1        2 0.30412300E-01 0.27519412E+03</pdfrwt>
<pdfrwt beam="2">  1       -2 0.14734735E-01 0.27519412E+03</pdfrwt>
<totfact> 0.60459102E+03</totfact>
</mgrwt>
</event>
<event>
 5    1  0.1107336E+001  0.2742593E+03  0.7818608E-02  0.1098866E+00
          2   -1    0    0  501    0  0.00000000000E+00  0.00000000000E+00  0.82959986454E+03  0.82959986454E+03  0.00000000000E+00 0. -1.
         -2   -1    0    0    0  501 -0.00000000000E+00 -0.00000000000E+00 -0.22667002796E+02  0.22667002796E+02  0.00000000000E+00 0. -1.
         35    2    1    2    0    0  0.00000000000E+00  0.00000000000E+00  0.80693286175E+03  0.85226686734E+03  0.27425931123E+03 0.  0.
         25    1    3    3    0    0  0.35960792978E+02  0.50674092050E+02  0.33102048560E+03  0.35754105236E+03  0.12000000000E+03 0.  0.
         25    1    3    3    0    0 -0.35960792978E+02 -0.50674092050E+02  0.47591237615E+03  0.49472581498E+03  0.12000000000E+03 0.  0.
<mgrwt>
<rscale>  0 0.27425931E+03</rscale>
<asrwt>0</asrwt>
<pdfrwt beam="1">  1        2 0.12763072E+00 0.27425931E+03</pdfrwt>
<pdfrwt beam="2">  1       -2 0.34872318E-02 0.27425931E+03</pdfrwt>
<totfact> 0.11400863E+04</totfact>
</mgrwt>
</event>
<event>
 5    1  0.1107336E+001  0.2746000E+03  0.7818608E-02  0.1098675E+00
         -1   -1    0    0    0  501 -0.00000000000E+00  0.00000000000E+00  0.35075409941E+02  0.35075409941E+02  0.00000000000E+00 0. -1.
          1   -1    0    0  501    0  0.00000000000E+00 -0.00000000000E+00 -0.53745012891E+03  0.53745012891E+03  0.00000000000E+00 0. -1.
         35    2    1    2    0    0  0.00000000000E+00  0.00000000000E+00 -0.50237471897E+03  0.57252553885E+03  0.27459995335E+03 0.  0.
         25    1    3    3    0    0 -0.61331898928E+02 -0.25301329782E+02 -0.23651485114E+03  0.27338806471E+03  0.12000000000E+03 0.  0.
         25    1    3    3    0    0  0.61331898928E+02  0.25301329782E+02 -0.26585986782E+03  0.29913747414E+03  0.12000000000E+03 0.  0.
<mgrwt>
<rscale>  0 0.27459995E+03</rscale>
<asrwt>0</asrwt>
<pdfrwt beam="1">  1        1 0.82684633E-01 0.27459995E+03</pdfrwt>
<pdfrwt beam="2">  1       -1 0.53962171E-02 0.27459995E+03</pdfrwt>
<totfact> 0.63962737E+03</totfact>
</mgrwt>
</event>
<event>
 5    1  0.1107336E+001  0.2738102E+03  0.7818608E-02  0.1099119E+00
         -2   -1    0    0    0  501 -0.00000000000E+00  0.00000000000E+00  0.27339053884E+02  0.27339053884E+02  0.00000000000E+00 0. -1.
          2   -1    0    0  501    0  0.00000000000E+00 -0.00000000000E+00 -0.68557636163E+03  0.68557636163E+03  0.00000000000E+00 0. -1.
         35    2    1    2    0    0  0.00000000000E+00  0.00000000000E+00 -0.65823730775E+03  0.71291541552E+03  0.27381021962E+03 0.  0.
         25    1    3    3    0    0 -0.20164426470E+02 -0.47707779467E+02 -0.22302457317E+03  0.25850067032E+03  0.12000000000E+03 0.  0.
         25    1    3    3    0    0  0.20164426470E+02  0.47707779467E+02 -0.43521273458E+03  0.45441474520E+03  0.12000000000E+03 0.  0.
<mgrwt>
<rscale>  0 0.27381022E+03</rscale>
<asrwt>0</asrwt>
<pdfrwt beam="1">  1        2 0.10547328E+00 0.27381022E+03</pdfrwt>
<pdfrwt beam="2">  1       -2 0.42060084E-02 0.27381022E+03</pdfrwt>
<totfact> 0.10911491E+04</totfact>
</mgrwt>
</event>
<event>
 5    1  0.1107336E+001  0.2755788E+03  0.7818608E-02  0.1098129E+00
         -1   -1    0    0    0  501 -0.00000000000E+00  0.00000000000E+00  0.63821262307E+03  0.63821262307E+03  0.00000000000E+00 0. -1.
          1   -1    0    0  501    0  0.00000000000E+00 -0.00000000000E+00 -0.29748578572E+02  0.29748578572E+02  0.00000000000E+00 0. -1.
         35    2    1    2    0    0  0.00000000000E+00  0.00000000000E+00  0.60846404450E+03  0.66796120164E+03  0.27557879717E+03 0.  0.
         25    1    3    3    0    0 -0.45500135426E+02 -0.22406785993E+02  0.41299752547E+03  0.43305805896E+03  0.12000000000E+03 0.  0.
         25    1    3    3    0    0  0.45500135426E+02  0.22406785993E+02  0.19546651903E+03  0.23490314268E+03  0.12000000000E+03 0.  0.
<mgrwt>
<rscale>  0 0.27557880E+03</rscale>
<asrwt>0</asrwt>
<pdfrwt beam="1">  1        1 0.45767049E-02 0.27557880E+03</pdfrwt>
<pdfrwt beam="2">  1       -1 0.98186547E-01 0.27557880E+03</pdfrwt>
<totfact> 0.19751608E+03</totfact>
</mgrwt>
</event>
<event>
 5    1  0.1107336E+001  0.2744203E+03  0.7818608E-02  0.1098776E+00
          2   -1    0    0  501    0  0.00000000000E+00  0.00000000000E+00  0.80396541798E+02  0.80396541798E+02  0.00000000000E+00 0. -1.
         -2   -1    0    0    0  501 -0.00000000000E+00 -0.00000000000E+00 -0.23417203495E+03  0.23417203495E+03  0.00000000000E+00 0. -1.
         35    2    1    2    0    0  0.00000000000E+00  0.00000000000E+00 -0.15377549315E+03  0.31456857675E+03  0.27442027473E+03 0.  0.
         25    1    3    3    0    0 -0.45389995868E+02  0.47390781370E+02 -0.89470151933E+02  0.16343514301E+03  0.12000000000E+03 0.  0.
         25    1    3    3    0    0  0.45389995868E+02 -0.47390781370E+02 -0.64305341217E+02  0.15113343374E+03  0.12000000000E+03 0.  0.
<mgrwt>
<rscale>  0 0.27442027E+03</rscale>
<asrwt>0</asrwt>
<pdfrwt beam="1">  1        2 0.12368699E-01 0.27442027E+03</pdfrwt>
<pdfrwt beam="2">  1       -2 0.36026466E-01 0.27442027E+03</pdfrwt>
<totfact> 0.35634042E+03</totfact>
</mgrwt>
</event>
<event>
 5    1  0.1107336E+001  0.2752149E+03  0.7818608E-02  0.1098332E+00
          2   -1    0    0  501    0  0.00000000000E+00  0.00000000000E+00  0.26471236728E+03  0.26471236728E+03  0.00000000000E+00 0.  1.
         -2   -1    0    0    0  501 -0.00000000000E+00 -0.00000000000E+00 -0.71533520088E+02  0.71533520088E+02  0.00000000000E+00 0.  1.
         35    2    1    2    0    0  0.00000000000E+00  0.00000000000E+00  0.19317884720E+03  0.33624588737E+03  0.27521487927E+03 0.  0.
         25    1    3    3    0    0  0.54267924684E+02 -0.34664597487E+02  0.72487471270E+02  0.15427597175E+03  0.12000000000E+03 0.  0.
         25    1    3    3    0    0 -0.54267924684E+02  0.34664597487E+02  0.12069137593E+03  0.18196991562E+03  0.12000000000E+03 0.  0.
<mgrwt>
<rscale>  0 0.27521488E+03</rscale>
<asrwt>0</asrwt>
<pdfrwt beam="1">  1        2 0.40724979E-01 0.27521488E+03</pdfrwt>
<pdfrwt beam="2">  1       -2 0.11005157E-01 0.27521488E+03</pdfrwt>
<totfact> 0.70739673E+03</totfact>
</mgrwt>
</event>
<event>
 5    1  0.1107336E+001  0.2751244E+03  0.7818608E-02  0.1098382E+00
         -2   -1    0    0    0  501 -0.00000000000E+00  0.00000000000E+00  0.39017534015E+03  0.39017534015E+03  0.00000000000E+00 0.  1.
          2   -1    0    0  501    0  0.00000000000E+00 -0.00000000000E+00 -0.48499642225E+02  0.48499642225E+02  0.00000000000E+00 0.  1.
         35    2    1    2    0    0  0.00000000000E+00  0.00000000000E+00  0.34167569792E+03  0.43867498237E+03  0.27512444022E+03 0.  0.
         25    1    3    3    0    0  0.70554118679E+01  0.17033435075E+02  0.67708835088E+02  0.13901224081E+03  0.12000000000E+03 0.  0.
         25    1    3    3    0    0 -0.70554118679E+01 -0.17033435075E+02  0.27396686283E+03  0.29966274156E+03  0.12000000000E+03 0.  0.
<mgrwt>
<rscale>  0 0.27512444E+03</rscale>
<asrwt>0</asrwt>
<pdfrwt beam="1">  1        2 0.74614836E-02 0.27512444E+03</pdfrwt>
<pdfrwt beam="2">  1       -2 0.60026974E-01 0.27512444E+03</pdfrwt>
<totfact> 0.24503292E+03</totfact>
</mgrwt>
</event>
<event>
 5    1  0.1107336E+001  0.2722981E+03  0.7818608E-02  0.1099971E+00
         -4   -1    0    0    0  501 -0.00000000000E+00  0.00000000000E+00  0.45998830891E+02  0.45998830891E+02  0.00000000000E+00 0.  1.
          4   -1    0    0  501    0  0.00000000000E+00 -0.00000000000E+00 -0.40297908962E+03  0.40297908962E+03  0.00000000000E+00 0.  1.
         35    2    1    2    0    0  0.00000000000E+00  0.00000000000E+00 -0.35698025873E+03  0.44897792051E+03  0.27229812336E+03 0.  0.
         25    1    3    3    0    0 -0.24301527051E+02 -0.57629161233E+02 -0.15376388146E+03  0.20482923542E+03  0.12000000000E+03 0.  0.
         25    1    3    3    0    0  0.24301527051E+02  0.57629161233E+02 -0.20321637727E+03  0.24414868509E+03  0.12000000000E+03 0.  0.
<mgrwt>
<rscale>  0 0.27229812E+03</rscale>
<asrwt>0</asrwt>
<pdfrwt beam="1">  1        4 0.61996783E-01 0.27229812E+03</pdfrwt>
<pdfrwt beam="2">  1       -4 0.70767432E-02 0.27229812E+03</pdfrwt>
<totfact> 0.62692231E+02</totfact>
</mgrwt>
</event>
<event>
 5    1  0.1107336E+001  0.2747664E+03  0.7818608E-02  0.1098582E+00
         -2   -1    0    0    0  501 -0.00000000000E+00  0.00000000000E+00  0.49270517872E+01  0.49270517872E+01  0.00000000000E+00 0.  1.
          2   -1    0    0  501    0  0.00000000000E+00 -0.00000000000E+00 -0.38307188813E+04  0.38307188813E+04  0.00000000000E+00 0.  1.
         35    2    1    2    0    0  0.00000000000E+00  0.00000000000E+00 -0.38257918295E+04  0.38356459331E+04  0.27476644854E+03 0.  0.
         25    1    3    3    0    0  0.27173137306E+02 -0.61067190405E+02 -0.19486750824E+04  0.19535102144E+04  0.12000000000E+03 0.  0.
         25    1    3    3    0    0 -0.27173137306E+02  0.61067190405E+02 -0.18771167471E+04  0.18821357187E+04  0.12000000000E+03 0.  0.
<mgrwt>
<rscale>  0 0.27476645E+03</rscale>
<asrwt>0</asrwt>
<pdfrwt beam="1">  1        2 0.58933916E+00 0.27476645E+03</pdfrwt>
<pdfrwt beam="2">  1       -2 0.75801081E-03 0.27476645E+03</pdfrwt>
<totfact> 0.19064452E+03</totfact>
</mgrwt>
</event>
<event>
 5    1  0.1107336E+001  0.2750805E+03  0.7818608E-02  0.1098407E+00
          3   -1    0    0  501    0  0.00000000000E+00  0.00000000000E+00  0.24355888864E+02  0.24355888864E+02  0.00000000000E+00 0.  1.
         -3   -1    0    0    0  501 -0.00000000000E+00 -0.00000000000E+00 -0.77670424712E+03  0.77670424712E+03  0.00000000000E+00 0.  1.
         35    2    1    2    0    0  0.00000000000E+00  0.00000000000E+00 -0.75234835826E+03  0.80106013598E+03  0.27508051420E+03 0.  0.
         25    1    3    3    0    0 -0.55940983145E+02  0.33776655898E+02 -0.42194745544E+03  0.44351991075E+03  0.12000000000E+03 0.  0.
         25    1    3    3    0    0  0.55940983145E+02 -0.33776655898E+02 -0.33040090282E+03  0.35754022524E+03  0.12000000000E+03 0.  0.
<mgrwt>
<rscale>  0 0.27508051E+03</rscale>
<asrwt>0</asrwt>
<pdfrwt beam="1">  1        3 0.37470595E-02 0.27508051E+03</pdfrwt>
<pdfrwt beam="2">  1       -3 0.11949297E+00 0.27508051E+03</pdfrwt>
<totfact> 0.54499391E+02</totfact>
</mgrwt>
</event>
<event>
 5    1  0.1107336E+001  0.2762346E+03  0.7818608E-02  0.1097763E+00
         -2   -1    0    0    0  501 -0.00000000000E+00  0.00000000000E+00  0.88696701823E+01  0.88696701823E+01  0.00000000000E+00 0.  1.
          2   -1    0    0  501    0  0.00000000000E+00 -0.00000000000E+00 -0.21507433844E+04  0.21507433844E+04  0.00000000000E+00 0.  1.
         35    2    1    2    0    0  0.00000000000E+00  0.00000000000E+00 -0.21418737143E+04  0.21596130546E+04  0.27623457037E+03 0.  0.
         25    1    3    3    0    0 -0.26141125066E+02  0.62894352549E+02 -0.11187014790E+04  0.11271788044E+04  0.12000000000E+03 0.  0.
         25    1    3    3    0    0  0.26141125066E+02 -0.62894352549E+02 -0.10231722353E+04  0.10324342503E+04  0.12000000000E+03 0.  0.
<mgrwt>
<rscale>  0 0.27623457E+03</rscale>
<asrwt>0</asrwt>
<pdfrwt beam="1">  1        2 0.33088321E+00 0.27623457E+03</pdfrwt>
<pdfrwt beam="2">  1       -2 0.13645662E-02 0.27623457E+03</pdfrwt>
<totfact> 0.83807245E+03</totfact>
</mgrwt>
</event>
<event>
 5    1  0.1107336E+001  0.2750839E+03  0.7818608E-02  0.1098405E+00
          2   -1    0    0  501    0  0.00000000000E+00  0.00000000000E+00  0.26066571105E+04  0.26066571105E+04  0.00000000000E+00 0.  1.
         -2   -1    0    0    0  501 -0.00000000000E+00 -0.00000000000E+00 -0.72574890983E+01  0.72574890983E+01  0.00000000000E+00 0.  1.
         35    2    1    2    0    0  0.00000000000E+00  0.00000000000E+00  0.25993996214E+04  0.26139145996E+04  0.27508388220E+03 0.  0.
         25    1    3    3    0    0 -0.49491412687E+01 -0.56333896475E+02  0.95449437551E+03  0.96366877856E+03  0.12000000000E+03 0.  0.
         25    1    3    3    0    0  0.49491412687E+01  0.56333896475E+02  0.16449052459E+04  0.16502458210E+04  0.12000000000E+03 0.  0.
<mgrwt>
<rscale>  0 0.27508388E+03</rscale>
<asrwt>0</asrwt>
<pdfrwt beam="1">  1        2 0.40102342E+00 0.27508388E+03</pdfrwt>
<pdfrwt beam="2">  1       -2 0.11165389E-02 0.27508388E+03</pdfrwt>
<totfact> 0.63600551E+03</totfact>
</mgrwt>
</event>
<event>
 5    1  0.1107336E+001  0.2758847E+03  0.7818608E-02  0.1097958E+00
         -1   -1    0    0    0  501 -0.00000000000E+00  0.00000000000E+00  0.76070907451E+01  0.76070907451E+01  0.00000000000E+00 0.  1.
          1   -1    0    0  501    0  0.00000000000E+00 -0.00000000000E+00 -0.25013627150E+04  0.25013627150E+04  0.00000000000E+00 0.  1.
         35    2    1    2    0    0  0.00000000000E+00  0.00000000000E+00 -0.24937556242E+04  0.25089698057E+04  0.27588470896E+03 0.  0.
         25    1    3    3    0    0  0.12457783861E+02  0.34025628510E+02 -0.72325372265E+03  0.73403602575E+03  0.12000000000E+03 0.  0.
         25    1    3    3    0    0 -0.12457783861E+02 -0.34025628510E+02 -0.17705019016E+04  0.17749337799E+04  0.12000000000E+03 0.  0.
<mgrwt>
<rscale>  0 0.27588471E+03</rscale>
<asrwt>0</asrwt>
<pdfrwt beam="1">  1        1 0.38482527E+00 0.27588471E+03</pdfrwt>
<pdfrwt beam="2">  1       -1 0.11703209E-02 0.27588471E+03</pdfrwt>
<totfact> 0.23694875E+03</totfact>
</mgrwt>
</event>
<event>
 5    1  0.1107336E+001  0.2746444E+03  0.7818608E-02  0.1098651E+00
         -2   -1    0    0    0  501 -0.00000000000E+00  0.00000000000E+00  0.17133222118E+02  0.17133222118E+02  0.00000000000E+00 0.  1.
          2   -1    0    0  501    0  0.00000000000E+00 -0.00000000000E+00 -0.11006326812E+04  0.11006326812E+04  0.00000000000E+00 0.  1.
         35    2    1    2    0    0  0.00000000000E+00  0.00000000000E+00 -0.10834994591E+04  0.11177659033E+04  0.27464438241E+03 0.  0.
         25    1    3    3    0    0  0.46750700158E+02  0.23259405509E+02 -0.37243369198E+03  0.39475749877E+03  0.12000000000E+03 0.  0.
         25    1    3    3    0    0 -0.46750700158E+02 -0.23259405509E+02 -0.71106576712E+03  0.72300840457E+03  0.12000000000E+03 0.  0.
<mgrwt>
<rscale>  0 0.27464438E+03</rscale>
<asrwt>0</asrwt>
<pdfrwt beam="1">  1        2 0.16932808E+00 0.27464438E+03</pdfrwt>
<pdfrwt beam="2">  1       -2 0.26358807E-02 0.27464438E+03</pdfrwt>
<totfact> 0.11702619E+04</totfact>
</mgrwt>
</event>
<event>
 5    1  0.1107336E+001  0.2790591E+03  0.7818608E-02  0.1096204E+00
         -2   -1    0    0    0  501 -0.00000000000E+00  0.00000000000E+00  0.17970473266E+02  0.17970473266E+02  0.00000000000E+00 0.  1.
          2   -1    0    0  501    0  0.00000000000E+00 -0.00000000000E+00 -0.10833600392E+04  0.10833600392E+04  0.00000000000E+00 0.  1.
         35    2    1    2    0    0  0.00000000000E+00  0.00000000000E+00 -0.10653895660E+04  0.11013305125E+04  0.27905908064E+03 0.  0.
         25    1    3    3    0    0 -0.46383695146E+02  0.51672498243E+02 -0.47066952800E+03  0.49066414057E+03  0.12000000000E+03 0.  0.
         25    1    3    3    0    0  0.46383695146E+02 -0.51672498243E+02 -0.59472003798E+03  0.61066637194E+03  0.12000000000E+03 0.  0.
<mgrwt>
<rscale>  0 0.27905908E+03</rscale>
<asrwt>0</asrwt>
<pdfrwt beam="1">  1        2 0.16667076E+00 0.27905908E+03</pdfrwt>
<pdfrwt beam="2">  1       -2 0.27646884E-02 0.27905908E+03</pdfrwt>
<totfact> 0.11166765E+04</totfact>
</mgrwt>
</event>
<event>
 5    1  0.1107336E+001  0.2759951E+03  0.7818608E-02  0.1097897E+00
         -1   -1    0    0    0  501 -0.00000000000E+00  0.00000000000E+00  0.16338219201E+02  0.16338219201E+02  0.00000000000E+00 0. -1.
          1   -1    0    0  501    0  0.00000000000E+00 -0.00000000000E+00 -0.11655692765E+04  0.11655692765E+04  0.00000000000E+00 0. -1.
         35    2    1    2    0    0  0.00000000000E+00  0.00000000000E+00 -0.11492310573E+04  0.11819074957E+04  0.27599511831E+03 0.  0.
         25    1    3    3    0    0  0.29413211144E+02  0.28214539034E+02 -0.80846980123E+03  0.81834260350E+03  0.12000000000E+03 0.  0.
         25    1    3    3    0    0 -0.29413211144E+02 -0.28214539034E+02 -0.34076125607E+03  0.36356489220E+03  0.12000000000E+03 0.  0.
<mgrwt>
<rscale>  0 0.27599512E+03</rscale>
<asrwt>0</asrwt>
<pdfrwt beam="1">  1        1 0.17931837E+00 0.27599512E+03</pdfrwt>
<pdfrwt beam="2">  1       -1 0.25135719E-02 0.27599512E+03</pdfrwt>
<totfact> 0.59317698E+03</totfact>
</mgrwt>
</event>
<event>
 5    1  0.1107336E+001  0.2740063E+03  0.7818608E-02  0.1099008E+00
          2   -1    0    0  501    0  0.00000000000E+00  0.00000000000E+00  0.23093426161E+03  0.23093426161E+03  0.00000000000E+00 0. -1.
         -2   -1    0    0    0  501 -0.00000000000E+00 -0.00000000000E+00 -0.81277946716E+02  0.81277946716E+02  0.00000000000E+00 0. -1.
         35    2    1    2    0    0  0.00000000000E+00  0.00000000000E+00  0.14965631490E+03  0.31221220833E+03  0.27400629635E+03 0.  0.
         25    1    3    3    0    0  0.55253744574E+02  0.30924512779E+02  0.53192075828E+02  0.14573502911E+03  0.12000000000E+03 0.  0.
         25    1    3    3    0    0 -0.55253744574E+02 -0.30924512779E+02  0.96464239068E+02  0.16647717921E+03  0.12000000000E+03 0.  0.
<mgrwt>
<rscale>  0 0.27400630E+03</rscale>
<asrwt>0</asrwt>
<pdfrwt beam="1">  1        2 0.35528348E-01 0.27400630E+03</pdfrwt>
<pdfrwt beam="2">  1       -2 0.12504300E-01 0.27400630E+03</pdfrwt>
<totfact> 0.66728385E+03</totfact>
</mgrwt>
</event>
<event>
 5    1  0.1107336E+001  0.2744708E+03  0.7818608E-02  0.1098748E+00
          2   -1    0    0  501    0  0.00000000000E+00  0.00000000000E+00  0.22203188302E+03  0.22203188302E+03  0.00000000000E+00 0. -1.
         -2   -1    0    0    0  501 -0.00000000000E+00 -0.00000000000E+00 -0.84823671058E+02  0.84823671058E+02  0.00000000000E+00 0. -1.
         35    2    1    2    0    0  0.00000000000E+00  0.00000000000E+00  0.13720821196E+03  0.30685555408E+03  0.27447083203E+03 0.  0.
         25    1    3    3    0    0 -0.46974398099E+02  0.37111195068E+02  0.36014668199E+02  0.13885564879E+03  0.12000000000E+03 0.  0.
         25    1    3    3    0    0  0.46974398099E+02 -0.37111195068E+02  0.10119354376E+03  0.16799990528E+03  0.12000000000E+03 0.  0.
<mgrwt>
<rscale>  0 0.27447083E+03</rscale>
<asrwt>0</asrwt>
<pdfrwt beam="1">  1        2 0.34158751E-01 0.27447083E+03</pdfrwt>
<pdfrwt beam="2">  1       -2 0.13049796E-01 0.27447083E+03</pdfrwt>
<totfact> 0.64976565E+03</totfact>
</mgrwt>
</event>
<event>
 5    1  0.1107336E+001  0.2749853E+03  0.7818608E-02  0.1098460E+00
          2   -1    0    0  501    0  0.00000000000E+00  0.00000000000E+00  0.24289444811E+03  0.24289444811E+03  0.00000000000E+00 0.  1.
         -2   -1    0    0    0  501 -0.00000000000E+00 -0.00000000000E+00 -0.77828960862E+02  0.77828960862E+02  0.00000000000E+00 0.  1.
         35    2    1    2    0    0  0.00000000000E+00  0.00000000000E+00  0.16506548725E+03  0.32072340897E+03  0.27498525412E+03 0.  0.
         25    1    3    3    0    0  0.11247141147E+02  0.65716074123E+02  0.91500741434E+02  0.16497722954E+03  0.12000000000E+03 0.  0.
         25    1    3    3    0    0 -0.11247141147E+02 -0.65716074123E+02  0.73564745812E+02  0.15574617943E+03  0.12000000000E+03 0.  0.
<mgrwt>
<rscale>  0 0.27498525E+03</rscale>
<asrwt>0</asrwt>
<pdfrwt beam="1">  1        2 0.37368376E-01 0.27498525E+03</pdfrwt>
<pdfrwt beam="2">  1       -2 0.11973686E-01 0.27498525E+03</pdfrwt>
<totfact> 0.67775158E+03</totfact>
</mgrwt>
</event>
<event>
 5    1  0.1107336E+001  0.2762765E+03  0.7818608E-02  0.1097740E+00
         -2   -1    0    0    0  501 -0.00000000000E+00  0.00000000000E+00  0.66006946071E+01  0.66006946071E+01  0.00000000000E+00 0.  1.
          2   -1    0    0  501    0  0.00000000000E+00 -0.00000000000E+00 -0.28909354548E+04  0.28909354548E+04  0.00000000000E+00 0.  1.
         35    2    1    2    0    0  0.00000000000E+00  0.00000000000E+00 -0.28843347602E+04  0.28975361494E+04  0.27627654309E+03 0.  0.
         25    1    3    3    0    0  0.60894505121E+02  0.29288824387E+02 -0.13291099077E+04  0.13362257005E+04  0.12000000000E+03 0.  0.
         25    1    3    3    0    0 -0.60894505121E+02 -0.29288824387E+02 -0.15552248525E+04  0.15613104489E+04  0.12000000000E+03 0.  0.
<mgrwt>
<rscale>  0 0.27627654E+03</rscale>
<asrwt>0</asrwt>
<pdfrwt beam="1">  1        2 0.44475907E+00 0.27627654E+03</pdfrwt>
<pdfrwt beam="2">  1       -2 0.10154920E-02 0.27627654E+03</pdfrwt>
<totfact> 0.50339190E+03</totfact>
</mgrwt>
</event>
<event>
 5    1  0.1107336E+001  0.2747355E+03  0.7818608E-02  0.1098600E+00
         -2   -1    0    0    0  501 -0.00000000000E+00  0.00000000000E+00  0.65790118954E+01  0.65790118954E+01  0.00000000000E+00 0. -1.
          2   -1    0    0  501    0  0.00000000000E+00 -0.00000000000E+00 -0.28681960644E+04  0.28681960644E+04  0.00000000000E+00 0. -1.
         35    2    1    2    0    0  0.00000000000E+00  0.00000000000E+00 -0.28616170525E+04  0.28747750763E+04  0.27473548024E+03 0.  0.
         25    1    3    3    0    0  0.64142658788E+02  0.10450384233E+02 -0.15950616813E+04  0.16008888963E+04  0.12000000000E+03 0.  0.
         25    1    3    3    0    0 -0.64142658788E+02 -0.10450384233E+02 -0.12665553712E+04  0.12738861800E+04  0.12000000000E+03 0.  0.
<mgrwt>
<rscale>  0 0.27473548E+03</rscale>
<asrwt>0</asrwt>
<pdfrwt beam="1">  1        2 0.44125917E+00 0.27473548E+03</pdfrwt>
<pdfrwt beam="2">  1       -2 0.10121597E-02 0.27473548E+03</pdfrwt>
<totfact> 0.52145727E+03</totfact>
</mgrwt>
</event>
<event>
 5    1  0.1107336E+001  0.2692024E+03  0.7818608E-02  0.1101737E+00
         -1   -1    0    0    0  501 -0.00000000000E+00  0.00000000000E+00  0.95437491469E+01  0.95437491469E+01  0.00000000000E+00 0. -1.
          1   -1    0    0  501    0  0.00000000000E+00 -0.00000000000E+00 -0.18983618167E+04  0.18983618167E+04  0.00000000000E+00 0. -1.
         35    2    1    2    0    0  0.00000000000E+00  0.00000000000E+00 -0.18888180675E+04  0.19079055658E+04  0.26920244403E+03 0.  0.
         25    1    3    3    0    0 -0.40259031426E+02  0.30829507127E+02 -0.70446176163E+03  0.71640604529E+03  0.12000000000E+03 0.  0.
         25    1    3    3    0    0  0.40259031426E+02 -0.30829507127E+02 -0.11843563059E+04  0.11914995205E+04  0.12000000000E+03 0.  0.
<mgrwt>
<rscale>  0 0.26920244E+03</rscale>
<asrwt>0</asrwt>
<pdfrwt beam="1">  1        1 0.29205571E+00 0.26920244E+03</pdfrwt>
<pdfrwt beam="2">  1       -1 0.14682689E-02 0.26920244E+03</pdfrwt>
<totfact> 0.42286744E+03</totfact>
</mgrwt>
</event>
<event>
 5    1  0.1107336E+001  0.2755886E+03  0.7818608E-02  0.1098123E+00
         -1   -1    0    0    0  501 -0.00000000000E+00  0.00000000000E+00  0.91913841115E+01  0.91913841115E+01  0.00000000000E+00 0. -1.
          1   -1    0    0  501    0  0.00000000000E+00 -0.00000000000E+00 -0.20657687599E+04  0.20657687599E+04  0.00000000000E+00 0. -1.
         35    2    1    2    0    0  0.00000000000E+00  0.00000000000E+00 -0.20565773758E+04  0.20749601440E+04  0.27558863661E+03 0.  0.
         25    1    3    3    0    0  0.57743423701E+02 -0.29761452663E+02 -0.11725719065E+04  0.11804850371E+04  0.12000000000E+03 0.  0.
         25    1    3    3    0    0 -0.57743423701E+02  0.29761452663E+02 -0.88400546932E+03  0.89447510688E+03  0.12000000000E+03 0.  0.
<mgrwt>
<rscale>  0 0.27558864E+03</rscale>
<asrwt>0</asrwt>
<pdfrwt beam="1">  1        1 0.31781097E+00 0.27558864E+03</pdfrwt>
<pdfrwt beam="2">  1       -1 0.14140574E-02 0.27558864E+03</pdfrwt>
<totfact> 0.34774636E+03</totfact>
</mgrwt>
</event>
<event>
 5    1  0.1107336E+001  0.2754415E+03  0.7818608E-02  0.1098205E+00
          1   -1    0    0  501    0  0.00000000000E+00  0.00000000000E+00  0.15921467351E+04  0.15921467351E+04  0.00000000000E+00 0. -1.
         -1   -1    0    0    0  501 -0.00000000000E+00 -0.00000000000E+00 -0.11912852412E+02  0.11912852412E+02  0.00000000000E+00 0. -1.
         35    2    1    2    0    0  0.00000000000E+00  0.00000000000E+00  0.15802338827E+04  0.16040595875E+04  0.27544152971E+03 0.  0.
         25    1    3    3    0    0 -0.48634362934E+01 -0.29876958223E+02  0.11419855649E+04  0.11486719793E+04  0.12000000000E+03 0.  0.
         25    1    3    3    0    0  0.48634362934E+01  0.29876958223E+02  0.43824831776E+03  0.45538760816E+03  0.12000000000E+03 0.  0.
<mgrwt>
<rscale>  0 0.27544153E+03</rscale>
<asrwt>0</asrwt>
<pdfrwt beam="1">  1        1 0.24494548E+00 0.27544153E+03</pdfrwt>
<pdfrwt beam="2">  1       -1 0.18327478E-02 0.27544153E+03</pdfrwt>
<totfact> 0.48469353E+03</totfact>
</mgrwt>
</event>
<event>
 5    1  0.1107336E+001  0.2763692E+03  0.7818608E-02  0.1097689E+00
          2   -1    0    0  501    0  0.00000000000E+00  0.00000000000E+00  0.67906014062E+02  0.67906014062E+02  0.00000000000E+00 0.  1.
         -2   -1    0    0    0  501 -0.00000000000E+00 -0.00000000000E+00 -0.28119720248E+03  0.28119720248E+03  0.00000000000E+00 0.  1.
         35    2    1    2    0    0  0.00000000000E+00  0.00000000000E+00 -0.21329118842E+03  0.34910321654E+03  0.27636918197E+03 0.  0.
         25    1    3    3    0    0  0.63991751001E+02  0.17281701154E+02 -0.84716469183E+02  0.16115359612E+03  0.12000000000E+03 0.  0.
         25    1    3    3    0    0 -0.63991751001E+02 -0.17281701154E+02 -0.12857471924E+03  0.18794962042E+03  0.12000000000E+03 0.  0.
<mgrwt>
<rscale>  0 0.27636918E+03</rscale>
<asrwt>0</asrwt>
<pdfrwt beam="1">  1        2 0.10447079E-01 0.27636918E+03</pdfrwt>
<pdfrwt beam="2">  1       -2 0.43261108E-01 0.27636918E+03</pdfrwt>
<totfact> 0.30925982E+03</totfact>
</mgrwt>
</event>
<event>
 5    1  0.1107336E+001  0.2751055E+03  0.7818608E-02  0.1098393E+00
         -2   -1    0    0    0  501 -0.00000000000E+00  0.00000000000E+00  0.15412224521E+02  0.15412224521E+02  0.00000000000E+00 0.  1.
          2   -1    0    0  501    0  0.00000000000E+00 -0.00000000000E+00 -0.12276461209E+04  0.12276461209E+04  0.00000000000E+00 0.  1.
         35    2    1    2    0    0  0.00000000000E+00  0.00000000000E+00 -0.12122338964E+04  0.12430583455E+04  0.27510548994E+03 0.  0.
         25    1    3    3    0    0  0.63847519421E+02  0.12334630849E+02 -0.52889076471E+03  0.54621798749E+03  0.12000000000E+03 0.  0.
         25    1    3    3    0    0 -0.63847519421E+02 -0.12334630849E+02 -0.68334313171E+03  0.69684035798E+03  0.12000000000E+03 0.  0.
<mgrwt>
<rscale>  0 0.27510549E+03</rscale>
<asrwt>0</asrwt>
<pdfrwt beam="1">  1        2 0.18886861E+00 0.27510549E+03</pdfrwt>
<pdfrwt beam="2">  1       -2 0.23711118E-02 0.27510549E+03</pdfrwt>
<totfact> 0.11569816E+04</totfact>
</mgrwt>
</event>
<event>
 5    1  0.1107336E+001  0.2748675E+03  0.7818608E-02  0.1098526E+00
          2   -1    0    0  501    0  0.00000000000E+00  0.00000000000E+00  0.70865279639E+02  0.70865279639E+02  0.00000000000E+00 0. -1.
         -2   -1    0    0    0  501 -0.00000000000E+00 -0.00000000000E+00 -0.26653433581E+03  0.26653433581E+03  0.00000000000E+00 0. -1.
         35    2    1    2    0    0  0.00000000000E+00  0.00000000000E+00 -0.19566905617E+03  0.33739961545E+03  0.27486746072E+03 0.  0.
         25    1    3    3    0    0  0.56573590566E+02  0.89453401668E+01 -0.55181091412E+02  0.14396368677E+03  0.12000000000E+03 0.  0.
         25    1    3    3    0    0 -0.56573590566E+02 -0.89453401668E+01 -0.14048796476E+03  0.19343592867E+03  0.12000000000E+03 0.  0.
<mgrwt>
<rscale>  0 0.27486746E+03</rscale>
<asrwt>0</asrwt>
<pdfrwt beam="1">  1        2 0.10902351E-01 0.27486746E+03</pdfrwt>
<pdfrwt beam="2">  1       -2 0.41005282E-01 0.27486746E+03</pdfrwt>
<totfact> 0.32528235E+03</totfact>
</mgrwt>
</event>
<event>
 5    1  0.1107336E+001  0.2751583E+03  0.7818608E-02  0.1098363E+00
         -1   -1    0    0    0  501 -0.00000000000E+00  0.00000000000E+00  0.13024835529E+02  0.13024835529E+02  0.00000000000E+00 0.  1.
          1   -1    0    0  501    0  0.00000000000E+00 -0.00000000000E+00 -0.14532255583E+04  0.14532255583E+04  0.00000000000E+00 0.  1.
         35    2    1    2    0    0  0.00000000000E+00  0.00000000000E+00 -0.14402007227E+04  0.14662503938E+04  0.27515830994E+03 0.  0.
         25    1    3    3    0    0 -0.41832572829E+02  0.12498526617E+02 -0.44724710280E+03  0.46511949893E+03  0.12000000000E+03 0.  0.
         25    1    3    3    0    0  0.41832572829E+02 -0.12498526617E+02 -0.99295361994E+03  0.10011308949E+04  0.12000000000E+03 0.  0.
<mgrwt>
<rscale>  0 0.27515831E+03</rscale>
<asrwt>0</asrwt>
<pdfrwt beam="1">  1        1 0.22357306E+00 0.27515831E+03</pdfrwt>
<pdfrwt beam="2">  1       -1 0.20038218E-02 0.27515831E+03</pdfrwt>
<totfact> 0.52570102E+03</totfact>
</mgrwt>
</event>
<event>
 5    1  0.1107336E+001  0.2748263E+03  0.7818608E-02  0.1098549E+00
          1   -1    0    0  501    0  0.00000000000E+00  0.00000000000E+00  0.62922267477E+02  0.62922267477E+02  0.00000000000E+00 0. -1.
         -1   -1    0    0    0  501 -0.00000000000E+00 -0.00000000000E+00 -0.30009052196E+03  0.30009052196E+03  0.00000000000E+00 0. -1.
         35    2    1    2    0    0  0.00000000000E+00  0.00000000000E+00 -0.23716825449E+03  0.36301278944E+03  0.27482631672E+03 0.  0.
         25    1    3    3    0    0  0.64305785084E+01  0.66611427853E+02 -0.11596177814E+03  0.17979312737E+03  0.12000000000E+03 0.  0.
         25    1    3    3    0    0 -0.64305785084E+01 -0.66611427853E+02 -0.12120647635E+03  0.18321966207E+03  0.12000000000E+03 0.  0.
<mgrwt>
<rscale>  0 0.27482632E+03</rscale>
<asrwt>0</asrwt>
<pdfrwt beam="1">  1        1 0.96803487E-02 0.27482632E+03</pdfrwt>
<pdfrwt beam="2">  1       -1 0.46167773E-01 0.27482632E+03</pdfrwt>
<totfact> 0.31791605E+03</totfact>
</mgrwt>
</event>
<event>
 5    1  0.1107336E+001  0.2748834E+03  0.7818608E-02  0.1098517E+00
          1   -1    0    0  501    0  0.00000000000E+00  0.00000000000E+00  0.19037094483E+04  0.19037094483E+04  0.00000000000E+00 0.  1.
         -1   -1    0    0    0  501 -0.00000000000E+00 -0.00000000000E+00 -0.99228496639E+01  0.99228496639E+01  0.00000000000E+00 0.  1.
         35    2    1    2    0    0  0.00000000000E+00  0.00000000000E+00  0.18937865986E+04  0.19136322980E+04  0.27488341281E+03 0.  0.
         25    1    3    3    0    0  0.62945934249E+01  0.63996267883E+02  0.10780746553E+04  0.10866370630E+04  0.12000000000E+03 0.  0.
         25    1    3    3    0    0 -0.62945934249E+01 -0.63996267883E+02  0.81571194334E+03  0.82699523500E+03  0.12000000000E+03 0.  0.
<mgrwt>
<rscale>  0 0.27488341E+03</rscale>
<asrwt>0</asrwt>
<pdfrwt beam="1">  1        1 0.29287809E+00 0.27488341E+03</pdfrwt>
<pdfrwt beam="2">  1       -1 0.15265938E-02 0.27488341E+03</pdfrwt>
<totfact> 0.39638227E+03</totfact>
</mgrwt>
</event>
<event>
 5    1  0.1107336E+001  0.2757426E+03  0.7818608E-02  0.1098037E+00
         -1   -1    0    0    0  501 -0.00000000000E+00  0.00000000000E+00  0.17767000944E+02  0.17767000944E+02  0.00000000000E+00 0.  1.
          1   -1    0    0  501    0  0.00000000000E+00 -0.00000000000E+00 -0.10698766119E+04  0.10698766119E+04  0.00000000000E+00 0.  1.
         35    2    1    2    0    0  0.00000000000E+00  0.00000000000E+00 -0.10521096109E+04  0.10876436128E+04  0.27574262473E+03 0.  0.
         25    1    3    3    0    0  0.17187339254E+00  0.67808249728E+02 -0.51326704714E+03  0.53145183221E+03  0.12000000000E+03 0.  0.
         25    1    3    3    0    0 -0.17187339254E+00 -0.67808249728E+02 -0.53884256376E+03  0.55619178059E+03  0.12000000000E+03 0.  0.
<mgrwt>
<rscale>  0 0.27574262E+03</rscale>
<asrwt>0</asrwt>
<pdfrwt beam="1">  1        1 0.16459639E+00 0.27574262E+03</pdfrwt>
<pdfrwt beam="2">  1       -1 0.27333850E-02 0.27574262E+03</pdfrwt>
<totfact> 0.61409339E+03</totfact>
</mgrwt>
</event>
<event>
 5    1  0.1107336E+001  0.2749436E+03  0.7818608E-02  0.1098483E+00
         -2   -1    0    0    0  501 -0.00000000000E+00  0.00000000000E+00  0.16908717098E+02  0.16908717098E+02  0.00000000000E+00 0.  1.
          2   -1    0    0  501    0  0.00000000000E+00 -0.00000000000E+00 -0.11176775713E+04  0.11176775713E+04  0.00000000000E+00 0.  1.
         35    2    1    2    0    0  0.00000000000E+00  0.00000000000E+00 -0.11007688542E+04  0.11345862884E+04  0.27494358592E+03 0.  0.
         25    1    3    3    0    0 -0.55869486282E+02 -0.19457316305E+02 -0.68078200949E+03  0.69380410139E+03  0.12000000000E+03 0.  0.
         25    1    3    3    0    0  0.55869486282E+02  0.19457316305E+02 -0.41998684471E+03  0.44078218701E+03  0.12000000000E+03 0.  0.
<mgrwt>
<rscale>  0 0.27494359E+03</rscale>
<asrwt>0</asrwt>
<pdfrwt beam="1">  1        2 0.17195037E+00 0.27494359E+03</pdfrwt>
<pdfrwt beam="2">  1       -2 0.26013415E-02 0.27494359E+03</pdfrwt>
<totfact> 0.11662923E+04</totfact>
</mgrwt>
</event>
<event>
 5    1  0.1107336E+001  0.2834231E+03  0.7818608E-02  0.1093834E+00
          1   -1    0    0  501    0  0.00000000000E+00  0.00000000000E+00  0.60528447334E+02  0.60528447334E+02  0.00000000000E+00 0. -1.
         -1   -1    0    0    0  501 -0.00000000000E+00 -0.00000000000E+00 -0.33178048822E+03  0.33178048822E+03  0.00000000000E+00 0. -1.
         35    2    1    2    0    0  0.00000000000E+00  0.00000000000E+00 -0.27125204089E+03  0.39230893555E+03  0.28342306051E+03 0.  0.
         25    1    3    3    0    0  0.18775964229E+02  0.56995754753E+02 -0.72480869732E+02  0.15249435848E+03  0.12000000000E+03 0.  0.
         25    1    3    3    0    0 -0.18775964229E+02 -0.56995754753E+02 -0.19877117115E+03  0.23981457707E+03  0.12000000000E+03 0.  0.
<mgrwt>
<rscale>  0 0.28342306E+03</rscale>
<asrwt>0</asrwt>
<pdfrwt beam="1">  1        1 0.93120687E-02 0.28342306E+03</pdfrwt>
<pdfrwt beam="2">  1       -1 0.51043153E-01 0.28342306E+03</pdfrwt>
<totfact> 0.27872604E+03</totfact>
</mgrwt>
</event>
<event>
 5    1  0.1107336E+001  0.2768206E+03  0.7818608E-02  0.1097438E+00
         -2   -1    0    0    0  501 -0.00000000000E+00  0.00000000000E+00  0.12895625078E+03  0.12895625078E+03  0.00000000000E+00 0. -1.
          2   -1    0    0  501    0  0.00000000000E+00 -0.00000000000E+00 -0.14855743906E+03  0.14855743906E+03  0.00000000000E+00 0. -1.
         35    2    1    2    0    0  0.00000000000E+00  0.00000000000E+00 -0.19601188279E+02  0.27751368984E+03  0.27682059437E+03 0.  0.
         25    1    3    3    0    0 -0.31988740904E+02  0.60482580072E+02 -0.10616399212E+01  0.13813960010E+03  0.12000000000E+03 0.  0.
         25    1    3    3    0    0  0.31988740904E+02 -0.60482580072E+02 -0.18539548358E+02  0.13937408974E+03  0.12000000000E+03 0.  0.
<mgrwt>
<rscale>  0 0.27682059E+03</rscale>
<asrwt>0</asrwt>
<pdfrwt beam="1">  1        2 0.22854991E-01 0.27682059E+03</pdfrwt>
<pdfrwt beam="2">  1       -2 0.19839423E-01 0.27682059E+03</pdfrwt>
<totfact> 0.50437012E+03</totfact>
</mgrwt>
</event>
<event>
 5    1  0.1107336E+001  0.2687289E+03  0.7818608E-02  0.1102009E+00
         -1   -1    0    0    0  501 -0.00000000000E+00  0.00000000000E+00  0.80981085865E+02  0.80981085865E+02  0.00000000000E+00 0. -1.
          1   -1    0    0  501    0  0.00000000000E+00 -0.00000000000E+00 -0.22293853457E+03  0.22293853457E+03  0.00000000000E+00 0. -1.
         35    2    1    2    0    0  0.00000000000E+00  0.00000000000E+00 -0.14195744871E+03  0.30391962044E+03  0.26872889395E+03 0.  0.
         25    1    3    3    0    0 -0.44154359374E+02  0.41245200279E+02 -0.69009887995E+02  0.15104018882E+03  0.12000000000E+03 0.  0.
         25    1    3    3    0    0  0.44154359374E+02 -0.41245200279E+02 -0.72947560714E+02  0.15287943162E+03  0.12000000000E+03 0.  0.
<mgrwt>
<rscale>  0 0.26872889E+03</rscale>
<asrwt>0</asrwt>
<pdfrwt beam="1">  1        1 0.34298236E-01 0.26872889E+03</pdfrwt>
<pdfrwt beam="2">  1       -1 0.12458629E-01 0.26872889E+03</pdfrwt>
<totfact> 0.54696396E+03</totfact>
</mgrwt>
</event>
<event>
 5    1  0.1107336E+001  0.2747459E+03  0.7818608E-02  0.1098594E+00
          2   -1    0    0  501    0  0.00000000000E+00  0.00000000000E+00  0.83683891139E+03  0.83683891139E+03  0.00000000000E+00 0. -1.
         -2   -1    0    0    0  501 -0.00000000000E+00 -0.00000000000E+00 -0.22550721720E+02  0.22550721720E+02  0.00000000000E+00 0. -1.
         35    2    1    2    0    0  0.00000000000E+00  0.00000000000E+00  0.81428818967E+03  0.85938963311E+03  0.27474585649E+03 0.  0.
         25    1    3    3    0    0 -0.36843828176E+02  0.67587546713E+01  0.23388386778E+03  0.26552742240E+03  0.12000000000E+03 0.  0.
         25    1    3    3    0    0  0.36843828176E+02 -0.67587546713E+01  0.58040432189E+03  0.59386221070E+03  0.12000000000E+03 0.  0.
<mgrwt>
<rscale>  0 0.27474586E+03</rscale>
<asrwt>0</asrwt>
<pdfrwt beam="1">  1        2 0.12874442E+00 0.27474586E+03</pdfrwt>
<pdfrwt beam="2">  1       -2 0.34693424E-02 0.27474586E+03</pdfrwt>
<totfact> 0.11361177E+04</totfact>
</mgrwt>
</event>
<event>
 5    1  0.1107336E+001  0.2745450E+03  0.7818608E-02  0.1098706E+00
          2   -1    0    0  501    0  0.00000000000E+00  0.00000000000E+00  0.26513101350E+03  0.26513101350E+03  0.00000000000E+00 0.  1.
         -2   -1    0    0    0  501 -0.00000000000E+00 -0.00000000000E+00 -0.71073332684E+02  0.71073332684E+02  0.00000000000E+00 0.  1.
         35    2    1    2    0    0  0.00000000000E+00  0.00000000000E+00  0.19405768082E+03  0.33620434619E+03  0.27454503986E+03 0.  0.
         25    1    3    3    0    0 -0.25076134051E+02 -0.56130036005E+02  0.12859259163E+03  0.18632082026E+03  0.12000000000E+03 0.  0.
         25    1    3    3    0    0  0.25076134051E+02  0.56130036005E+02  0.65465089185E+02  0.14988352592E+03  0.12000000000E+03 0.  0.
<mgrwt>
<rscale>  0 0.27454504E+03</rscale>
<asrwt>0</asrwt>
<pdfrwt beam="1">  1        2 0.40789386E-01 0.27454504E+03</pdfrwt>
<pdfrwt beam="2">  1       -2 0.10934359E-01 0.27454504E+03</pdfrwt>
<totfact> 0.71346643E+03</totfact>
</mgrwt>
</event>
<event>
 5    1  0.1107336E+001  0.2748660E+03  0.7818608E-02  0.1098527E+00
          1   -1    0    0  501    0  0.00000000000E+00  0.00000000000E+00  0.13210585363E+04  0.13210585363E+04  0.00000000000E+00 0. -1.
         -1   -1    0    0    0  501 -0.00000000000E+00 -0.00000000000E+00 -0.14297497340E+02  0.14297497340E+02  0.00000000000E+00 0. -1.
         35    2    1    2    0    0  0.00000000000E+00  0.00000000000E+00  0.13067610390E+04  0.13353560336E+04  0.27486601033E+03 0.  0.
         25    1    3    3    0    0  0.23512180183E+02 -0.39033098514E+02  0.41481209637E+03  0.43421824085E+03  0.12000000000E+03 0.  0.
         25    1    3    3    0    0 -0.23512180183E+02  0.39033098514E+02  0.89194894259E+03  0.90113779279E+03  0.12000000000E+03 0.  0.
<mgrwt>
<rscale>  0 0.27486601E+03</rscale>
<asrwt>0</asrwt>
<pdfrwt beam="1">  1        1 0.20323968E+00 0.27486601E+03</pdfrwt>
<pdfrwt beam="2">  1       -1 0.21996160E-02 0.27486601E+03</pdfrwt>
<totfact> 0.56293946E+03</totfact>
</mgrwt>
</event>
<event>
 5    1  0.1107336E+001  0.2751662E+03  0.7818608E-02  0.1098359E+00
          1   -1    0    0  501    0  0.00000000000E+00  0.00000000000E+00  0.14530222582E+03  0.14530222582E+03  0.00000000000E+00 0. -1.
         -1   -1    0    0    0  501 -0.00000000000E+00 -0.00000000000E+00 -0.13027402435E+03  0.13027402435E+03  0.00000000000E+00 0. -1.
         35    2    1    2    0    0  0.00000000000E+00  0.00000000000E+00  0.15028201467E+02  0.27557625017E+03  0.27516617310E+03 0.  0.
         25    1    3    3    0    0 -0.20305347790E+02 -0.46326836358E+02  0.51971954476E+02  0.14021257778E+03  0.12000000000E+03 0.  0.
         25    1    3    3    0    0  0.20305347790E+02  0.46326836358E+02 -0.36943753009E+02  0.13536367239E+03  0.12000000000E+03 0.  0.
<mgrwt>
<rscale>  0 0.27516617E+03</rscale>
<asrwt>0</asrwt>
<pdfrwt beam="1">  1        1 0.22354189E-01 0.27516617E+03</pdfrwt>
<pdfrwt beam="2">  1       -1 0.20042158E-01 0.27516617E+03</pdfrwt>
<totfact> 0.44131250E+03</totfact>
</mgrwt>
</event>
<event>
 5    1  0.1107336E+001  0.2787761E+03  0.7818608E-02  0.1096359E+00
          2   -1    0    0  501    0  0.00000000000E+00  0.00000000000E+00  0.15318949430E+04  0.15318949430E+04  0.00000000000E+00 0. -1.
         -2   -1    0    0    0  501 -0.00000000000E+00 -0.00000000000E+00 -0.12683004147E+02  0.12683004147E+02  0.00000000000E+00 0. -1.
         35    2    1    2    0    0  0.00000000000E+00  0.00000000000E+00  0.15192119388E+04  0.15445779471E+04  0.27877611027E+03 0.  0.
         25    1    3    3    0    0 -0.64343972981E+02  0.79537979076E+01  0.91880646621E+03  0.92887498195E+03  0.12000000000E+03 0.  0.
         25    1    3    3    0    0  0.64343972981E+02 -0.79537979076E+01  0.60040547262E+03  0.61570296516E+03  0.12000000000E+03 0.  0.
<mgrwt>
<rscale>  0 0.27877611E+03</rscale>
<asrwt>0</asrwt>
<pdfrwt beam="1">  1        2 0.23567600E+00 0.27877611E+03</pdfrwt>
<pdfrwt beam="2">  1       -2 0.19512326E-02 0.27877611E+03</pdfrwt>
<totfact> 0.10520250E+04</totfact>
</mgrwt>
</event>
<event>
 5    1  0.1107336E+001  0.2744663E+03  0.7818608E-02  0.1098750E+00
          2   -1    0    0  501    0  0.00000000000E+00  0.00000000000E+00  0.11254133815E+03  0.11254133815E+03  0.00000000000E+00 0. -1.
         -2   -1    0    0    0  501 -0.00000000000E+00 -0.00000000000E+00 -0.16734239534E+03  0.16734239534E+03  0.00000000000E+00 0. -1.
         35    2    1    2    0    0  0.00000000000E+00  0.00000000000E+00 -0.54801057191E+02  0.27988373349E+03  0.27446629739E+03 0.  0.
         25    1    3    3    0    0  0.17019607214E+02  0.52366124289E+02  0.10769005797E+02  0.13246829616E+03  0.12000000000E+03 0.  0.
         25    1    3    3    0    0 -0.17019607214E+02 -0.52366124289E+02 -0.65570062988E+02  0.14741543733E+03  0.12000000000E+03 0.  0.
<mgrwt>
<rscale>  0 0.27446630E+03</rscale>
<asrwt>0</asrwt>
<pdfrwt beam="1">  1        2 0.17314052E-01 0.27446630E+03</pdfrwt>
<pdfrwt beam="2">  1       -2 0.25744984E-01 0.27446630E+03</pdfrwt>
<totfact> 0.44053281E+03</totfact>
</mgrwt>
</event>
<event>
 5    1  0.1107336E+001  0.2756836E+03  0.7818608E-02  0.1098070E+00
         -2   -1    0    0    0  501 -0.00000000000E+00  0.00000000000E+00  0.10371968654E+02  0.10371968654E+02  0.00000000000E+00 0. -1.
          2   -1    0    0  501    0  0.00000000000E+00 -0.00000000000E+00 -0.18318958629E+04  0.18318958629E+04  0.00000000000E+00 0. -1.
         35    2    1    2    0    0  0.00000000000E+00  0.00000000000E+00 -0.18215238942E+04  0.18422678315E+04  0.27568363366E+03 0.  0.
         25    1    3    3    0    0 -0.11030138272E+02  0.65396444996E+02 -0.81578339810E+03  0.82722482530E+03  0.12000000000E+03 0.  0.
         25    1    3    3    0    0  0.11030138272E+02 -0.65396444996E+02 -0.10057404961E+04  0.10150430062E+04  0.12000000000E+03 0.  0.
<mgrwt>
<rscale>  0 0.27568363E+03</rscale>
<asrwt>0</asrwt>
<pdfrwt beam="1">  1        2 0.28183037E+00 0.27568363E+03</pdfrwt>
<pdfrwt beam="2">  1       -2 0.15956861E-02 0.27568363E+03</pdfrwt>
<totfact> 0.98124801E+03</totfact>
</mgrwt>
</event>
<event>
 5    1  0.1107336E+001  0.2737592E+03  0.7818608E-02  0.1099147E+00
          1   -1    0    0  501    0  0.00000000000E+00  0.00000000000E+00  0.64074665668E+03  0.64074665668E+03  0.00000000000E+00 0. -1.
         -1   -1    0    0    0  501 -0.00000000000E+00 -0.00000000000E+00 -0.29240920109E+02  0.29240920109E+02  0.00000000000E+00 0. -1.
         35    2    1    2    0    0  0.00000000000E+00  0.00000000000E+00  0.61150573657E+03  0.66998757679E+03  0.27375917737E+03 0.  0.
         25    1    3    3    0    0 -0.46054431514E+02  0.46672145238E+02  0.29092218383E+03  0.32145764394E+03  0.12000000000E+03 0.  0.
         25    1    3    3    0    0  0.46054431514E+02 -0.46672145238E+02  0.32058355274E+03  0.34852993285E+03  0.12000000000E+03 0.  0.
<mgrwt>
<rscale>  0 0.27375918E+03</rscale>
<asrwt>0</asrwt>
<pdfrwt beam="1">  1        1 0.98576399E-01 0.27375918E+03</pdfrwt>
<pdfrwt beam="2">  1       -1 0.44986036E-02 0.27375918E+03</pdfrwt>
<totfact> 0.65879326E+03</totfact>
</mgrwt>
</event>
<event>
 5    1  0.1107336E+001  0.2756350E+03  0.7818608E-02  0.1098097E+00
         -1   -1    0    0    0  501 -0.00000000000E+00  0.00000000000E+00  0.66816940003E+02  0.66816940003E+02  0.00000000000E+00 0. -1.
          1   -1    0    0  501    0  0.00000000000E+00 -0.00000000000E+00 -0.28426418303E+03  0.28426418303E+03  0.00000000000E+00 0. -1.
         35    2    1    2    0    0  0.00000000000E+00  0.00000000000E+00 -0.21744724303E+03  0.35108112303E+03  0.27563499678E+03 0.  0.
         25    1    3    3    0    0 -0.24368103415E+02  0.55152807986E+02 -0.69299519768E+02  0.15112266585E+03  0.12000000000E+03 0.  0.
         25    1    3    3    0    0  0.24368103415E+02 -0.55152807986E+02 -0.14814772326E+03  0.19995845719E+03  0.12000000000E+03 0.  0.
<mgrwt>
<rscale>  0 0.27563500E+03</rscale>
<asrwt>0</asrwt>
<pdfrwt beam="1">  1        1 0.43732952E-01 0.27563500E+03</pdfrwt>
<pdfrwt beam="2">  1       -1 0.10279529E-01 0.27563500E+03</pdfrwt>
<totfact> 0.54425774E+03</totfact>
</mgrwt>
</event>
<event>
 5    1  0.1107336E+001  0.2756459E+03  0.7818608E-02  0.1098091E+00
         -2   -1    0    0    0  501 -0.00000000000E+00  0.00000000000E+00  0.96285839758E+01  0.96285839758E+01  0.00000000000E+00 0. -1.
          2   -1    0    0  501    0  0.00000000000E+00 -0.00000000000E+00 -0.19727887893E+04  0.19727887893E+04  0.00000000000E+00 0. -1.
         35    2    1    2    0    0  0.00000000000E+00  0.00000000000E+00 -0.19631602053E+04  0.19824173733E+04  0.27564587807E+03 0.  0.
         25    1    3    3    0    0  0.33754193867E+02  0.17404608462E+02 -0.57775022125E+03  0.59130160168E+03  0.12000000000E+03 0.  0.
         25    1    3    3    0    0 -0.33754193867E+02 -0.17404608462E+02 -0.13854099841E+04  0.13911157716E+04  0.12000000000E+03 0.  0.
<mgrwt>
<rscale>  0 0.27564588E+03</rscale>
<asrwt>0</asrwt>
<pdfrwt beam="1">  1        2 0.30350597E+00 0.27564588E+03</pdfrwt>
<pdfrwt beam="2">  1       -2 0.14813206E-02 0.27564588E+03</pdfrwt>
<totfact> 0.92271155E+03</totfact>
</mgrwt>
</event>
<event>
 5    1  0.1107336E+001  0.2746742E+03  0.7818608E-02  0.1098634E+00
          2   -1    0    0  501    0  0.00000000000E+00  0.00000000000E+00  0.42907906982E+03  0.42907906982E+03  0.00000000000E+00 0. -1.
         -2   -1    0    0    0  501 -0.00000000000E+00 -0.00000000000E+00 -0.43958062536E+02  0.43958062536E+02  0.00000000000E+00 0. -1.
         35    2    1    2    0    0  0.00000000000E+00  0.00000000000E+00  0.38512100729E+03  0.47303713236E+03  0.27467424040E+03 0.  0.
         25    1    3    3    0    0 -0.63356229585E+02  0.17845803190E+02  0.21212065749E+03  0.25244337554E+03  0.12000000000E+03 0.  0.
         25    1    3    3    0    0  0.63356229585E+02 -0.17845803190E+02  0.17300034979E+03  0.22059375682E+03  0.12000000000E+03 0.  0.
<mgrwt>
<rscale>  0 0.27467424E+03</rscale>
<asrwt>0</asrwt>
<pdfrwt beam="1">  1        2 0.66012162E-01 0.27467424E+03</pdfrwt>
<pdfrwt beam="2">  1       -2 0.67627792E-02 0.27467424E+03</pdfrwt>
<totfact> 0.90253082E+03</totfact>
</mgrwt>
</event>
<event>
 5    1  0.1107336E+001  0.2741935E+03  0.7818608E-02  0.1098903E+00
          1   -1    0    0  501    0  0.00000000000E+00  0.00000000000E+00  0.40550031067E+03  0.40550031067E+03  0.00000000000E+00 0.  1.
         -1   -1    0    0    0  501 -0.00000000000E+00 -0.00000000000E+00 -0.46351412589E+02  0.46351412589E+02  0.00000000000E+00 0.  1.
         35    2    1    2    0    0  0.00000000000E+00  0.00000000000E+00  0.35914889808E+03  0.45185172326E+03  0.27419345145E+03 0.  0.
         25    1    3    3    0    0  0.53231784106E+02  0.32089104591E+02  0.21759055435E+03  0.25614250490E+03  0.12000000000E+03 0.  0.
         25    1    3    3    0    0 -0.53231784106E+02 -0.32089104591E+02  0.14155834373E+03  0.19570921837E+03  0.12000000000E+03 0.  0.
<mgrwt>
<rscale>  0 0.27419345E+03</rscale>
<asrwt>0</asrwt>
<pdfrwt beam="1">  1        1 0.62384661E-01 0.27419345E+03</pdfrwt>
<pdfrwt beam="2">  1       -1 0.71309868E-02 0.27419345E+03</pdfrwt>
<totfact> 0.60777876E+03</totfact>
</mgrwt>
</event>
<event>
 5    1  0.1107336E+001  0.2772354E+03  0.7818608E-02  0.1097209E+00
          2   -1    0    0  501    0  0.00000000000E+00  0.00000000000E+00  0.11936799707E+04  0.11936799707E+04  0.00000000000E+00 0.  1.
         -2   -1    0    0    0  501 -0.00000000000E+00 -0.00000000000E+00 -0.16097167226E+02  0.16097167226E+02  0.00000000000E+00 0.  1.
         35    2    1    2    0    0  0.00000000000E+00  0.00000000000E+00  0.11775828034E+04  0.12097771379E+04  0.27723539530E+03 0.  0.
         25    1    3    3    0    0  0.29472054643E+02 -0.62467342288E+02  0.61776834527E+03  0.63309438417E+03  0.12000000000E+03 0.  0.
         25    1    3    3    0    0 -0.29472054643E+02  0.62467342288E+02  0.55981445817E+03  0.57668275371E+03  0.12000000000E+03 0.  0.
<mgrwt>
<rscale>  0 0.27723540E+03</rscale>
<asrwt>0</asrwt>
<pdfrwt beam="1">  1        2 0.18364300E+00 0.27723540E+03</pdfrwt>
<pdfrwt beam="2">  1       -2 0.24764882E-02 0.27723540E+03</pdfrwt>
<totfact> 0.11343277E+04</totfact>
</mgrwt>
</event>
<event>
 5    1  0.1107336E+001  0.2740385E+03  0.7818608E-02  0.1098990E+00
         -1   -1    0    0    0  501 -0.00000000000E+00  0.00000000000E+00  0.12031792036E+02  0.12031792036E+02  0.00000000000E+00 0.  1.
          1   -1    0    0  501    0  0.00000000000E+00 -0.00000000000E+00 -0.15603893265E+04  0.15603893265E+04  0.00000000000E+00 0.  1.
         35    2    1    2    0    0  0.00000000000E+00  0.00000000000E+00 -0.15483575345E+04  0.15724211186E+04  0.27403853650E+03 0.  0.
         25    1    3    3    0    0 -0.25415462009E+02  0.93172528009E+01 -0.42792161333E+03  0.44525235998E+03  0.12000000000E+03 0.  0.
         25    1    3    3    0    0  0.25415462009E+02 -0.93172528009E+01 -0.11204359212E+04  0.11271687586E+04  0.12000000000E+03 0.  0.
<mgrwt>
<rscale>  0 0.27403854E+03</rscale>
<asrwt>0</asrwt>
<pdfrwt beam="1">  1        1 0.24005996E+00 0.27403854E+03</pdfrwt>
<pdfrwt beam="2">  1       -1 0.18510445E-02 0.27403854E+03</pdfrwt>
<totfact> 0.50124360E+03</totfact>
</mgrwt>
</event>
<event>
 5    1  0.1107336E+001  0.2754334E+03  0.7818608E-02  0.1098210E+00
         -1   -1    0    0    0  501 -0.00000000000E+00  0.00000000000E+00  0.28920528321E+02  0.28920528321E+02  0.00000000000E+00 0.  1.
          1   -1    0    0  501    0  0.00000000000E+00 -0.00000000000E+00 -0.65579347194E+03  0.65579347194E+03  0.00000000000E+00 0.  1.
         35    2    1    2    0    0  0.00000000000E+00  0.00000000000E+00 -0.62687294362E+03  0.68471400027E+03  0.27543343064E+03 0.  0.
         25    1    3    3    0    0  0.97302613447E+01  0.61364444170E+02 -0.24740085969E+03  0.28189973106E+03  0.12000000000E+03 0.  0.
         25    1    3    3    0    0 -0.97302613447E+01 -0.61364444170E+02 -0.37947208393E+03  0.40281426921E+03  0.12000000000E+03 0.  0.
<mgrwt>
<rscale>  0 0.27543343E+03</rscale>
<asrwt>0</asrwt>
<pdfrwt beam="1">  1        1 0.10089129E+00 0.27543343E+03</pdfrwt>
<pdfrwt beam="2">  1       -1 0.44493126E-02 0.27543343E+03</pdfrwt>
<totfact> 0.64808674E+03</totfact>
</mgrwt>
</event>
<event>
 5    1  0.1107336E+001  0.2747712E+03  0.7818608E-02  0.1098580E+00
         -2   -1    0    0    0  501 -0.00000000000E+00  0.00000000000E+00  0.21266815778E+02  0.21266815778E+02  0.00000000000E+00 0.  1.
          2   -1    0    0  501    0  0.00000000000E+00 -0.00000000000E+00 -0.88752370501E+03  0.88752370501E+03  0.00000000000E+00 0.  1.
         35    2    1    2    0    0  0.00000000000E+00  0.00000000000E+00 -0.86625688923E+03  0.90879052078E+03  0.27477120033E+03 0.  0.
         25    1    3    3    0    0  0.32936159732E+02  0.24321729096E+01 -0.62553239393E+03  0.63779423166E+03  0.12000000000E+03 0.  0.
         25    1    3    3    0    0 -0.32936159732E+02 -0.24321729096E+01 -0.24072449530E+03  0.27099628913E+03  0.12000000000E+03 0.  0.
<mgrwt>
<rscale>  0 0.27477120E+03</rscale>
<asrwt>0</asrwt>
<pdfrwt beam="1">  1        2 0.13654215E+00 0.27477120E+03</pdfrwt>
<pdfrwt beam="2">  1       -2 0.32718168E-02 0.27477120E+03</pdfrwt>
<totfact> 0.11479824E+04</totfact>
</mgrwt>
</event>
<event>
 5    1  0.1107336E+001  0.2736796E+03  0.7818608E-02  0.1099192E+00
          1   -1    0    0  501    0  0.00000000000E+00  0.00000000000E+00  0.20677367285E+03  0.20677367285E+03  0.00000000000E+00 0. -1.
         -1   -1    0    0    0  501 -0.00000000000E+00 -0.00000000000E+00 -0.90558555234E+02  0.90558555234E+02  0.00000000000E+00 0. -1.
         35    2    1    2    0    0  0.00000000000E+00  0.00000000000E+00  0.11621511762E+03  0.29733222809E+03  0.27367955769E+03 0.  0.
         25    1    3    3    0    0  0.60937861928E+02  0.13693886819E+02  0.80483147737E+02  0.15741182491E+03  0.12000000000E+03 0.  0.
         25    1    3    3    0    0 -0.60937861928E+02 -0.13693886819E+02  0.35731969881E+02  0.13992040317E+03  0.12000000000E+03 0.  0.
<mgrwt>
<rscale>  0 0.27367956E+03</rscale>
<asrwt>0</asrwt>
<pdfrwt beam="1">  1        1 0.31811334E-01 0.27367956E+03</pdfrwt>
<pdfrwt beam="2">  1       -1 0.13932085E-01 0.27367956E+03</pdfrwt>
<totfact> 0.50471629E+03</totfact>
</mgrwt>
</event>
<event>
 5    1  0.1107336E+001  0.2752736E+03  0.7818608E-02  0.1098299E+00
         -1   -1    0    0    0  501 -0.00000000000E+00  0.00000000000E+00  0.13987426644E+03  0.13987426644E+03  0.00000000000E+00 0. -1.
          1   -1    0    0  501    0  0.00000000000E+00 -0.00000000000E+00 -0.13543509309E+03  0.13543509309E+03  0.00000000000E+00 0. -1.
         35    2    1    2    0    0  0.00000000000E+00  0.00000000000E+00  0.44391733492E+01  0.27530935953E+03  0.27527356790E+03 0.  0.
         25    1    3    3    0    0 -0.51419454050E+02 -0.31412170259E+02  0.32442708425E+02  0.13814200674E+03  0.12000000000E+03 0.  0.
         25    1    3    3    0    0  0.51419454050E+02  0.31412170259E+02 -0.28003535076E+02  0.13716735279E+03  0.12000000000E+03 0.  0.
<mgrwt>
<rscale>  0 0.27527357E+03</rscale>
<asrwt>0</asrwt>
<pdfrwt beam="1">  1        1 0.20836168E-01 0.27527357E+03</pdfrwt>
<pdfrwt beam="2">  1       -1 0.21519118E-01 0.27527357E+03</pdfrwt>
<totfact> 0.43007735E+03</totfact>
</mgrwt>
</event>
<event>
 5    1  0.1107336E+001  0.2751480E+03  0.7818608E-02  0.1098369E+00
          2   -1    0    0  501    0  0.00000000000E+00  0.00000000000E+00  0.41172046438E+03  0.41172046438E+03  0.00000000000E+00 0. -1.
         -2   -1    0    0    0  501 -0.00000000000E+00 -0.00000000000E+00 -0.45969538486E+02  0.45969538486E+02  0.00000000000E+00 0. -1.
         35    2    1    2    0    0  0.00000000000E+00  0.00000000000E+00  0.36575092589E+03  0.45769000286E+03  0.27514795825E+03 0.  0.
         25    1    3    3    0    0 -0.46945845215E+02  0.32345534808E+02  0.24230572837E+03  0.27633713469E+03  0.12000000000E+03 0.  0.
         25    1    3    3    0    0  0.46945845215E+02 -0.32345534808E+02  0.12344519752E+03  0.18135286817E+03  0.12000000000E+03 0.  0.
<mgrwt>
<rscale>  0 0.27514796E+03</rscale>
<asrwt>0</asrwt>
<pdfrwt beam="1">  1        2 0.63341608E-01 0.27514796E+03</pdfrwt>
<pdfrwt beam="2">  1       -2 0.70722369E-02 0.27514796E+03</pdfrwt>
<totfact> 0.88107236E+03</totfact>
</mgrwt>
</event>
<event>
 5    1  0.1107336E+001  0.2750474E+03  0.7818608E-02  0.1098425E+00
          2   -1    0    0  501    0  0.00000000000E+00  0.00000000000E+00  0.17470589146E+04  0.17470589146E+04  0.00000000000E+00 0.  1.
         -2   -1    0    0    0  501 -0.00000000000E+00 -0.00000000000E+00 -0.10825487772E+02  0.10825487772E+02  0.00000000000E+00 0.  1.
         35    2    1    2    0    0  0.00000000000E+00  0.00000000000E+00  0.17362334268E+04  0.17578844024E+04  0.27504737713E+03 0.  0.
         25    1    3    3    0    0  0.61521603900E+02 -0.26122844908E+02  0.82502740274E+03  0.83638359982E+03  0.12000000000E+03 0.  0.
         25    1    3    3    0    0 -0.61521603900E+02  0.26122844908E+02  0.91120602407E+03  0.92150080254E+03  0.12000000000E+03 0.  0.
<mgrwt>
<rscale>  0 0.27504738E+03</rscale>
<asrwt>0</asrwt>
<pdfrwt beam="1">  1        2 0.26877807E+00 0.27504738E+03</pdfrwt>
<pdfrwt beam="2">  1       -2 0.16654610E-02 0.27504738E+03</pdfrwt>
<totfact> 0.10211565E+04</totfact>
</mgrwt>
</event>
<event>
 5    1  0.1107336E+001  0.2787378E+03  0.7818608E-02  0.1096380E+00
          1   -1    0    0  501    0  0.00000000000E+00  0.00000000000E+00  0.19139320332E+03  0.19139320332E+03  0.00000000000E+00 0.  1.
         -1   -1    0    0    0  501 -0.00000000000E+00 -0.00000000000E+00 -0.10148575662E+03  0.10148575662E+03  0.00000000000E+00 0.  1.
         35    2    1    2    0    0  0.00000000000E+00  0.00000000000E+00  0.89907446695E+02  0.29287895994E+03  0.27873775525E+03 0.  0.
         25    1    3    3    0    0 -0.46133193892E+01 -0.56379130790E+02  0.81211655217E-01  0.13266459852E+03  0.12000000000E+03 0.  0.
         25    1    3    3    0    0  0.46133193892E+01  0.56379130790E+02  0.89826235040E+02  0.16021436142E+03  0.12000000000E+03 0.  0.
<mgrwt>
<rscale>  0 0.27873776E+03</rscale>
<asrwt>0</asrwt>
<pdfrwt beam="1">  1        1 0.29445108E-01 0.27873776E+03</pdfrwt>
<pdfrwt beam="2">  1       -1 0.15613193E-01 0.27873776E+03</pdfrwt>
<totfact> 0.46474956E+03</totfact>
</mgrwt>
</event>
<event>
 5    1  0.1107336E+001  0.2746734E+03  0.7818608E-02  0.1098634E+00
         -2   -1    0    0    0  501 -0.00000000000E+00  0.00000000000E+00  0.55913060844E+01  0.55913060844E+01  0.00000000000E+00 0.  1.
          2   -1    0    0  501    0  0.00000000000E+00 -0.00000000000E+00 -0.33733389866E+04  0.33733389866E+04  0.00000000000E+00 0.  1.
         35    2    1    2    0    0  0.00000000000E+00  0.00000000000E+00 -0.33677476805E+04  0.33789302926E+04  0.27467341189E+03 0.  0.
         25    1    3    3    0    0  0.46157227765E+02 -0.30653670600E+02 -0.21427152863E+04  0.21467880508E+04  0.12000000000E+03 0.  0.
         25    1    3    3    0    0 -0.46157227765E+02  0.30653670600E+02 -0.12250323942E+04  0.12321422418E+04  0.12000000000E+03 0.  0.
<mgrwt>
<rscale>  0 0.27467341E+03</rscale>
<asrwt>0</asrwt>
<pdfrwt beam="1">  1        2 0.51897592E+00 0.27467341E+03</pdfrwt>
<pdfrwt beam="2">  1       -2 0.86019980E-03 0.27467341E+03</pdfrwt>
<totfact> 0.32545066E+03</totfact>
</mgrwt>
</event>
<event>
 5    1  0.1107336E+001  0.2752585E+03  0.7818608E-02  0.1098307E+00
          2   -1    0    0  501    0  0.00000000000E+00  0.00000000000E+00  0.74100096861E+03  0.74100096861E+03  0.00000000000E+00 0.  1.
         -2   -1    0    0    0  501 -0.00000000000E+00 -0.00000000000E+00 -0.25562463339E+02  0.25562463339E+02  0.00000000000E+00 0.  1.
         35    2    1    2    0    0  0.00000000000E+00  0.00000000000E+00  0.71543850527E+03  0.76656343195E+03  0.27525849738E+03 0.  0.
         25    1    3    3    0    0 -0.68794451517E+01 -0.92399017318E+01  0.54263875207E+03  0.55586825579E+03  0.12000000000E+03 0.  0.
         25    1    3    3    0    0  0.68794451517E+01  0.92399017318E+01  0.17279975320E+03  0.21069517616E+03  0.12000000000E+03 0.  0.
<mgrwt>
<rscale>  0 0.27525850E+03</rscale>
<asrwt>0</asrwt>
<pdfrwt beam="1">  1        2 0.11400013E+00 0.27525850E+03</pdfrwt>
<pdfrwt beam="2">  1       -2 0.39326872E-02 0.27525850E+03</pdfrwt>
<totfact> 0.10981768E+04</totfact>
</mgrwt>
</event>
<event>
 5    1  0.1107336E+001  0.2758175E+03  0.7818608E-02  0.1097996E+00
          1   -1    0    0  501    0  0.00000000000E+00  0.00000000000E+00  0.20513269028E+03  0.20513269028E+03  0.00000000000E+00 0. -1.
         -1   -1    0    0    0  501 -0.00000000000E+00 -0.00000000000E+00 -0.92714729163E+02  0.92714729163E+02  0.00000000000E+00 0. -1.
         35    2    1    2    0    0  0.00000000000E+00  0.00000000000E+00  0.11241796112E+03  0.29784741945E+03  0.27581748909E+03 0.  0.
         25    1    3    3    0    0 -0.43398988160E+02 -0.30327002739E+02  0.10222243359E+03  0.16629078506E+03  0.12000000000E+03 0.  0.
         25    1    3    3    0    0  0.43398988160E+02  0.30327002739E+02  0.10195527531E+02  0.13155663438E+03  0.12000000000E+03 0.  0.
<mgrwt>
<rscale>  0 0.27581749E+03</rscale>
<asrwt>0</asrwt>
<pdfrwt beam="1">  1        1 0.31558875E-01 0.27581749E+03</pdfrwt>
<pdfrwt beam="2">  1       -1 0.14263805E-01 0.27581749E+03</pdfrwt>
<totfact> 0.49133027E+03</totfact>
</mgrwt>
</event>
<event>
 5    1  0.1107336E+001  0.2748261E+03  0.7818608E-02  0.1098549E+00
          1   -1    0    0  501    0  0.00000000000E+00  0.00000000000E+00  0.99486011792E+02  0.99486011792E+02  0.00000000000E+00 0. -1.
         -1   -1    0    0    0  501 -0.00000000000E+00 -0.00000000000E+00 -0.18979900284E+03  0.18979900284E+03  0.00000000000E+00 0. -1.
         35    2    1    2    0    0  0.00000000000E+00  0.00000000000E+00 -0.90312991046E+02  0.28928501463E+03  0.27482609654E+03 0.  0.
         25    1    3    3    0    0 -0.61907817441E+02  0.12752409146E+00 -0.71987793593E+02  0.15301907250E+03  0.12000000000E+03 0.  0.
         25    1    3    3    0    0  0.61907817441E+02 -0.12752409146E+00 -0.18325197453E+02  0.13626594213E+03  0.12000000000E+03 0.  0.
<mgrwt>
<rscale>  0 0.27482610E+03</rscale>
<asrwt>0</asrwt>
<pdfrwt beam="1">  1        1 0.15305541E-01 0.27482610E+03</pdfrwt>
<pdfrwt beam="2">  1       -1 0.29199846E-01 0.27482610E+03</pdfrwt>
<totfact> 0.38613589E+03</totfact>
</mgrwt>
</event>
<event>
 5    1  0.1107336E+001  0.2788550E+03  0.7818608E-02  0.1096316E+00
         -2   -1    0    0    0  501 -0.00000000000E+00  0.00000000000E+00  0.75683383151E+01  0.75683383151E+01  0.00000000000E+00 0.  1.
          2   -1    0    0  501    0  0.00000000000E+00 -0.00000000000E+00 -0.25685985571E+04  0.25685985571E+04  0.00000000000E+00 0.  1.
         35    2    1    2    0    0  0.00000000000E+00  0.00000000000E+00 -0.25610302188E+04  0.25761668954E+04  0.27885496500E+03 0.  0.
         25    1    3    3    0    0 -0.21050652360E+02  0.61738227041E+02 -0.15394013997E+04  0.15454486106E+04  0.12000000000E+03 0.  0.
         25    1    3    3    0    0  0.21050652360E+02 -0.61738227041E+02 -0.10216288190E+04  0.10307182848E+04  0.12000000000E+03 0.  0.
<mgrwt>
<rscale>  0 0.27885496E+03</rscale>
<asrwt>0</asrwt>
<pdfrwt beam="1">  1        2 0.39516907E+00 0.27885496E+03</pdfrwt>
<pdfrwt beam="2">  1       -2 0.11643596E-02 0.27885496E+03</pdfrwt>
<totfact> 0.62804257E+03</totfact>
</mgrwt>
</event>
<event>
 5    1  0.1107336E+001  0.2740470E+03  0.7818608E-02  0.1098985E+00
         -2   -1    0    0    0  501 -0.00000000000E+00  0.00000000000E+00  0.10139335332E+03  0.10139335332E+03  0.00000000000E+00 0.  1.
          2   -1    0    0  501    0  0.00000000000E+00 -0.00000000000E+00 -0.18517426931E+03  0.18517426931E+03  0.00000000000E+00 0.  1.
         35    2    1    2    0    0  0.00000000000E+00  0.00000000000E+00 -0.83780915997E+02  0.28656762263E+03  0.27404700410E+03 0.  0.
         25    1    3    3    0    0 -0.18130017759E+02  0.11110425212E+02  0.23607517701E+02  0.12413482180E+03  0.12000000000E+03 0.  0.
         25    1    3    3    0    0  0.18130017759E+02 -0.11110425212E+02 -0.10738843370E+03  0.16243280083E+03  0.12000000000E+03 0.  0.
<mgrwt>
<rscale>  0 0.27404700E+03</rscale>
<asrwt>0</asrwt>
<pdfrwt beam="1">  1        2 0.28488349E-01 0.27404700E+03</pdfrwt>
<pdfrwt beam="2">  1       -2 0.15598978E-01 0.27404700E+03</pdfrwt>
<totfact> 0.59108700E+03</totfact>
</mgrwt>
</event>
<event>
 5    1  0.1107336E+001  0.2745385E+03  0.7818608E-02  0.1098710E+00
          2   -1    0    0  501    0  0.00000000000E+00  0.00000000000E+00  0.65477879926E+03  0.65477879926E+03  0.00000000000E+00 0.  1.
         -2   -1    0    0    0  501 -0.00000000000E+00 -0.00000000000E+00 -0.28777423103E+02  0.28777423103E+02  0.00000000000E+00 0.  1.
         35    2    1    2    0    0  0.00000000000E+00  0.00000000000E+00  0.62600137616E+03  0.68355622237E+03  0.27453849672E+03 0.  0.
         25    1    3    3    0    0 -0.59051823429E+02 -0.29033261938E+02  0.33944440212E+03  0.36599528724E+03  0.12000000000E+03 0.  0.
         25    1    3    3    0    0  0.59051823429E+02  0.29033261938E+02  0.28655697404E+03  0.31756093513E+03  0.12000000000E+03 0.  0.
<mgrwt>
<rscale>  0 0.27453850E+03</rscale>
<asrwt>0</asrwt>
<pdfrwt beam="1">  1        2 0.10073519E+00 0.27453850E+03</pdfrwt>
<pdfrwt beam="2">  1       -2 0.44272964E-02 0.27453850E+03</pdfrwt>
<totfact> 0.10671257E+04</totfact>
</mgrwt>
</event>
<event>
 5    1  0.1107336E+001  0.2749110E+03  0.7818608E-02  0.1098501E+00
          1   -1    0    0  501    0  0.00000000000E+00  0.00000000000E+00  0.17540840897E+03  0.17540840897E+03  0.00000000000E+00 0. -1.
         -1   -1    0    0    0  501 -0.00000000000E+00 -0.00000000000E+00 -0.10771441155E+03  0.10771441155E+03  0.00000000000E+00 0. -1.
         35    2    1    2    0    0  0.00000000000E+00  0.00000000000E+00  0.67693997421E+02  0.28312282053E+03  0.27491099326E+03 0.  0.
         25    1    3    3    0    0  0.31170081041E+02  0.19582579454E+02  0.91546998432E+02  0.15535734386E+03  0.12000000000E+03 0.  0.
         25    1    3    3    0    0 -0.31170081041E+02 -0.19582579454E+02 -0.23853001010E+02  0.12776547666E+03  0.12000000000E+03 0.  0.
<mgrwt>
<rscale>  0 0.27491099E+03</rscale>
<asrwt>0</asrwt>
<pdfrwt beam="1">  1        1 0.26985909E-01 0.27491099E+03</pdfrwt>
<pdfrwt beam="2">  1       -1 0.16571448E-01 0.27491099E+03</pdfrwt>
<totfact> 0.47171275E+03</totfact>
</mgrwt>
</event>
<event>
 5    1  0.1107336E+001  0.2750622E+03  0.7818608E-02  0.1098417E+00
         -2   -1    0    0    0  501 -0.00000000000E+00  0.00000000000E+00  0.27805298693E+02  0.27805298693E+02  0.00000000000E+00 0.  1.
          2   -1    0    0  501    0  0.00000000000E+00 -0.00000000000E+00 -0.68025876933E+03  0.68025876933E+03  0.00000000000E+00 0.  1.
         35    2    1    2    0    0  0.00000000000E+00  0.00000000000E+00 -0.65245347063E+03  0.70806406802E+03  0.27506216221E+03 0.  0.
         25    1    3    3    0    0 -0.46792012447E+02 -0.15040684195E+02 -0.20828796990E+03  0.24535605355E+03  0.12000000000E+03 0.  0.
         25    1    3    3    0    0  0.46792012447E+02  0.15040684195E+02 -0.44416550073E+03  0.46270801446E+03  0.12000000000E+03 0.  0.
<mgrwt>
<rscale>  0 0.27506216E+03</rscale>
<asrwt>0</asrwt>
<pdfrwt beam="1">  1        2 0.10465518E+00 0.27506216E+03</pdfrwt>
<pdfrwt beam="2">  1       -2 0.42777388E-02 0.27506216E+03</pdfrwt>
<totfact> 0.10738754E+04</totfact>
</mgrwt>
</event>
<event>
 5    1  0.1107336E+001  0.2743648E+03  0.7818608E-02  0.1098807E+00
          1   -1    0    0  501    0  0.00000000000E+00  0.00000000000E+00  0.12610423019E+03  0.12610423019E+03  0.00000000000E+00 0.  1.
         -1   -1    0    0    0  501 -0.00000000000E+00 -0.00000000000E+00 -0.14923373477E+03  0.14923373477E+03  0.00000000000E+00 0.  1.
         35    2    1    2    0    0  0.00000000000E+00  0.00000000000E+00 -0.23129504576E+02  0.27533796496E+03  0.27436475898E+03 0.  0.
         25    1    3    3    0    0  0.17824944417E+02 -0.40409509005E+02 -0.61423455789E+02  0.14185731558E+03  0.12000000000E+03 0.  0.
         25    1    3    3    0    0 -0.17824944417E+02  0.40409509005E+02  0.38293951213E+02  0.13348064939E+03  0.12000000000E+03 0.  0.
<mgrwt>
<rscale>  0 0.27436476E+03</rscale>
<asrwt>0</asrwt>
<pdfrwt beam="1">  1        1 0.19400651E-01 0.27436476E+03</pdfrwt>
<pdfrwt beam="2">  1       -1 0.22959036E-01 0.27436476E+03</pdfrwt>
<totfact> 0.42386957E+03</totfact>
</mgrwt>
</event>
<event>
 5    1  0.1107336E+001  0.2752097E+03  0.7818608E-02  0.1098334E+00
          4   -1    0    0  501    0  0.00000000000E+00  0.00000000000E+00  0.33445856284E+02  0.33445856284E+02  0.00000000000E+00 0.  1.
         -4   -1    0    0    0  501 -0.00000000000E+00 -0.00000000000E+00 -0.56614189569E+03  0.56614189569E+03  0.00000000000E+00 0.  1.
         35    2    1    2    0    0  0.00000000000E+00  0.00000000000E+00 -0.53269603940E+03  0.59958775197E+03  0.27520974168E+03 0.  0.
         25    1    3    3    0    0  0.46878604354E+02  0.23901961468E+01 -0.37155222481E+03  0.39326120117E+03  0.12000000000E+03 0.  0.
         25    1    3    3    0    0 -0.46878604354E+02 -0.23901961468E+01 -0.16114381459E+03  0.20632655080E+03  0.12000000000E+03 0.  0.
<mgrwt>
<rscale>  0 0.27520974E+03</rscale>
<asrwt>0</asrwt>
<pdfrwt beam="1">  1        4 0.51455170E-02 0.27520974E+03</pdfrwt>
<pdfrwt beam="2">  1       -4 0.87098742E-01 0.27520974E+03</pdfrwt>
<totfact> 0.50102855E+02</totfact>
</mgrwt>
</event>
<event>
 5    1  0.1107336E+001  0.2754199E+03  0.7818608E-02  0.1098217E+00
          2   -1    0    0  501    0  0.00000000000E+00  0.00000000000E+00  0.89805673886E+03  0.89805673886E+03  0.00000000000E+00 0.  1.
         -2   -1    0    0    0  501 -0.00000000000E+00 -0.00000000000E+00 -0.21116735032E+02  0.21116735032E+02  0.00000000000E+00 0.  1.
         35    2    1    2    0    0  0.00000000000E+00  0.00000000000E+00  0.87694000383E+03  0.91917347389E+03  0.27541987000E+03 0.  0.
         25    1    3    3    0    0 -0.36274916967E+02  0.50653607819E+02  0.52564897211E+03  0.54276007541E+03  0.12000000000E+03 0.  0.
         25    1    3    3    0    0  0.36274916967E+02 -0.50653607819E+02  0.35129103172E+03  0.37641339848E+03  0.12000000000E+03 0.  0.
<mgrwt>
<rscale>  0 0.27541987E+03</rscale>
<asrwt>0</asrwt>
<pdfrwt beam="1">  1        2 0.13816255E+00 0.27541987E+03</pdfrwt>
<pdfrwt beam="2">  1       -2 0.32487292E-02 0.27541987E+03</pdfrwt>
<totfact> 0.11421573E+04</totfact>
</mgrwt>
</event>
<event>
 5    1  0.1107336E+001  0.2752996E+03  0.7818608E-02  0.1098284E+00
          1   -1    0    0  501    0  0.00000000000E+00  0.00000000000E+00  0.46720352131E+03  0.46720352131E+03  0.00000000000E+00 0.  1.
         -1   -1    0    0    0  501 -0.00000000000E+00 -0.00000000000E+00 -0.40555057908E+02  0.40555057908E+02  0.00000000000E+00 0.  1.
         35    2    1    2    0    0  0.00000000000E+00  0.00000000000E+00  0.42664846340E+03  0.50775857921E+03  0.27529958853E+03 0.  0.
         25    1    3    3    0    0 -0.43751726123E+02  0.43327581765E+02  0.16261291993E+03  0.21126867872E+03  0.12000000000E+03 0.  0.
         25    1    3    3    0    0  0.43751726123E+02 -0.43327581765E+02  0.26403554347E+03  0.29648990049E+03  0.12000000000E+03 0.  0.
<mgrwt>
<rscale>  0 0.27529959E+03</rscale>
<asrwt>0</asrwt>
<pdfrwt beam="1">  1        1 0.71877461E-01 0.27529959E+03</pdfrwt>
<pdfrwt beam="2">  1       -1 0.62392400E-02 0.27529959E+03</pdfrwt>
<totfact> 0.61927996E+03</totfact>
</mgrwt>
</event>
<event>
 5    1  0.1107336E+001  0.2774016E+03  0.7818608E-02  0.1097117E+00
          2   -1    0    0  501    0  0.00000000000E+00  0.00000000000E+00  0.25867222513E+03  0.25867222513E+03  0.00000000000E+00 0.  1.
         -2   -1    0    0    0  501 -0.00000000000E+00 -0.00000000000E+00 -0.74371746643E+02  0.74371746643E+02  0.00000000000E+00 0.  1.
         35    2    1    2    0    0  0.00000000000E+00  0.00000000000E+00  0.18430047849E+03  0.33304397178E+03  0.27740155148E+03 0.  0.
         25    1    3    3    0    0  0.50628783855E+02  0.30574187334E+02  0.13609639227E+03  0.19084098793E+03  0.12000000000E+03 0.  0.
         25    1    3    3    0    0 -0.50628783855E+02 -0.30574187334E+02  0.48204086217E+02  0.14220298384E+03  0.12000000000E+03 0.  0.
<mgrwt>
<rscale>  0 0.27740155E+03</rscale>
<asrwt>0</asrwt>
<pdfrwt beam="1">  1        2 0.39795726E-01 0.27740155E+03</pdfrwt>
<pdfrwt beam="2">  1       -2 0.11441807E-01 0.27740155E+03</pdfrwt>
<totfact> 0.68150450E+03</totfact>
</mgrwt>
</event>
<event>
 5    1  0.1107336E+001  0.2728791E+03  0.7818608E-02  0.1099643E+00
         -2   -1    0    0    0  501 -0.00000000000E+00  0.00000000000E+00  0.14443910105E+02  0.14443910105E+02  0.00000000000E+00 0. -1.
          2   -1    0    0  501    0  0.00000000000E+00 -0.00000000000E+00 -0.12888307235E+04  0.12888307235E+04  0.00000000000E+00 0. -1.
         35    2    1    2    0    0  0.00000000000E+00  0.00000000000E+00 -0.12743868134E+04  0.13032746336E+04  0.27287913157E+03 0.  0.
         25    1    3    3    0    0  0.52775496789E+02  0.37593527062E+02 -0.61736933791E+03  0.63225265973E+03  0.12000000000E+03 0.  0.
         25    1    3    3    0    0 -0.52775496789E+02 -0.37593527062E+02 -0.65701747551E+03  0.67102197390E+03  0.12000000000E+03 0.  0.
<mgrwt>
<rscale>  0 0.27287913E+03</rscale>
<asrwt>0</asrwt>
<pdfrwt beam="1">  1        2 0.19828166E+00 0.27287913E+03</pdfrwt>
<pdfrwt beam="2">  1       -2 0.22221399E-02 0.27287913E+03</pdfrwt>
<totfact> 0.11765596E+04</totfact>
</mgrwt>
</event>
<event>
 5    1  0.1107336E+001  0.2813904E+03  0.7818608E-02  0.1094932E+00
          1   -1    0    0  501    0  0.00000000000E+00  0.00000000000E+00  0.77792017414E+03  0.77792017414E+03  0.00000000000E+00 0.  1.
         -1   -1    0    0    0  501 -0.00000000000E+00 -0.00000000000E+00 -0.25446239759E+02  0.25446239759E+02  0.00000000000E+00 0.  1.
         35    2    1    2    0    0  0.00000000000E+00  0.00000000000E+00  0.75247393438E+03  0.80336641390E+03  0.28139042816E+03 0.  0.
         25    1    3    3    0    0 -0.61898462720E+02  0.33828298120E+02  0.31777102678E+03  0.34692102689E+03  0.12000000000E+03 0.  0.
         25    1    3    3    0    0  0.61898462720E+02 -0.33828298120E+02  0.43470290761E+03  0.45644538701E+03  0.12000000000E+03 0.  0.
<mgrwt>
<rscale>  0 0.28139043E+03</rscale>
<asrwt>0</asrwt>
<pdfrwt beam="1">  1        1 0.11968001E+00 0.28139043E+03</pdfrwt>
<pdfrwt beam="2">  1       -1 0.39148067E-02 0.28139043E+03</pdfrwt>
<totfact> 0.61021658E+03</totfact>
</mgrwt>
</event>
<event>
 5    1  0.1107336E+001  0.2785003E+03  0.7818608E-02  0.1096511E+00
          2   -1    0    0  501    0  0.00000000000E+00  0.00000000000E+00  0.79987288086E+02  0.79987288086E+02  0.00000000000E+00 0. -1.
         -2   -1    0    0    0  501 -0.00000000000E+00 -0.00000000000E+00 -0.24242104399E+03  0.24242104399E+03  0.00000000000E+00 0. -1.
         35    2    1    2    0    0  0.00000000000E+00  0.00000000000E+00 -0.16243375590E+03  0.32240833207E+03  0.27850028282E+03 0.  0.
         25    1    3    3    0    0  0.66965924285E+02  0.47178690522E+01 -0.55750787494E+02  0.14837399910E+03  0.12000000000E+03 0.  0.
         25    1    3    3    0    0 -0.66965924285E+02 -0.47178690522E+01 -0.10668296841E+03  0.17403433297E+03  0.12000000000E+03 0.  0.
<mgrwt>
<rscale>  0 0.27850028E+03</rscale>
<asrwt>0</asrwt>
<pdfrwt beam="1">  1        2 0.12305736E-01 0.27850028E+03</pdfrwt>
<pdfrwt beam="2">  1       -2 0.37295546E-01 0.27850028E+03</pdfrwt>
<totfact> 0.33611677E+03</totfact>
</mgrwt>
</event>
<event>
 5    1  0.1107336E+001  0.2753760E+03  0.7818608E-02  0.1098242E+00
         -1   -1    0    0    0  501 -0.00000000000E+00  0.00000000000E+00  0.29166518662E+02  0.29166518662E+02  0.00000000000E+00 0.  1.
          1   -1    0    0  501    0  0.00000000000E+00 -0.00000000000E+00 -0.64999127961E+03  0.64999127961E+03  0.00000000000E+00 0.  1.
         35    2    1    2    0    0  0.00000000000E+00  0.00000000000E+00 -0.62082476095E+03  0.67915779827E+03  0.27537598143E+03 0.  0.
         25    1    3    3    0    0 -0.60577287579E+02 -0.29416051101E+02 -0.32225853550E+03  0.35040758487E+03  0.12000000000E+03 0.  0.
         25    1    3    3    0    0  0.60577287579E+02  0.29416051101E+02 -0.29856622545E+03  0.32875021340E+03  0.12000000000E+03 0.  0.
<mgrwt>
<rscale>  0 0.27537598E+03</rscale>
<asrwt>0</asrwt>
<pdfrwt beam="1">  1        1 0.99998663E-01 0.27537598E+03</pdfrwt>
<pdfrwt beam="2">  1       -1 0.44871565E-02 0.27537598E+03</pdfrwt>
<totfact> 0.64810106E+03</totfact>
</mgrwt>
</event>
<event>
 5    1  0.1107336E+001  0.2743783E+03  0.7818608E-02  0.1098800E+00
         -2   -1    0    0    0  501 -0.00000000000E+00  0.00000000000E+00  0.18183967574E+03  0.18183967574E+03  0.00000000000E+00 0. -1.
          2   -1    0    0  501    0  0.00000000000E+00 -0.00000000000E+00 -0.10350248555E+03  0.10350248555E+03  0.00000000000E+00 0. -1.
         35    2    1    2    0    0  0.00000000000E+00  0.00000000000E+00  0.78337190193E+02  0.28534216128E+03  0.27437826743E+03 0.  0.
         25    1    3    3    0    0 -0.63805583256E+02  0.13239828064E+02  0.25434326126E+02  0.13890050557E+03  0.12000000000E+03 0.  0.
         25    1    3    3    0    0  0.63805583256E+02 -0.13239828064E+02  0.52902864067E+02  0.14644165571E+03  0.12000000000E+03 0.  0.
<mgrwt>
<rscale>  0 0.27437827E+03</rscale>
<asrwt>0</asrwt>
<pdfrwt beam="1">  1        2 0.15923459E-01 0.27437827E+03</pdfrwt>
<pdfrwt beam="2">  1       -2 0.27975335E-01 0.27437827E+03</pdfrwt>
<totfact> 0.41898424E+03</totfact>
</mgrwt>
</event>
<event>
 5    1  0.1107336E+001  0.2747582E+03  0.7818608E-02  0.1098587E+00
          2   -1    0    0  501    0  0.00000000000E+00  0.00000000000E+00  0.77856872165E+03  0.77856872165E+03  0.00000000000E+00 0.  1.
         -2   -1    0    0    0  501 -0.00000000000E+00 -0.00000000000E+00 -0.24240658154E+02  0.24240658154E+02  0.00000000000E+00 0.  1.
         35    2    1    2    0    0  0.00000000000E+00  0.00000000000E+00  0.75432806350E+03  0.80280937981E+03  0.27475820811E+03 0.  0.
         25    1    3    3    0    0  0.62175207275E+02  0.23713750526E+02  0.35758095193E+03  0.38300422393E+03  0.12000000000E+03 0.  0.
         25    1    3    3    0    0 -0.62175207275E+02 -0.23713750526E+02  0.39674711157E+03  0.41980515588E+03  0.12000000000E+03 0.  0.
<mgrwt>
<rscale>  0 0.27475821E+03</rscale>
<asrwt>0</asrwt>
<pdfrwt beam="1">  1        2 0.11977978E+00 0.27475821E+03</pdfrwt>
<pdfrwt beam="2">  1       -2 0.37293326E-02 0.27475821E+03</pdfrwt>
<totfact> 0.11180509E+04</totfact>
</mgrwt>
</event>
<event>
 5    1  0.1107336E+001  0.2735232E+03  0.7818608E-02  0.1099280E+00
          1   -1    0    0  501    0  0.00000000000E+00  0.00000000000E+00  0.38951504552E+03  0.38951504552E+03  0.00000000000E+00 0.  1.
         -1   -1    0    0    0  501 -0.00000000000E+00 -0.00000000000E+00 -0.48017997744E+02  0.48017997744E+02  0.00000000000E+00 0.  1.
         35    2    1    2    0    0  0.00000000000E+00  0.00000000000E+00  0.34149704778E+03  0.43753304326E+03  0.27352318057E+03 0.  0.
         25    1    3    3    0    0  0.15590880033E+02  0.54626352779E+02  0.11826201795E+03  0.17780050295E+03  0.12000000000E+03 0.  0.
         25    1    3    3    0    0 -0.15590880033E+02 -0.54626352779E+02  0.22323502983E+03  0.25973254032E+03  0.12000000000E+03 0.  0.
<mgrwt>
<rscale>  0 0.27352318E+03</rscale>
<asrwt>0</asrwt>
<pdfrwt beam="1">  1        1 0.59925390E-01 0.27352318E+03</pdfrwt>
<pdfrwt beam="2">  1       -1 0.73873845E-02 0.27352318E+03</pdfrwt>
<totfact> 0.60642119E+03</totfact>
</mgrwt>
</event>
<event>
 5    1  0.1107336E+001  0.2750957E+03  0.7818608E-02  0.1098398E+00
          2   -1    0    0  501    0  0.00000000000E+00  0.00000000000E+00  0.15046542653E+03  0.15046542653E+03  0.00000000000E+00 0. -1.
         -2   -1    0    0    0  501 -0.00000000000E+00 -0.00000000000E+00 -0.12573928385E+03  0.12573928385E+03  0.00000000000E+00 0. -1.
         35    2    1    2    0    0  0.00000000000E+00  0.00000000000E+00  0.24726142675E+02  0.27620471038E+03  0.27509572862E+03 0.  0.
         25    1    3    3    0    0  0.14168637247E+02  0.30174062947E+02 -0.46251983004E+02  0.13285507250E+03  0.12000000000E+03 0.  0.
         25    1    3    3    0    0 -0.14168637247E+02 -0.30174062947E+02  0.70978125678E+02  0.14334963788E+03  0.12000000000E+03 0.  0.
<mgrwt>
<rscale>  0 0.27509573E+03</rscale>
<asrwt>0</asrwt>
<pdfrwt beam="1">  1        2 0.23148527E-01 0.27509573E+03</pdfrwt>
<pdfrwt beam="2">  1       -2 0.19344505E-01 0.27509573E+03</pdfrwt>
<totfact> 0.51894952E+03</totfact>
</mgrwt>
</event>
<event>
 5    1  0.1107336E+001  0.2757052E+03  0.7818608E-02  0.1098058E+00
          2   -1    0    0  501    0  0.00000000000E+00  0.00000000000E+00  0.67193976768E+02  0.67193976768E+02  0.00000000000E+00 0. -1.
         -2   -1    0    0    0  501 -0.00000000000E+00 -0.00000000000E+00 -0.28281323884E+03  0.28281323884E+03  0.00000000000E+00 0. -1.
         35    2    1    2    0    0  0.00000000000E+00  0.00000000000E+00 -0.21561926207E+03  0.35000721561E+03  0.27570524986E+03 0.  0.
         25    1    3    3    0    0 -0.10312165436E+02  0.43801326088E+02 -0.17227274163E+03  0.21471561292E+03  0.12000000000E+03 0.  0.
         25    1    3    3    0    0  0.10312165436E+02 -0.43801326088E+02 -0.43346520441E+02  0.13529160269E+03  0.12000000000E+03 0.  0.
<mgrwt>
<rscale>  0 0.27570525E+03</rscale>
<asrwt>0</asrwt>
<pdfrwt beam="1">  1        2 0.10337535E-01 0.27570525E+03</pdfrwt>
<pdfrwt beam="2">  1       -2 0.43509729E-01 0.27570525E+03</pdfrwt>
<totfact> 0.30983336E+03</totfact>
</mgrwt>
</event>
<event>
 5    1  0.1107336E+001  0.2766380E+03  0.7818608E-02  0.1097540E+00
          1   -1    0    0  501    0  0.00000000000E+00  0.00000000000E+00  0.99690456891E+03  0.99690456891E+03  0.00000000000E+00 0.  1.
         -1   -1    0    0    0  501 -0.00000000000E+00 -0.00000000000E+00 -0.19191547432E+02  0.19191547432E+02  0.00000000000E+00 0.  1.
         35    2    1    2    0    0  0.00000000000E+00  0.00000000000E+00  0.97771302148E+03  0.10160961163E+04  0.27663796789E+03 0.  0.
         25    1    3    3    0    0 -0.41215751464E+02 -0.47227179076E+02  0.59293953146E+03  0.60819933622E+03  0.12000000000E+03 0.  0.
         25    1    3    3    0    0  0.41215751464E+02  0.47227179076E+02  0.38477349002E+03  0.40789678012E+03  0.12000000000E+03 0.  0.
<mgrwt>
<rscale>  0 0.27663797E+03</rscale>
<asrwt>0</asrwt>
<pdfrwt beam="1">  1        1 0.15336989E+00 0.27663797E+03</pdfrwt>
<pdfrwt beam="2">  1       -1 0.29525465E-02 0.27663797E+03</pdfrwt>
<totfact> 0.62059979E+03</totfact>
</mgrwt>
</event>
<event>
 5    1  0.1107336E+001  0.2736948E+03  0.7818608E-02  0.1099183E+00
         -2   -1    0    0    0  501 -0.00000000000E+00  0.00000000000E+00  0.14718181478E+03  0.14718181478E+03  0.00000000000E+00 0. -1.
          2   -1    0    0  501    0  0.00000000000E+00 -0.00000000000E+00 -0.12723866243E+03  0.12723866243E+03  0.00000000000E+00 0. -1.
         35    2    1    2    0    0  0.00000000000E+00  0.00000000000E+00  0.19943152347E+02  0.27442047722E+03  0.27369484648E+03 0.  0.
         25    1    3    3    0    0  0.10444900412E+02  0.31312865629E+02  0.67022570491E+02  0.14135634564E+03  0.12000000000E+03 0.  0.
         25    1    3    3    0    0 -0.10444900412E+02 -0.31312865629E+02 -0.47079418144E+02  0.13306413157E+03  0.12000000000E+03 0.  0.
<mgrwt>
<rscale>  0 0.27369485E+03</rscale>
<asrwt>0</asrwt>
<pdfrwt beam="1">  1        2 0.19575179E-01 0.27369485E+03</pdfrwt>
<pdfrwt beam="2">  1       -2 0.22643356E-01 0.27369485E+03</pdfrwt>
<totfact> 0.47879777E+03</totfact>
</mgrwt>
</event>
<event>
 5    1  0.1107336E+001  0.2746535E+03  0.7818608E-02  0.1098645E+00
         -1   -1    0    0    0  501 -0.00000000000E+00  0.00000000000E+00  0.22033167596E+02  0.22033167596E+02  0.00000000000E+00 0.  1.
          1   -1    0    0  501    0  0.00000000000E+00 -0.00000000000E+00 -0.85592038491E+03  0.85592038491E+03  0.00000000000E+00 0.  1.
         35    2    1    2    0    0  0.00000000000E+00  0.00000000000E+00 -0.83388721731E+03  0.87795355251E+03  0.27465350746E+03 0.  0.
         25    1    3    3    0    0  0.23811878629E+02 -0.39410306907E+02 -0.57152289976E+03  0.58579740765E+03  0.12000000000E+03 0.  0.
         25    1    3    3    0    0 -0.23811878629E+02  0.39410306907E+02 -0.26236431755E+03  0.29215614486E+03  0.12000000000E+03 0.  0.
<mgrwt>
<rscale>  0 0.27465351E+03</rscale>
<asrwt>0</asrwt>
<pdfrwt beam="1">  1        1 0.13168006E+00 0.27465351E+03</pdfrwt>
<pdfrwt beam="2">  1       -1 0.33897182E-02 0.27465351E+03</pdfrwt>
<totfact> 0.65089313E+03</totfact>
</mgrwt>
</event>
<event>
 5    1  0.1107336E+001  0.2746668E+03  0.7818608E-02  0.1098638E+00
         -4   -1    0    0    0  501 -0.00000000000E+00  0.00000000000E+00  0.11752242185E+04  0.11752242185E+04  0.00000000000E+00 0. -1.
          4   -1    0    0  501    0  0.00000000000E+00 -0.00000000000E+00 -0.16048396895E+02  0.16048396895E+02  0.00000000000E+00 0. -1.
         35    2    1    2    0    0  0.00000000000E+00  0.00000000000E+00  0.11591758216E+04  0.11912726154E+04  0.27466681415E+03 0.  0.
         25    1    3    3    0    0 -0.46571583499E+02 -0.47724908612E+02  0.56342631340E+03  0.57991015677E+03  0.12000000000E+03 0.  0.
         25    1    3    3    0    0  0.46571583499E+02  0.47724908612E+02  0.59574950821E+03  0.61136245864E+03  0.12000000000E+03 0.  0.
<mgrwt>
<rscale>  0 0.27466681E+03</rscale>
<asrwt>0</asrwt>
<pdfrwt beam="1">  1        4 0.24689851E-02 0.27466681E+03</pdfrwt>
<pdfrwt beam="2">  1       -4 0.18080366E+00 0.27466681E+03</pdfrwt>
<totfact> 0.26274400E+02</totfact>
</mgrwt>
</event>
<event>
 5    1  0.1107336E+001  0.2761135E+03  0.7818608E-02  0.1097831E+00
          2   -1    0    0  501    0  0.00000000000E+00  0.00000000000E+00  0.93312539187E+03  0.93312539187E+03  0.00000000000E+00 0. -1.
         -2   -1    0    0    0  501 -0.00000000000E+00 -0.00000000000E+00 -0.20425617982E+02  0.20425617982E+02  0.00000000000E+00 0. -1.
         35    2    1    2    0    0  0.00000000000E+00  0.00000000000E+00  0.91269977389E+03  0.95355100985E+03  0.27611347510E+03 0.  0.
         25    1    3    3    0    0 -0.59796928458E+02  0.89282625653E+01  0.56579161110E+03  0.58152861814E+03  0.12000000000E+03 0.  0.
         25    1    3    3    0    0  0.59796928458E+02 -0.89282625653E+01  0.34690816279E+03  0.37202239172E+03  0.12000000000E+03 0.  0.
<mgrwt>
<rscale>  0 0.27611348E+03</rscale>
<asrwt>0</asrwt>
<pdfrwt beam="1">  1        2 0.14355772E+00 0.27611348E+03</pdfrwt>
<pdfrwt beam="2">  1       -2 0.31424035E-02 0.27611348E+03</pdfrwt>
<totfact> 0.11398948E+04</totfact>
</mgrwt>
</event>
<event>
 5    1  0.1107336E+001  0.2756611E+03  0.7818608E-02  0.1098083E+00
          4   -1    0    0  501    0  0.00000000000E+00  0.00000000000E+00  0.26421799956E+03  0.26421799956E+03  0.00000000000E+00 0. -1.
         -4   -1    0    0    0  501 -0.00000000000E+00 -0.00000000000E+00 -0.71899973297E+02  0.71899973297E+02  0.00000000000E+00 0. -1.
         35    2    1    2    0    0  0.00000000000E+00  0.00000000000E+00  0.19231802626E+03  0.33611797286E+03  0.27566114788E+03 0.  0.
         25    1    3    3    0    0 -0.23143055845E+02 -0.63594288852E+02  0.10124993073E+03  0.17097187804E+03  0.12000000000E+03 0.  0.
         25    1    3    3    0    0  0.23143055845E+02  0.63594288852E+02  0.91068095532E+02  0.16514609481E+03  0.12000000000E+03 0.  0.
<mgrwt>
<rscale>  0 0.27566115E+03</rscale>
<asrwt>0</asrwt>
<pdfrwt beam="1">  1        4 0.40648923E-01 0.27566115E+03</pdfrwt>
<pdfrwt beam="2">  1       -4 0.11061534E-01 0.27566115E+03</pdfrwt>
<totfact> 0.70606067E+02</totfact>
</mgrwt>
</event>
<event>
 5    1  0.1107336E+001  0.2749991E+03  0.7818608E-02  0.1098452E+00
         -2   -1    0    0    0  501 -0.00000000000E+00  0.00000000000E+00  0.18398981792E+03  0.18398981792E+03  0.00000000000E+00 0. -1.
          2   -1    0    0  501    0  0.00000000000E+00 -0.00000000000E+00 -0.10275635980E+03  0.10275635980E+03  0.00000000000E+00 0. -1.
         35    2    1    2    0    0  0.00000000000E+00  0.00000000000E+00  0.81233458122E+02  0.28674617772E+03  0.27499908312E+03 0.  0.
         25    1    3    3    0    0 -0.59499013151E+01 -0.10465148564E+02 -0.28243673328E+02  0.12386535328E+03  0.12000000000E+03 0.  0.
         25    1    3    3    0    0  0.59499013151E+01  0.10465148564E+02  0.10947713145E+03  0.16288082444E+03  0.12000000000E+03 0.  0.
<mgrwt>
<rscale>  0 0.27499908E+03</rscale>
<asrwt>0</asrwt>
<pdfrwt beam="1">  1        2 0.15808671E-01 0.27499908E+03</pdfrwt>
<pdfrwt beam="2">  1       -2 0.28306126E-01 0.27499908E+03</pdfrwt>
<totfact> 0.41376440E+03</totfact>
</mgrwt>
</event>
<event>
 5    1  0.1107336E+001  0.2746340E+03  0.7818608E-02  0.1098656E+00
          3   -1    0    0  501    0  0.00000000000E+00  0.00000000000E+00  0.17853742550E+02  0.17853742550E+02  0.00000000000E+00 0.  1.
         -3   -1    0    0    0  501 -0.00000000000E+00 -0.00000000000E+00 -0.10561350602E+04  0.10561350602E+04  0.00000000000E+00 0.  1.
         35    2    1    2    0    0  0.00000000000E+00  0.00000000000E+00 -0.10382813177E+04  0.10739888028E+04  0.27463403622E+03 0.  0.
         25    1    3    3    0    0  0.38487927914E+02 -0.51187488275E+02 -0.59276876987E+03  0.60817455889E+03  0.12000000000E+03 0.  0.
         25    1    3    3    0    0 -0.38487927914E+02  0.51187488275E+02 -0.44551254779E+03  0.46581424386E+03  0.12000000000E+03 0.  0.
<mgrwt>
<rscale>  0 0.27463404E+03</rscale>
<asrwt>0</asrwt>
<pdfrwt beam="1">  1        3 0.27467286E-02 0.27463404E+03</pdfrwt>
<pdfrwt beam="2">  1       -3 0.16248238E+00 0.27463404E+03</pdfrwt>
<totfact> 0.41278801E+02</totfact>
</mgrwt>
</event>
<event>
 5    1  0.1107336E+001  0.2744423E+03  0.7818608E-02  0.1098764E+00
         -2   -1    0    0    0  501 -0.00000000000E+00  0.00000000000E+00  0.17080316634E+02  0.17080316634E+02  0.00000000000E+00 0.  1.
          2   -1    0    0  501    0  0.00000000000E+00 -0.00000000000E+00 -0.11024179758E+04  0.11024179758E+04  0.00000000000E+00 0.  1.
         35    2    1    2    0    0  0.00000000000E+00  0.00000000000E+00 -0.10853376592E+04  0.11194982924E+04  0.27444232975E+03 0.  0.
         25    1    3    3    0    0  0.62620565993E+02 -0.44618152987E+01 -0.63281813655E+03  0.64714761610E+03  0.12000000000E+03 0.  0.
         25    1    3    3    0    0 -0.62620565993E+02  0.44618152987E+01 -0.45251952261E+03  0.47235067633E+03  0.12000000000E+03 0.  0.
<mgrwt>
<rscale>  0 0.27444233E+03</rscale>
<asrwt>0</asrwt>
<pdfrwt beam="1">  1        2 0.16960277E+00 0.27444233E+03</pdfrwt>
<pdfrwt beam="2">  1       -2 0.26277409E-02 0.27444233E+03</pdfrwt>
<totfact> 0.11727787E+04</totfact>
</mgrwt>
</event>
<event>
 5    1  0.1107336E+001  0.2746031E+03  0.7818608E-02  0.1098674E+00
          2   -1    0    0  501    0  0.00000000000E+00  0.00000000000E+00  0.87381173048E+02  0.87381173048E+02  0.00000000000E+00 0. -1.
         -2   -1    0    0    0  501 -0.00000000000E+00 -0.00000000000E+00 -0.21574111345E+03  0.21574111345E+03  0.00000000000E+00 0. -1.
         35    2    1    2    0    0  0.00000000000E+00  0.00000000000E+00 -0.12835994040E+03  0.30312228650E+03  0.27460307040E+03 0.  0.
         25    1    3    3    0    0 -0.38103129862E+01 -0.54941801326E+02 -0.22604117644E+02  0.13395546332E+03  0.12000000000E+03 0.  0.
         25    1    3    3    0    0  0.38103129862E+01  0.54941801326E+02 -0.10575582276E+03  0.16916682318E+03  0.12000000000E+03 0.  0.
<mgrwt>
<rscale>  0 0.27460307E+03</rscale>
<asrwt>0</asrwt>
<pdfrwt beam="1">  1        2 0.13443258E-01 0.27460307E+03</pdfrwt>
<pdfrwt beam="2">  1       -2 0.33190940E-01 0.27460307E+03</pdfrwt>
<totfact> 0.37534889E+03</totfact>
</mgrwt>
</event>
<event>
 5    1  0.1107336E+001  0.2756204E+03  0.7818608E-02  0.1098105E+00
          1   -1    0    0  501    0  0.00000000000E+00  0.00000000000E+00  0.61579570630E+03  0.61579570630E+03  0.00000000000E+00 0. -1.
         -1   -1    0    0    0  501 -0.00000000000E+00 -0.00000000000E+00 -0.30840822774E+02  0.30840822774E+02  0.00000000000E+00 0. -1.
         35    2    1    2    0    0  0.00000000000E+00  0.00000000000E+00  0.58495488352E+03  0.64663652907E+03  0.27562036385E+03 0.  0.
         25    1    3    3    0    0 -0.59392805645E+02 -0.11396687545E+02  0.22076707029E+03  0.25844823307E+03  0.12000000000E+03 0.  0.
         25    1    3    3    0    0  0.59392805645E+02  0.11396687545E+02  0.36418781323E+03  0.38818829600E+03  0.12000000000E+03 0.  0.
<mgrwt>
<rscale>  0 0.27562036E+03</rscale>
<asrwt>0</asrwt>
<pdfrwt beam="1">  1        1 0.94737792E-01 0.27562036E+03</pdfrwt>
<pdfrwt beam="2">  1       -1 0.47447424E-02 0.27562036E+03</pdfrwt>
<totfact> 0.64349834E+03</totfact>
</mgrwt>
</event>
<event>
 5    1  0.1107336E+001  0.2747013E+03  0.7818608E-02  0.1098619E+00
         -2   -1    0    0    0  501 -0.00000000000E+00  0.00000000000E+00  0.38073664793E+02  0.38073664793E+02  0.00000000000E+00 0.  1.
          2   -1    0    0  501    0  0.00000000000E+00 -0.00000000000E+00 -0.49549216357E+03  0.49549216357E+03  0.00000000000E+00 0.  1.
         35    2    1    2    0    0  0.00000000000E+00  0.00000000000E+00 -0.45741849878E+03  0.53356582837E+03  0.27470131084E+03 0.  0.
         25    1    3    3    0    0 -0.42835297993E+02 -0.50124394978E+02 -0.24979826043E+03  0.28486222747E+03  0.12000000000E+03 0.  0.
         25    1    3    3    0    0  0.42835297993E+02  0.50124394978E+02 -0.20762023835E+03  0.24870360090E+03  0.12000000000E+03 0.  0.
<mgrwt>
<rscale>  0 0.27470131E+03</rscale>
<asrwt>0</asrwt>
<pdfrwt beam="1">  1        2 0.76229559E-01 0.27470131E+03</pdfrwt>
<pdfrwt beam="2">  1       -2 0.58574872E-02 0.27470131E+03</pdfrwt>
<totfact> 0.96033650E+03</totfact>
</mgrwt>
</event>
<event>
 5    1  0.1107336E+001  0.2750481E+03  0.7818608E-02  0.1098425E+00
          1   -1    0    0  501    0  0.00000000000E+00  0.00000000000E+00  0.90222626421E+03  0.90222626421E+03  0.00000000000E+00 0.  1.
         -1   -1    0    0    0  501 -0.00000000000E+00 -0.00000000000E+00 -0.20962440364E+02  0.20962440364E+02  0.00000000000E+00 0.  1.
         35    2    1    2    0    0  0.00000000000E+00  0.00000000000E+00  0.88126382385E+03  0.92318870458E+03  0.27504809949E+03 0.  0.
         25    1    3    3    0    0  0.59317609695E+02 -0.25276940535E+02  0.37735909747E+03  0.40119495384E+03  0.12000000000E+03 0.  0.
         25    1    3    3    0    0 -0.59317609695E+02  0.25276940535E+02  0.50390472638E+03  0.52199375073E+03  0.12000000000E+03 0.  0.
<mgrwt>
<rscale>  0 0.27504810E+03</rscale>
<asrwt>0</asrwt>
<pdfrwt beam="1">  1        1 0.13880401E+00 0.27504810E+03</pdfrwt>
<pdfrwt beam="2">  1       -1 0.32249915E-02 0.27504810E+03</pdfrwt>
<totfact> 0.64374809E+03</totfact>
</mgrwt>
</event>
<event>
 5    1  0.1107336E+001  0.2750090E+03  0.7818608E-02  0.1098447E+00
         -2   -1    0    0    0  501 -0.00000000000E+00  0.00000000000E+00  0.64146674198E+02  0.64146674198E+02  0.00000000000E+00 0. -1.
          2   -1    0    0  501    0  0.00000000000E+00 -0.00000000000E+00 -0.29475393678E+03  0.29475393678E+03  0.00000000000E+00 0. -1.
         35    2    1    2    0    0  0.00000000000E+00  0.00000000000E+00 -0.23060726258E+03  0.35890061098E+03  0.27500897986E+03 0.  0.
         25    1    3    3    0    0 -0.38156388141E+01 -0.63304236055E+02 -0.86548083287E+02  0.16097377464E+03  0.12000000000E+03 0.  0.
         25    1    3    3    0    0  0.38156388141E+01  0.63304236055E+02 -0.14405917929E+03  0.19792683633E+03  0.12000000000E+03 0.  0.
<mgrwt>
<rscale>  0 0.27500898E+03</rscale>
<asrwt>0</asrwt>
<pdfrwt beam="1">  1        2 0.45346760E-01 0.27500898E+03</pdfrwt>
<pdfrwt beam="2">  1       -2 0.98687190E-02 0.27500898E+03</pdfrwt>
<totfact> 0.74974888E+03</totfact>
</mgrwt>
</event>
<event>
 5    1  0.1107336E+001  0.2786141E+03  0.7818608E-02  0.1096448E+00
         -1   -1    0    0    0  501 -0.00000000000E+00  0.00000000000E+00  0.16315962807E+02  0.16315962807E+02  0.00000000000E+00 0.  1.
          1   -1    0    0  501    0  0.00000000000E+00 -0.00000000000E+00 -0.11894151745E+04  0.11894151745E+04  0.00000000000E+00 0.  1.
         35    2    1    2    0    0  0.00000000000E+00  0.00000000000E+00 -0.11730992117E+04  0.12057311373E+04  0.27861409691E+03 0.  0.
         25    1    3    3    0    0 -0.58062547856E+02 -0.31777372414E+02 -0.69477367504E+03  0.70816066002E+03  0.12000000000E+03 0.  0.
         25    1    3    3    0    0  0.58062547856E+02  0.31777372414E+02 -0.47832553668E+03  0.49757047732E+03  0.12000000000E+03 0.  0.
<mgrwt>
<rscale>  0 0.27861410E+03</rscale>
<asrwt>0</asrwt>
<pdfrwt beam="1">  1        1 0.18298702E+00 0.27861410E+03</pdfrwt>
<pdfrwt beam="2">  1       -1 0.25101472E-02 0.27861410E+03</pdfrwt>
<totfact> 0.57190945E+03</totfact>
</mgrwt>
</event>
<event>
 5    1  0.1107336E+001  0.2749968E+03  0.7818608E-02  0.1098453E+00
         -2   -1    0    0    0  501 -0.00000000000E+00  0.00000000000E+00  0.26891416119E+02  0.26891416119E+02  0.00000000000E+00 0. -1.
          2   -1    0    0  501    0  0.00000000000E+00 -0.00000000000E+00 -0.70304280277E+03  0.70304280277E+03  0.00000000000E+00 0. -1.
         35    2    1    2    0    0  0.00000000000E+00  0.00000000000E+00 -0.67615138665E+03  0.72993421889E+03  0.27499684768E+03 0.  0.
         25    1    3    3    0    0 -0.46072182375E+02  0.12588384654E+02 -0.21287923534E+03  0.24899534585E+03  0.12000000000E+03 0.  0.
         25    1    3    3    0    0  0.46072182375E+02 -0.12588384654E+02 -0.46327215131E+03  0.48093887304E+03  0.12000000000E+03 0.  0.
<mgrwt>
<rscale>  0 0.27499685E+03</rscale>
<asrwt>0</asrwt>
<pdfrwt beam="1">  1        2 0.10816043E+00 0.27499685E+03</pdfrwt>
<pdfrwt beam="2">  1       -2 0.41371411E-02 0.27499685E+03</pdfrwt>
<totfact> 0.10852576E+04</totfact>
</mgrwt>
</event>
<event>
 5    1  0.1107336E+001  0.2746772E+03  0.7818608E-02  0.1098632E+00
          1   -1    0    0  501    0  0.00000000000E+00  0.00000000000E+00  0.22596918580E+02  0.22596918580E+02  0.00000000000E+00 0. -1.
         -1   -1    0    0    0  501 -0.00000000000E+00 -0.00000000000E+00 -0.83471048352E+03  0.83471048352E+03  0.00000000000E+00 0. -1.
         35    2    1    2    0    0  0.00000000000E+00  0.00000000000E+00 -0.81211356494E+03  0.85730740210E+03  0.27467715474E+03 0.  0.
         25    1    3    3    0    0  0.21818439382E+02 -0.34525740946E+02 -0.24108382558E+03  0.27237746243E+03  0.12000000000E+03 0.  0.
         25    1    3    3    0    0 -0.21818439382E+02  0.34525740946E+02 -0.57102973935E+03  0.58492993966E+03  0.12000000000E+03 0.  0.
<mgrwt>
<rscale>  0 0.27467715E+03</rscale>
<asrwt>0</asrwt>
<pdfrwt beam="1">  1        1 0.34764488E-02 0.27467715E+03</pdfrwt>
<pdfrwt beam="2">  1       -1 0.12841700E+00 0.27467715E+03</pdfrwt>
<totfact> 0.15528457E+03</totfact>
</mgrwt>
</event>
<event>
 5    1  0.1107336E+001  0.2758488E+03  0.7818608E-02  0.1097978E+00
          4   -1    0    0  501    0  0.00000000000E+00  0.00000000000E+00  0.29000329272E+03  0.29000329272E+03  0.00000000000E+00 0.  1.
         -4   -1    0    0    0  501 -0.00000000000E+00 -0.00000000000E+00 -0.65596299178E+02  0.65596299178E+02  0.00000000000E+00 0.  1.
         35    2    1    2    0    0  0.00000000000E+00  0.00000000000E+00  0.22440699355E+03  0.35559959190E+03  0.27584881912E+03 0.  0.
         25    1    3    3    0    0  0.26576602636E+02  0.38538950885E+02  0.48636152536E+02  0.13768457385E+03  0.12000000000E+03 0.  0.
         25    1    3    3    0    0 -0.26576602636E+02 -0.38538950885E+02  0.17577084101E+03  0.21791501805E+03  0.12000000000E+03 0.  0.
<mgrwt>
<rscale>  0 0.27584882E+03</rscale>
<asrwt>0</asrwt>
<pdfrwt beam="1">  1        4 0.44615891E-01 0.27584882E+03</pdfrwt>
<pdfrwt beam="2">  1       -4 0.10091738E-01 0.27584882E+03</pdfrwt>
<totfact> 0.68518439E+02</totfact>
</mgrwt>
</event>
<event>
 5    1  0.1107336E+001  0.2747493E+03  0.7818608E-02  0.1098592E+00
          2   -1    0    0  501    0  0.00000000000E+00  0.00000000000E+00  0.21024658975E+03  0.21024658975E+03  0.00000000000E+00 0.  1.
         -2   -1    0    0    0  501 -0.00000000000E+00 -0.00000000000E+00 -0.89760260096E+02  0.89760260096E+02  0.00000000000E+00 0.  1.
         35    2    1    2    0    0  0.00000000000E+00  0.00000000000E+00  0.12048632965E+03  0.30000684985E+03  0.27474925718E+03 0.  0.
         25    1    3    3    0    0 -0.13615914632E+02 -0.85720507885E+01 -0.10630683135E+02  0.12153964213E+03  0.12000000000E+03 0.  0.
         25    1    3    3    0    0  0.13615914632E+02  0.85720507885E+01  0.13111701279E+03  0.17846720771E+03  0.12000000000E+03 0.  0.
<mgrwt>
<rscale>  0 0.27474926E+03</rscale>
<asrwt>0</asrwt>
<pdfrwt beam="1">  1        2 0.32345629E-01 0.27474926E+03</pdfrwt>
<pdfrwt beam="2">  1       -2 0.13809271E-01 0.27474926E+03</pdfrwt>
<totfact> 0.62871684E+03</totfact>
</mgrwt>
</event>
<event>
 5    1  0.1107336E+001  0.2759626E+03  0.7818608E-02  0.1097915E+00
         -4   -1    0    0    0  501 -0.00000000000E+00  0.00000000000E+00  0.34164846752E+02  0.34164846752E+02  0.00000000000E+00 0. -1.
          4   -1    0    0  501    0  0.00000000000E+00 -0.00000000000E+00 -0.55726392012E+03  0.55726392012E+03  0.00000000000E+00 0. -1.
         35    2    1    2    0    0  0.00000000000E+00  0.00000000000E+00 -0.52309907337E+03  0.59142876687E+03  0.27596258030E+03 0.  0.
         25    1    3    3    0    0 -0.34758848204E+02  0.51465691630E+02 -0.20162021311E+03  0.24270888999E+03  0.12000000000E+03 0.  0.
         25    1    3    3    0    0  0.34758848204E+02 -0.51465691630E+02 -0.32147886025E+03  0.34871987688E+03  0.12000000000E+03 0.  0.
<mgrwt>
<rscale>  0 0.27596258E+03</rscale>
<asrwt>0</asrwt>
<pdfrwt beam="1">  1        4 0.85732906E-01 0.27596258E+03</pdfrwt>
<pdfrwt beam="2">  1       -4 0.52561306E-02 0.27596258E+03</pdfrwt>
<totfact> 0.50185424E+02</totfact>
</mgrwt>
</event>
<event>
 5    1  0.1107336E+001  0.2756638E+03  0.7818608E-02  0.1098081E+00
          2   -1    0    0  501    0  0.00000000000E+00  0.00000000000E+00  0.96926700009E+03  0.96926700009E+03  0.00000000000E+00 0.  1.
         -2   -1    0    0    0  501 -0.00000000000E+00 -0.00000000000E+00 -0.19599998914E+02  0.19599998914E+02  0.00000000000E+00 0.  1.
         35    2    1    2    0    0  0.00000000000E+00  0.00000000000E+00  0.94966700118E+03  0.98886699901E+03  0.27566379631E+03 0.  0.
         25    1    3    3    0    0  0.16980298471E+02  0.50242429231E+02  0.32327606398E+03  0.34888400045E+03  0.12000000000E+03 0.  0.
         25    1    3    3    0    0 -0.16980298471E+02 -0.50242429231E+02  0.62639093720E+03  0.63998299855E+03  0.12000000000E+03 0.  0.
<mgrwt>
<rscale>  0 0.27566380E+03</rscale>
<asrwt>0</asrwt>
<pdfrwt beam="1">  1        2 0.14911796E+00 0.27566380E+03</pdfrwt>
<pdfrwt beam="2">  1       -2 0.30153852E-02 0.27566380E+03</pdfrwt>
<totfact> 0.11503941E+04</totfact>
</mgrwt>
</event>
<event>
 5    1  0.1107336E+001  0.2757291E+03  0.7818608E-02  0.1098045E+00
         -2   -1    0    0    0  501 -0.00000000000E+00  0.00000000000E+00  0.24976886430E+02  0.24976886430E+02  0.00000000000E+00 0. -1.
          2   -1    0    0  501    0  0.00000000000E+00 -0.00000000000E+00 -0.76096875938E+03  0.76096875938E+03  0.00000000000E+00 0. -1.
         35    2    1    2    0    0  0.00000000000E+00  0.00000000000E+00 -0.73599187295E+03  0.78594564581E+03  0.27572907195E+03 0.  0.
         25    1    3    3    0    0  0.22165212344E+02 -0.46254731259E+02 -0.24129345431E+03  0.27432340020E+03  0.12000000000E+03 0.  0.
         25    1    3    3    0    0 -0.22165212344E+02  0.46254731259E+02 -0.49469841864E+03  0.51162224561E+03  0.12000000000E+03 0.  0.
<mgrwt>
<rscale>  0 0.27572907E+03</rscale>
<asrwt>0</asrwt>
<pdfrwt beam="1">  1        2 0.11707210E+00 0.27572907E+03</pdfrwt>
<pdfrwt beam="2">  1       -2 0.38425983E-02 0.27572907E+03</pdfrwt>
<totfact> 0.11001909E+04</totfact>
</mgrwt>
</event>
<event>
 5    1  0.1107336E+001  0.2721888E+03  0.7818608E-02  0.1100033E+00
         -1   -1    0    0    0  501 -0.00000000000E+00  0.00000000000E+00  0.90254551485E+01  0.90254551485E+01  0.00000000000E+00 0. -1.
          1   -1    0    0  501    0  0.00000000000E+00 -0.00000000000E+00 -0.20521606793E+04  0.20521606793E+04  0.00000000000E+00 0. -1.
         35    2    1    2    0    0  0.00000000000E+00  0.00000000000E+00 -0.20431352242E+04  0.20611861345E+04  0.27218878867E+03 0.  0.
         25    1    3    3    0    0  0.38384422202E+02 -0.17709663031E+02 -0.13874667765E+04  0.13932878568E+04  0.12000000000E+03 0.  0.
         25    1    3    3    0    0 -0.38384422202E+02  0.17709663031E+02 -0.65566844768E+03  0.66789827767E+03  0.12000000000E+03 0.  0.
<mgrwt>
<rscale>  0 0.27218879E+03</rscale>
<asrwt>0</asrwt>
<pdfrwt beam="1">  1        1 0.31571692E+00 0.27218879E+03</pdfrwt>
<pdfrwt beam="2">  1       -1 0.13885320E-02 0.27218879E+03</pdfrwt>
<totfact> 0.36445169E+03</totfact>
</mgrwt>
</event>
<event>
 5    1  0.1107336E+001  0.2743063E+03  0.7818608E-02  0.1098840E+00
         -2   -1    0    0    0  501 -0.00000000000E+00  0.00000000000E+00  0.73624959646E+02  0.73624959646E+02  0.00000000000E+00 0. -1.
          2   -1    0    0  501    0  0.00000000000E+00 -0.00000000000E+00 -0.25549740265E+03  0.25549740265E+03  0.00000000000E+00 0. -1.
         35    2    1    2    0    0  0.00000000000E+00  0.00000000000E+00 -0.18187244300E+03  0.32912236229E+03  0.27430629566E+03 0.  0.
         25    1    3    3    0    0  0.51060855466E+01 -0.66218674350E+02 -0.90897953299E+02  0.16454003421E+03  0.12000000000E+03 0.  0.
         25    1    3    3    0    0 -0.51060855466E+01  0.66218674350E+02 -0.90974489702E+02  0.16458232809E+03  0.12000000000E+03 0.  0.
<mgrwt>
<rscale>  0 0.27430630E+03</rscale>
<asrwt>0</asrwt>
<pdfrwt beam="1">  1        2 0.39307292E-01 0.27430630E+03</pdfrwt>
<pdfrwt beam="2">  1       -2 0.11326917E-01 0.27430630E+03</pdfrwt>
<totfact> 0.70164091E+03</totfact>
</mgrwt>
</event>
<event>
 5    1  0.1107336E+001  0.2751495E+03  0.7818608E-02  0.1098368E+00
          2   -1    0    0  501    0  0.00000000000E+00  0.00000000000E+00  0.18119706370E+03  0.18119706370E+03  0.00000000000E+00 0. -1.
         -2   -1    0    0    0  501 -0.00000000000E+00 -0.00000000000E+00 -0.10445428143E+03  0.10445428143E+03  0.00000000000E+00 0. -1.
         35    2    1    2    0    0  0.00000000000E+00  0.00000000000E+00  0.76742782267E+02  0.28565134513E+03  0.27514948000E+03 0.  0.
         25    1    3    3    0    0 -0.61174929432E-01 -0.99727911150E+01 -0.30706559611E+02  0.12426726483E+03  0.12000000000E+03 0.  0.
         25    1    3    3    0    0  0.61174929432E-01  0.99727911150E+01  0.10744934188E+03  0.16138408030E+03  0.12000000000E+03 0.  0.
<mgrwt>
<rscale>  0 0.27514948E+03</rscale>
<asrwt>0</asrwt>
<pdfrwt beam="1">  1        2 0.27876471E-01 0.27514948E+03</pdfrwt>
<pdfrwt beam="2">  1       -2 0.16069889E-01 0.27514948E+03</pdfrwt>
<totfact> 0.57630492E+03</totfact>
</mgrwt>
</event>
<event>
 5    1  0.1107336E+001  0.2756707E+03  0.7818608E-02  0.1098077E+00
         -1   -1    0    0    0  501 -0.00000000000E+00  0.00000000000E+00  0.38533331838E+03  0.38533331838E+03  0.00000000000E+00 0. -1.
          1   -1    0    0  501    0  0.00000000000E+00 -0.00000000000E+00 -0.49304288456E+02  0.49304288456E+02  0.00000000000E+00 0. -1.
         35    2    1    2    0    0  0.00000000000E+00  0.00000000000E+00  0.33602902993E+03  0.43463760684E+03  0.27567070995E+03 0.  0.
         25    1    3    3    0    0  0.27584712555E+02  0.61672744146E+02  0.17722700395E+03  0.22444120537E+03  0.12000000000E+03 0.  0.
         25    1    3    3    0    0 -0.27584712555E+02 -0.61672744146E+02  0.15880202597E+03  0.21019640147E+03  0.12000000000E+03 0.  0.
<mgrwt>
<rscale>  0 0.27567071E+03</rscale>
<asrwt>0</asrwt>
<pdfrwt beam="1">  1        1 0.75852754E-02 0.27567071E+03</pdfrwt>
<pdfrwt beam="2">  1       -1 0.59282047E-01 0.27567071E+03</pdfrwt>
<totfact> 0.27740205E+03</totfact>
</mgrwt>
</event>
<event>
 5    1  0.1107336E+001  0.2751304E+03  0.7818608E-02  0.1098379E+00
          2   -1    0    0  501    0  0.00000000000E+00  0.00000000000E+00  0.58499194633E+03  0.58499194633E+03  0.00000000000E+00 0. -1.
         -2   -1    0    0    0  501 -0.00000000000E+00 -0.00000000000E+00 -0.32349471073E+02  0.32349471073E+02  0.00000000000E+00 0. -1.
         35    2    1    2    0    0  0.00000000000E+00  0.00000000000E+00  0.55264247526E+03  0.61734141741E+03  0.27513036943E+03 0.  0.
         25    1    3    3    0    0 -0.25003638637E+02 -0.56819715906E+02  0.21821910155E+03  0.25665782346E+03  0.12000000000E+03 0.  0.
         25    1    3    3    0    0  0.25003638637E+02  0.56819715906E+02  0.33442337370E+03  0.36068359394E+03  0.12000000000E+03 0.  0.
<mgrwt>
<rscale>  0 0.27513037E+03</rscale>
<asrwt>0</asrwt>
<pdfrwt beam="1">  1        2 0.89998753E-01 0.27513037E+03</pdfrwt>
<pdfrwt beam="2">  1       -2 0.49768421E-02 0.27513037E+03</pdfrwt>
<totfact> 0.10199514E+04</totfact>
</mgrwt>
</event>
<event>
 5    1  0.1107336E+001  0.2752518E+03  0.7818608E-02  0.1098311E+00
          2   -1    0    0  501    0  0.00000000000E+00  0.00000000000E+00  0.88753849617E+03  0.88753849617E+03  0.00000000000E+00 0. -1.
         -2   -1    0    0    0  501 -0.00000000000E+00 -0.00000000000E+00 -0.21340921563E+02  0.21340921563E+02  0.00000000000E+00 0. -1.
         35    2    1    2    0    0  0.00000000000E+00  0.00000000000E+00  0.86619757461E+03  0.90887941773E+03  0.27525180785E+03 0.  0.
         25    1    3    3    0    0  0.66880422243E+02 -0.82382161676E+01  0.43367400000E+03  0.45498790902E+03  0.12000000000E+03 0.  0.
         25    1    3    3    0    0 -0.66880422243E+02  0.82382161676E+01  0.43252357461E+03  0.45389150871E+03  0.12000000000E+03 0.  0.
<mgrwt>
<rscale>  0 0.27525181E+03</rscale>
<asrwt>0</asrwt>
<pdfrwt beam="1">  1        2 0.13654436E+00 0.27525181E+03</pdfrwt>
<pdfrwt beam="2">  1       -2 0.32832194E-02 0.27525181E+03</pdfrwt>
<totfact> 0.11420782E+04</totfact>
</mgrwt>
</event>
<event>
 5    1  0.1107336E+001  0.2748811E+03  0.7818608E-02  0.1098518E+00
          1   -1    0    0  501    0  0.00000000000E+00  0.00000000000E+00  0.58861719991E+02  0.58861719991E+02  0.00000000000E+00 0.  1.
         -1   -1    0    0    0  501 -0.00000000000E+00 -0.00000000000E+00 -0.32092013425E+03  0.32092013425E+03  0.00000000000E+00 0.  1.
         35    2    1    2    0    0  0.00000000000E+00  0.00000000000E+00 -0.26205841426E+03  0.37978185424E+03  0.27488114582E+03 0.  0.
         25    1    3    3    0    0 -0.38279754504E+02 -0.34394319442E+02 -0.19031998914E+03  0.23080296160E+03  0.12000000000E+03 0.  0.
         25    1    3    3    0    0  0.38279754504E+02  0.34394319442E+02 -0.71738425116E+02  0.14897889264E+03  0.12000000000E+03 0.  0.
<mgrwt>
<rscale>  0 0.27488115E+03</rscale>
<asrwt>0</asrwt>
<pdfrwt beam="1">  1        1 0.90556492E-02 0.27488115E+03</pdfrwt>
<pdfrwt beam="2">  1       -1 0.49372328E-01 0.27488115E+03</pdfrwt>
<totfact> 0.30759907E+03</totfact>
</mgrwt>
</event>
<event>
 5    1  0.1107336E+001  0.2750334E+03  0.7818608E-02  0.1098433E+00
         -2   -1    0    0    0  501 -0.00000000000E+00  0.00000000000E+00  0.37780549705E+02  0.37780549705E+02  0.00000000000E+00 0.  1.
          2   -1    0    0  501    0  0.00000000000E+00 -0.00000000000E+00 -0.50054430615E+03  0.50054430615E+03  0.00000000000E+00 0.  1.
         35    2    1    2    0    0  0.00000000000E+00  0.00000000000E+00 -0.46276375644E+03  0.53832485585E+03  0.27503337280E+03 0.  0.
         25    1    3    3    0    0 -0.20460676009E+02  0.46660231788E+02 -0.31703554974E+03  0.34279346011E+03  0.12000000000E+03 0.  0.
         25    1    3    3    0    0  0.20460676009E+02 -0.46660231788E+02 -0.14572820670E+03  0.19553139575E+03  0.12000000000E+03 0.  0.
<mgrwt>
<rscale>  0 0.27503337E+03</rscale>
<asrwt>0</asrwt>
<pdfrwt beam="1">  1        2 0.77006809E-01 0.27503337E+03</pdfrwt>
<pdfrwt beam="2">  1       -2 0.58123928E-02 0.27503337E+03</pdfrwt>
<totfact> 0.96085763E+03</totfact>
</mgrwt>
</event>
<event>
 5    1  0.1107336E+001  0.2761405E+03  0.7818608E-02  0.1097816E+00
          2   -1    0    0  501    0  0.00000000000E+00  0.00000000000E+00  0.94812977516E+02  0.94812977516E+02  0.00000000000E+00 0. -1.
         -2   -1    0    0    0  501 -0.00000000000E+00 -0.00000000000E+00 -0.20106310269E+03  0.20106310269E+03  0.00000000000E+00 0. -1.
         35    2    1    2    0    0  0.00000000000E+00  0.00000000000E+00 -0.10625012517E+03  0.29587608021E+03  0.27614048189E+03 0.  0.
         25    1    3    3    0    0  0.25166652575E+02 -0.44639128444E+02 -0.47617859482E+01  0.13057061996E+03  0.12000000000E+03 0.  0.
         25    1    3    3    0    0 -0.25166652575E+02  0.44639128444E+02 -0.10148833923E+03  0.16530546025E+03  0.12000000000E+03 0.  0.
<mgrwt>
<rscale>  0 0.27614048E+03</rscale>
<asrwt>0</asrwt>
<pdfrwt beam="1">  1        2 0.14586612E-01 0.27614048E+03</pdfrwt>
<pdfrwt beam="2">  1       -2 0.30932785E-01 0.27614048E+03</pdfrwt>
<totfact> 0.38755367E+03</totfact>
</mgrwt>
</event>
<event>
 5    1  0.1107336E+001  0.2749760E+03  0.7818608E-02  0.1098465E+00
         -4   -1    0    0    0  501 -0.00000000000E+00  0.00000000000E+00  0.35909385182E+02  0.35909385182E+02  0.00000000000E+00 0.  1.
          4   -1    0    0  501    0  0.00000000000E+00 -0.00000000000E+00 -0.52640705156E+03  0.52640705156E+03  0.00000000000E+00 0.  1.
         35    2    1    2    0    0  0.00000000000E+00  0.00000000000E+00 -0.49049766638E+03  0.56231643674E+03  0.27497602497E+03 0.  0.
         25    1    3    3    0    0  0.39541847543E+02  0.47484271182E+02 -0.19174104011E+03  0.23448441351E+03  0.12000000000E+03 0.  0.
         25    1    3    3    0    0 -0.39541847543E+02 -0.47484271182E+02 -0.29875662627E+03  0.32783202323E+03  0.12000000000E+03 0.  0.
<mgrwt>
<rscale>  0 0.27497602E+03</rscale>
<asrwt>0</asrwt>
<pdfrwt beam="1">  1        4 0.80985699E-01 0.27497602E+03</pdfrwt>
<pdfrwt beam="2">  1       -4 0.55245208E-02 0.27497602E+03</pdfrwt>
<totfact> 0.52587474E+02</totfact>
</mgrwt>
</event>
<event>
 5    1  0.1107336E+001  0.2750735E+03  0.7818608E-02  0.1098411E+00
         -2   -1    0    0    0  501 -0.00000000000E+00  0.00000000000E+00  0.63839718156E+02  0.63839718156E+02  0.00000000000E+00 0.  1.
          2   -1    0    0  501    0  0.00000000000E+00 -0.00000000000E+00 -0.29631023069E+03  0.29631023069E+03  0.00000000000E+00 0.  1.
         35    2    1    2    0    0  0.00000000000E+00  0.00000000000E+00 -0.23247051253E+03  0.36014994884E+03  0.27507352918E+03 0.  0.
         25    1    3    3    0    0 -0.57339834554E+02  0.24309562919E+02 -0.83176102694E+02  0.15873586720E+03  0.12000000000E+03 0.  0.
         25    1    3    3    0    0  0.57339834554E+02 -0.24309562919E+02 -0.14929440984E+03  0.20141408165E+03  0.12000000000E+03 0.  0.
<mgrwt>
<rscale>  0 0.27507353E+03</rscale>
<asrwt>0</asrwt>
<pdfrwt beam="1">  1        2 0.45586190E-01 0.27507353E+03</pdfrwt>
<pdfrwt beam="2">  1       -2 0.98214950E-02 0.27507353E+03</pdfrwt>
<totfact> 0.75122014E+03</totfact>
</mgrwt>
</event>
<event>
 5    1  0.1107336E+001  0.2745876E+03  0.7818608E-02  0.1098682E+00
          1   -1    0    0  501    0  0.00000000000E+00  0.00000000000E+00  0.27524940430E+02  0.27524940430E+02  0.00000000000E+00 0.  1.
         -1   -1    0    0    0  501 -0.00000000000E+00 -0.00000000000E+00 -0.68481839581E+03  0.68481839581E+03  0.00000000000E+00 0.  1.
         35    2    1    2    0    0  0.00000000000E+00  0.00000000000E+00 -0.65729345538E+03  0.71234333625E+03  0.27458758567E+03 0.  0.
         25    1    3    3    0    0  0.11311379302E+02 -0.65376775643E+02 -0.34652913222E+03  0.37267212074E+03  0.12000000000E+03 0.  0.
         25    1    3    3    0    0 -0.11311379302E+02  0.65376775643E+02 -0.31076432316E+03  0.33967121551E+03  0.12000000000E+03 0.  0.
<mgrwt>
<rscale>  0 0.27458759E+03</rscale>
<asrwt>0</asrwt>
<pdfrwt beam="1">  1        1 0.42346065E-02 0.27458759E+03</pdfrwt>
<pdfrwt beam="2">  1       -1 0.10535667E+00 0.27458759E+03</pdfrwt>
<totfact> 0.18787353E+03</totfact>
</mgrwt>
</event>
<event>
 5    1  0.1107336E+001  0.2766757E+03  0.7818608E-02  0.1097519E+00
          2   -1    0    0  501    0  0.00000000000E+00  0.00000000000E+00  0.22068264718E+03  0.22068264718E+03  0.00000000000E+00 0. -1.
         -2   -1    0    0    0  501 -0.00000000000E+00 -0.00000000000E+00 -0.86718916330E+02  0.86718916330E+02  0.00000000000E+00 0. -1.
         35    2    1    2    0    0  0.00000000000E+00  0.00000000000E+00  0.13396373085E+03  0.30740156351E+03  0.27667569475E+03 0.  0.
         25    1    3    3    0    0  0.47122502054E+02 -0.36717749296E+02  0.10496360258E+03  0.17025299169E+03  0.12000000000E+03 0.  0.
         25    1    3    3    0    0 -0.47122502054E+02  0.36717749296E+02  0.29000128275E+02  0.13714857182E+03  0.12000000000E+03 0.  0.
<mgrwt>
<rscale>  0 0.27667569E+03</rscale>
<asrwt>0</asrwt>
<pdfrwt beam="1">  1        2 0.33951176E-01 0.27667569E+03</pdfrwt>
<pdfrwt beam="2">  1       -2 0.13341372E-01 0.27667569E+03</pdfrwt>
<totfact> 0.63112917E+03</totfact>
</mgrwt>
</event>
<event>
 5    1  0.1107336E+001  0.2749968E+03  0.7818608E-02  0.1098453E+00
         -4   -1    0    0    0  501 -0.00000000000E+00  0.00000000000E+00  0.84051919580E+02  0.84051919580E+02  0.00000000000E+00 0. -1.
          4   -1    0    0  501    0  0.00000000000E+00 -0.00000000000E+00 -0.22493005991E+03  0.22493005991E+03  0.00000000000E+00 0. -1.
         35    2    1    2    0    0  0.00000000000E+00  0.00000000000E+00 -0.14087814033E+03  0.30898197949E+03  0.27499675130E+03 0.  0.
         25    1    3    3    0    0  0.63840175247E+02 -0.10312226961E+01 -0.93715760710E+02  0.16510383158E+03  0.12000000000E+03 0.  0.
         25    1    3    3    0    0 -0.63840175247E+02  0.10312226961E+01 -0.47162379620E+02  0.14387814791E+03  0.12000000000E+03 0.  0.
<mgrwt>
<rscale>  0 0.27499675E+03</rscale>
<asrwt>0</asrwt>
<pdfrwt beam="1">  1        4 0.34604625E-01 0.27499675E+03</pdfrwt>
<pdfrwt beam="2">  1       -4 0.12931064E-01 0.27499675E+03</pdfrwt>
<totfact> 0.74007625E+02</totfact>
</mgrwt>
</event>
<event>
 5    1  0.1107336E+001  0.2743846E+03  0.7818608E-02  0.1098796E+00
         -1   -1    0    0    0  501 -0.00000000000E+00  0.00000000000E+00  0.10695317671E+03  0.10695317671E+03  0.00000000000E+00 0.  1.
          1   -1    0    0  501    0  0.00000000000E+00 -0.00000000000E+00 -0.17598095148E+03  0.17598095148E+03  0.00000000000E+00 0.  1.
         35    2    1    2    0    0  0.00000000000E+00  0.00000000000E+00 -0.69027774770E+02  0.28293412820E+03  0.27438456080E+03 0.  0.
         25    1    3    3    0    0  0.42984886279E+02  0.35624126197E+02 -0.71763472023E+02  0.15055488943E+03  0.12000000000E+03 0.  0.
         25    1    3    3    0    0 -0.42984886279E+02 -0.35624126197E+02  0.27356972529E+01  0.13237923876E+03  0.12000000000E+03 0.  0.
<mgrwt>
<rscale>  0 0.27438456E+03</rscale>
<asrwt>0</asrwt>
<pdfrwt beam="1">  1        1 0.27073992E-01 0.27438456E+03</pdfrwt>
<pdfrwt beam="2">  1       -1 0.16454335E-01 0.27438456E+03</pdfrwt>
<totfact> 0.47509455E+03</totfact>
</mgrwt>
</event>
<event>
 5    1  0.1107336E+001  0.2746806E+03  0.7818608E-02  0.1098630E+00
         -1   -1    0    0    0  501 -0.00000000000E+00  0.00000000000E+00  0.32598277170E+02  0.32598277170E+02  0.00000000000E+00 0. -1.
          1   -1    0    0  501    0  0.00000000000E+00 -0.00000000000E+00 -0.57863053347E+03  0.57863053347E+03  0.00000000000E+00 0. -1.
         35    2    1    2    0    0  0.00000000000E+00  0.00000000000E+00 -0.54603225630E+03  0.61122881064E+03  0.27468060368E+03 0.  0.
         25    1    3    3    0    0 -0.43073413374E+02 -0.50861390830E+02 -0.26302522271E+03  0.29668917709E+03  0.12000000000E+03 0.  0.
         25    1    3    3    0    0  0.43073413374E+02  0.50861390830E+02 -0.28300703359E+03  0.31453963355E+03  0.12000000000E+03 0.  0.
<mgrwt>
<rscale>  0 0.27468060E+03</rscale>
<asrwt>0</asrwt>
<pdfrwt beam="1">  1        1 0.89020077E-01 0.27468060E+03</pdfrwt>
<pdfrwt beam="2">  1       -1 0.50151199E-02 0.27468060E+03</pdfrwt>
<totfact> 0.64561310E+03</totfact>
</mgrwt>
</event>
<event>
 5    1  0.1107336E+001  0.2731710E+03  0.7818608E-02  0.1099478E+00
          1   -1    0    0  501    0  0.00000000000E+00  0.00000000000E+00  0.55896453161E+03  0.55896453161E+03  0.00000000000E+00 0. -1.
         -1   -1    0    0    0  501 -0.00000000000E+00 -0.00000000000E+00 -0.33375270119E+02  0.33375270119E+02  0.00000000000E+00 0. -1.
         35    2    1    2    0    0  0.00000000000E+00  0.00000000000E+00  0.52558926150E+03  0.59233980173E+03  0.27317095182E+03 0.  0.
         25    1    3    3    0    0  0.27687117567E+02 -0.36686300730E+02  0.36317776881E+03  0.38524090242E+03  0.12000000000E+03 0.  0.
         25    1    3    3    0    0 -0.27687117567E+02  0.36686300730E+02  0.16241149269E+03  0.20709889932E+03  0.12000000000E+03 0.  0.
<mgrwt>
<rscale>  0 0.27317095E+03</rscale>
<asrwt>0</asrwt>
<pdfrwt beam="1">  1        1 0.85994536E-01 0.27317095E+03</pdfrwt>
<pdfrwt beam="2">  1       -1 0.51346574E-02 0.27317095E+03</pdfrwt>
<totfact> 0.65331563E+03</totfact>
</mgrwt>
</event>
<event>
 5    1  0.1107336E+001  0.2745622E+03  0.7818608E-02  0.1098697E+00
         -3   -1    0    0    0  501 -0.00000000000E+00  0.00000000000E+00  0.14807187992E+03  0.14807187992E+03  0.00000000000E+00 0. -1.
          3   -1    0    0  501    0  0.00000000000E+00 -0.00000000000E+00 -0.12727667965E+03  0.12727667965E+03  0.00000000000E+00 0. -1.
         35    2    1    2    0    0  0.00000000000E+00  0.00000000000E+00  0.20795200276E+02  0.27534855957E+03  0.27456217675E+03 0.  0.
         25    1    3    3    0    0 -0.39815155894E+02 -0.31942700851E+02  0.53421692303E+02  0.14092359627E+03  0.12000000000E+03 0.  0.
         25    1    3    3    0    0  0.39815155894E+02  0.31942700851E+02 -0.32626492027E+02  0.13442496330E+03  0.12000000000E+03 0.  0.
<mgrwt>
<rscale>  0 0.27456218E+03</rscale>
<asrwt>0</asrwt>
<pdfrwt beam="1">  1        3 0.19581028E-01 0.27456218E+03</pdfrwt>
<pdfrwt beam="2">  1       -3 0.22780289E-01 0.27456218E+03</pdfrwt>
<totfact> 0.10534962E+03</totfact>
</mgrwt>
</event>
<event>
 5    1  0.1107336E+001  0.2733645E+03  0.7818608E-02  0.1099369E+00
         -2   -1    0    0    0  501 -0.00000000000E+00  0.00000000000E+00  0.11389498002E+02  0.11389498002E+02  0.00000000000E+00 0. -1.
          2   -1    0    0  501    0  0.00000000000E+00 -0.00000000000E+00 -0.16402858097E+04  0.16402858097E+04  0.00000000000E+00 0. -1.
         35    2    1    2    0    0  0.00000000000E+00  0.00000000000E+00 -0.16288963117E+04  0.16516753077E+04  0.27336445966E+03 0.  0.
         25    1    3    3    0    0  0.59147467247E+02 -0.13036666452E+02 -0.66477478115E+03  0.67822849189E+03  0.12000000000E+03 0.  0.
         25    1    3    3    0    0 -0.59147467247E+02  0.13036666452E+02 -0.96412153052E+03  0.97344681578E+03  0.12000000000E+03 0.  0.
<mgrwt>
<rscale>  0 0.27336446E+03</rscale>
<asrwt>0</asrwt>
<pdfrwt beam="1">  1        2 0.25235150E+00 0.27336446E+03</pdfrwt>
<pdfrwt beam="2">  1       -2 0.17522316E-02 0.27336446E+03</pdfrwt>
<totfact> 0.10788420E+04</totfact>
</mgrwt>
</event>
<event>
 5    1  0.1107336E+001  0.2763279E+03  0.7818608E-02  0.1097712E+00
          2   -1    0    0  501    0  0.00000000000E+00  0.00000000000E+00  0.23885162011E+04  0.23885162011E+04  0.00000000000E+00 0. -1.
         -2   -1    0    0    0  501 -0.00000000000E+00 -0.00000000000E+00 -0.79921067523E+01  0.79921067523E+01  0.00000000000E+00 0. -1.
         35    2    1    2    0    0  0.00000000000E+00  0.00000000000E+00  0.23805240944E+04  0.23965083079E+04  0.27632789551E+03 0.  0.
         25    1    3    3    0    0 -0.33622556851E+02 -0.38429791865E+02  0.79454069443E+03  0.80517218056E+03  0.12000000000E+03 0.  0.
         25    1    3    3    0    0  0.33622556851E+02  0.38429791865E+02  0.15859833999E+04  0.15913361273E+04  0.12000000000E+03 0.  0.
<mgrwt>
<rscale>  0 0.27632790E+03</rscale>
<asrwt>0</asrwt>
<pdfrwt beam="1">  1        2 0.36746346E+00 0.27632790E+03</pdfrwt>
<pdfrwt beam="2">  1       -2 0.12295568E-02 0.27632790E+03</pdfrwt>
<totfact> 0.72782672E+03</totfact>
</mgrwt>
</event>
<event>
 5    1  0.1107336E+001  0.2750324E+03  0.7818608E-02  0.1098433E+00
         -2   -1    0    0    0  501 -0.00000000000E+00  0.00000000000E+00  0.13381039777E+02  0.13381039777E+02  0.00000000000E+00 0.  1.
          2   -1    0    0  501    0  0.00000000000E+00 -0.00000000000E+00 -0.14132465492E+04  0.14132465492E+04  0.00000000000E+00 0.  1.
         35    2    1    2    0    0  0.00000000000E+00  0.00000000000E+00 -0.13998655094E+04  0.14266275889E+04  0.27503242201E+03 0.  0.
         25    1    3    3    0    0  0.27498382462E+02 -0.63801602819E+01 -0.38382265849E+03  0.40313360150E+03  0.12000000000E+03 0.  0.
         25    1    3    3    0    0 -0.27498382462E+02  0.63801602819E+01 -0.10160428509E+04  0.10234939874E+04  0.12000000000E+03 0.  0.
<mgrwt>
<rscale>  0 0.27503242E+03</rscale>
<asrwt>0</asrwt>
<pdfrwt beam="1">  1        2 0.21742252E+00 0.27503242E+03</pdfrwt>
<pdfrwt beam="2">  1       -2 0.20586218E-02 0.27503242E+03</pdfrwt>
<totfact> 0.11257188E+04</totfact>
</mgrwt>
</event>
<event>
 5    1  0.1107336E+001  0.2741025E+03  0.7818608E-02  0.1098954E+00
          1   -1    0    0  501    0  0.00000000000E+00  0.00000000000E+00  0.82866254725E+03  0.82866254725E+03  0.00000000000E+00 0.  1.
         -1   -1    0    0    0  501 -0.00000000000E+00 -0.00000000000E+00 -0.22666691457E+02  0.22666691457E+02  0.00000000000E+00 0.  1.
         35    2    1    2    0    0  0.00000000000E+00  0.00000000000E+00  0.80599585579E+03  0.85132923870E+03  0.27410245004E+03 0.  0.
         25    1    3    3    0    0 -0.54430244812E+02  0.10718467551E+02  0.51521870371E+03  0.53190962555E+03  0.12000000000E+03 0.  0.
         25    1    3    3    0    0  0.54430244812E+02 -0.10718467551E+02  0.29077715208E+03  0.31941961315E+03  0.12000000000E+03 0.  0.
<mgrwt>
<rscale>  0 0.27410245E+03</rscale>
<asrwt>0</asrwt>
<pdfrwt beam="1">  1        1 0.12748652E+00 0.27410245E+03</pdfrwt>
<pdfrwt beam="2">  1       -1 0.34871839E-02 0.27410245E+03</pdfrwt>
<totfact> 0.65676611E+03</totfact>
</mgrwt>
</event>
<event>
 4    1  0.1107336E+001  0.2915592E+03  0.7818608E-02  0.1089538E+00
          4   -1    0    0  501    0  0.00000000000E+00  0.00000000000E+00  0.34091365742E+03  0.34091365742E+03  0.00000000000E+00 0.  1.
         -4   -1    0    0    0  501 -0.00000000000E+00 -0.00000000000E+00 -0.62337447628E+02  0.62337447628E+02  0.00000000000E+00 0.  1.
         25    1    1    2    0    0 -0.31528138715E+02  0.17126666619E+02  0.36117558201E+02  0.13035269177E+03  0.12000000000E+03 0.  0.
         25    1    1    2    0    0  0.31528138715E+02 -0.17126666619E+02  0.24245865159E+03  0.27289841328E+03  0.12000000000E+03 0.  0.
<mgrwt>
<rscale>  0 0.29155917E+03</rscale>
<asrwt>0</asrwt>
<pdfrwt beam="1">  1        4 0.52448254E-01 0.29155917E+03</pdfrwt>
<pdfrwt beam="2">  1       -4 0.95903767E-02 0.29155917E+03</pdfrwt>
<totfact> 0.54040334E+02</totfact>
</mgrwt>
</event>
<event>
 5    1  0.1107336E+001  0.2743083E+03  0.7818608E-02  0.1098839E+00
          2   -1    0    0  501    0  0.00000000000E+00  0.00000000000E+00  0.66174234861E+03  0.66174234861E+03  0.00000000000E+00 0.  1.
         -2   -1    0    0    0  501 -0.00000000000E+00 -0.00000000000E+00 -0.28426858496E+02  0.28426858496E+02  0.00000000000E+00 0.  1.
         35    2    1    2    0    0  0.00000000000E+00  0.00000000000E+00  0.63331549011E+03  0.69016920710E+03  0.27430826531E+03 0.  0.
         25    1    3    3    0    0 -0.48544718388E+02 -0.30943437562E+02  0.39999777756E+03  0.42155937668E+03  0.12000000000E+03 0.  0.
         25    1    3    3    0    0  0.48544718388E+02  0.30943437562E+02  0.23331771255E+03  0.26860983042E+03  0.12000000000E+03 0.  0.
<mgrwt>
<rscale>  0 0.27430827E+03</rscale>
<asrwt>0</asrwt>
<pdfrwt beam="1">  1        2 0.10180650E+00 0.27430827E+03</pdfrwt>
<pdfrwt beam="2">  1       -2 0.43733634E-02 0.27430827E+03</pdfrwt>
<totfact> 0.10734243E+04</totfact>
</mgrwt>
</event>
<event>
 5    1  0.1107336E+001  0.2729814E+03  0.7818608E-02  0.1099585E+00
          2   -1    0    0  501    0  0.00000000000E+00  0.00000000000E+00  0.20667869192E+03  0.20667869192E+03  0.00000000000E+00 0. -1.
         -2   -1    0    0    0  501 -0.00000000000E+00 -0.00000000000E+00 -0.90138524107E+02  0.90138524107E+02  0.00000000000E+00 0. -1.
         35    2    1    2    0    0  0.00000000000E+00  0.00000000000E+00  0.11654016782E+03  0.29681721603E+03  0.27298140783E+03 0.  0.
         25    1    3    3    0    0  0.24830426796E+02  0.20599817066E+02  0.11967035931E+03  0.17251636866E+03  0.12000000000E+03 0.  0.
         25    1    3    3    0    0 -0.24830426796E+02 -0.20599817066E+02 -0.31301914973E+01  0.12430084737E+03  0.12000000000E+03 0.  0.
<mgrwt>
<rscale>  0 0.27298141E+03</rscale>
<asrwt>0</asrwt>
<pdfrwt beam="1">  1        2 0.31796722E-01 0.27298141E+03</pdfrwt>
<pdfrwt beam="2">  1       -2 0.13867465E-01 0.27298141E+03</pdfrwt>
<totfact> 0.63602719E+03</totfact>
</mgrwt>
</event>
<event>
 5    1  0.1107336E+001  0.2752418E+03  0.7818608E-02  0.1098317E+00
         -2   -1    0    0    0  501 -0.00000000000E+00  0.00000000000E+00  0.19809875747E+02  0.19809875747E+02  0.00000000000E+00 0. -1.
          2   -1    0    0  501    0  0.00000000000E+00 -0.00000000000E+00 -0.95606387008E+03  0.95606387008E+03  0.00000000000E+00 0. -1.
         35    2    1    2    0    0  0.00000000000E+00  0.00000000000E+00 -0.93625399434E+03  0.97587374583E+03  0.27524175899E+03 0.  0.
         25    1    3    3    0    0  0.22210813340E+02 -0.63513785315E+02 -0.45575049978E+03  0.47606285215E+03  0.12000000000E+03 0.  0.
         25    1    3    3    0    0 -0.22210813340E+02  0.63513785315E+02 -0.48050349456E+03  0.49981089368E+03  0.12000000000E+03 0.  0.
<mgrwt>
<rscale>  0 0.27524176E+03</rscale>
<asrwt>0</asrwt>
<pdfrwt beam="1">  1        2 0.14708674E+00 0.27524176E+03</pdfrwt>
<pdfrwt beam="2">  1       -2 0.30476735E-02 0.27524176E+03</pdfrwt>
<totfact> 0.11539223E+04</totfact>
</mgrwt>
</event>
<event>
 5    1  0.1107336E+001  0.2715933E+03  0.7818608E-02  0.1100371E+00
          2   -1    0    0  501    0  0.00000000000E+00  0.00000000000E+00  0.10092203724E+02  0.10092203724E+02  0.00000000000E+00 0.  1.
         -2   -1    0    0    0  501 -0.00000000000E+00 -0.00000000000E+00 -0.18272248728E+04  0.18272248728E+04  0.00000000000E+00 0.  1.
         35    2    1    2    0    0  0.00000000000E+00  0.00000000000E+00 -0.18171326691E+04  0.18373170766E+04  0.27159326697E+03 0.  0.
         25    1    3    3    0    0 -0.34576913193E+02  0.51893424625E+02 -0.82509782030E+03  0.83610699286E+03  0.12000000000E+03 0.  0.
         25    1    3    3    0    0  0.34576913193E+02 -0.51893424625E+02 -0.99203484882E+03  0.10012100837E+04  0.12000000000E+03 0.  0.
<mgrwt>
<rscale>  0 0.27159327E+03</rscale>
<asrwt>0</asrwt>
<pdfrwt beam="1">  1        2 0.15526471E-02 0.27159327E+03</pdfrwt>
<pdfrwt beam="2">  1       -2 0.28111145E+00 0.27159327E+03</pdfrwt>
<totfact> 0.36746889E+02</totfact>
</mgrwt>
</event>
<event>
 5    1  0.1107336E+001  0.2774071E+03  0.7818608E-02  0.1097114E+00
         -2   -1    0    0    0  501 -0.00000000000E+00  0.00000000000E+00  0.12510155366E+03  0.12510155366E+03  0.00000000000E+00 0. -1.
          2   -1    0    0  501    0  0.00000000000E+00 -0.00000000000E+00 -0.15378449372E+03  0.15378449372E+03  0.00000000000E+00 0. -1.
         35    2    1    2    0    0  0.00000000000E+00  0.00000000000E+00 -0.28682940061E+02  0.27888604737E+03  0.27740713107E+03 0.  0.
         25    1    3    3    0    0 -0.24556449742E+02 -0.23126156507E+02 -0.75500327718E+02  0.14573310476E+03  0.12000000000E+03 0.  0.
         25    1    3    3    0    0  0.24556449742E+02  0.23126156507E+02  0.46817387657E+02  0.13315294261E+03  0.12000000000E+03 0.  0.
<mgrwt>
<rscale>  0 0.27740713E+03</rscale>
<asrwt>0</asrwt>
<pdfrwt beam="1">  1        2 0.23659153E-01 0.27740713E+03</pdfrwt>
<pdfrwt beam="2">  1       -2 0.19246393E-01 0.27740713E+03</pdfrwt>
<totfact> 0.51091506E+03</totfact>
</mgrwt>
</event>
<event>
 5    1  0.1107336E+001  0.2751720E+03  0.7818608E-02  0.1098355E+00
          4   -1    0    0  501    0  0.00000000000E+00  0.00000000000E+00  0.63670086959E+03  0.63670086959E+03  0.00000000000E+00 0. -1.
         -4   -1    0    0    0  501 -0.00000000000E+00 -0.00000000000E+00 -0.29731242242E+02  0.29731242242E+02  0.00000000000E+00 0. -1.
         35    2    1    2    0    0  0.00000000000E+00  0.00000000000E+00  0.60696962734E+03  0.66643211183E+03  0.27517200286E+03 0.  0.
         25    1    3    3    0    0 -0.32518957414E+02 -0.40199489490E+02  0.19913527824E+03  0.23817712020E+03  0.12000000000E+03 0.  0.
         25    1    3    3    0    0  0.32518957414E+02  0.40199489490E+02  0.40783434910E+03  0.42825499163E+03  0.12000000000E+03 0.  0.
<mgrwt>
<rscale>  0 0.27517200E+03</rscale>
<asrwt>0</asrwt>
<pdfrwt beam="1">  1        4 0.97953970E-01 0.27517200E+03</pdfrwt>
<pdfrwt beam="2">  1       -4 0.45740377E-02 0.27517200E+03</pdfrwt>
<totfact> 0.46272967E+02</totfact>
</mgrwt>
</event>
<event>
 5    1  0.1107336E+001  0.2743846E+03  0.7818608E-02  0.1098796E+00
         -1   -1    0    0    0  501 -0.00000000000E+00  0.00000000000E+00  0.16733639001E+02  0.16733639001E+02  0.00000000000E+00 0.  1.
          1   -1    0    0  501    0  0.00000000000E+00 -0.00000000000E+00 -0.11247835589E+04  0.11247835589E+04  0.00000000000E+00 0.  1.
         35    2    1    2    0    0  0.00000000000E+00  0.00000000000E+00 -0.11080499199E+04  0.11415171979E+04  0.27438456245E+03 0.  0.
         25    1    3    3    0    0  0.18631430861E+02 -0.50292079661E+02 -0.39048308135E+03  0.41201148081E+03  0.12000000000E+03 0.  0.
         25    1    3    3    0    0 -0.18631430861E+02  0.50292079661E+02 -0.71756683854E+03  0.72950571708E+03  0.12000000000E+03 0.  0.
<mgrwt>
<rscale>  0 0.27438456E+03</rscale>
<asrwt>0</asrwt>
<pdfrwt beam="1">  1        1 0.17304366E+00 0.27438456E+03</pdfrwt>
<pdfrwt beam="2">  1       -1 0.25744055E-02 0.27438456E+03</pdfrwt>
<totfact> 0.61215257E+03</totfact>
</mgrwt>
</event>
<event>
 5    1  0.1107336E+001  0.2753411E+03  0.7818608E-02  0.1098261E+00
          2   -1    0    0  501    0  0.00000000000E+00  0.00000000000E+00  0.20014242835E+02  0.20014242835E+02  0.00000000000E+00 0.  1.
         -2   -1    0    0    0  501 -0.00000000000E+00 -0.00000000000E+00 -0.94698467598E+03  0.94698467598E+03  0.00000000000E+00 0.  1.
         35    2    1    2    0    0  0.00000000000E+00  0.00000000000E+00 -0.92697043315E+03  0.96699891882E+03  0.27534110675E+03 0.  0.
         25    1    3    3    0    0 -0.51936356620E+02  0.43053404548E+02 -0.46869493299E+03  0.48849352196E+03  0.12000000000E+03 0.  0.
         25    1    3    3    0    0  0.51936356620E+02 -0.43053404548E+02 -0.45827550016E+03  0.47850539686E+03  0.12000000000E+03 0.  0.
<mgrwt>
<rscale>  0 0.27534111E+03</rscale>
<asrwt>0</asrwt>
<pdfrwt beam="1">  1        2 0.30791145E-02 0.27534111E+03</pdfrwt>
<pdfrwt beam="2">  1       -2 0.14568994E+00 0.27534111E+03</pdfrwt>
<totfact> 0.10338819E+03</totfact>
</mgrwt>
</event>
<event>
 5    1  0.1107336E+001  0.2754580E+03  0.7818608E-02  0.1098196E+00
          2   -1    0    0  501    0  0.00000000000E+00  0.00000000000E+00  0.19408728347E+03  0.19408728347E+03  0.00000000000E+00 0. -1.
         -2   -1    0    0    0  501 -0.00000000000E+00 -0.00000000000E+00 -0.97735804203E+02  0.97735804203E+02  0.00000000000E+00 0. -1.
         35    2    1    2    0    0  0.00000000000E+00  0.00000000000E+00  0.96351479266E+02  0.29182308767E+03  0.27545799488E+03 0.  0.
         25    1    3    3    0    0 -0.43820579007E+02  0.48105450531E+02  0.28788260900E+02  0.13951036335E+03  0.12000000000E+03 0.  0.
         25    1    3    3    0    0  0.43820579007E+02 -0.48105450531E+02  0.67563218367E+02  0.15231272433E+03  0.12000000000E+03 0.  0.
<mgrwt>
<rscale>  0 0.27545799E+03</rscale>
<asrwt>0</asrwt>
<pdfrwt beam="1">  1        2 0.29859582E-01 0.27545799E+03</pdfrwt>
<pdfrwt beam="2">  1       -2 0.15036278E-01 0.27545799E+03</pdfrwt>
<totfact> 0.59661300E+03</totfact>
</mgrwt>
</event>
<event>
 5    1  0.1107336E+001  0.2750515E+03  0.7818608E-02  0.1098423E+00
         -2   -1    0    0    0  501 -0.00000000000E+00  0.00000000000E+00  0.63202612215E+02  0.63202612215E+02  0.00000000000E+00 0. -1.
          2   -1    0    0  501    0  0.00000000000E+00 -0.00000000000E+00 -0.29924918064E+03  0.29924918064E+03  0.00000000000E+00 0. -1.
         35    2    1    2    0    0  0.00000000000E+00  0.00000000000E+00 -0.23604656842E+03  0.36245179285E+03  0.27505148550E+03 0.  0.
         25    1    3    3    0    0  0.61463991591E+02 -0.26712493913E+02 -0.11184942467E+03  0.17720517315E+03  0.12000000000E+03 0.  0.
         25    1    3    3    0    0 -0.61463991591E+02  0.26712493913E+02 -0.12419714375E+03  0.18524661970E+03  0.12000000000E+03 0.  0.
<mgrwt>
<rscale>  0 0.27505149E+03</rscale>
<asrwt>0</asrwt>
<pdfrwt beam="1">  1        2 0.46038335E-01 0.27505149E+03</pdfrwt>
<pdfrwt beam="2">  1       -2 0.97234788E-02 0.27505149E+03</pdfrwt>
<totfact> 0.75520882E+03</totfact>
</mgrwt>
</event>
<event>
 5    1  0.1107336E+001  0.2751193E+03  0.7818608E-02  0.1098385E+00
          2   -1    0    0  501    0  0.00000000000E+00  0.00000000000E+00  0.41321219556E+03  0.41321219556E+03  0.00000000000E+00 0. -1.
         -2   -1    0    0    0  501 -0.00000000000E+00 -0.00000000000E+00 -0.45794034839E+02  0.45794034839E+02  0.00000000000E+00 0. -1.
         35    2    1    2    0    0  0.00000000000E+00  0.00000000000E+00  0.36741816072E+03  0.45900623040E+03  0.27511927362E+03 0.  0.
         25    1    3    3    0    0  0.38429485321E+01  0.43638006284E+02  0.98578515321E+02  0.16135912595E+03  0.12000000000E+03 0.  0.
         25    1    3    3    0    0 -0.38429485321E+01 -0.43638006284E+02  0.26883964540E+03  0.29764710445E+03  0.12000000000E+03 0.  0.
<mgrwt>
<rscale>  0 0.27511927E+03</rscale>
<asrwt>0</asrwt>
<pdfrwt beam="1">  1        2 0.63571104E-01 0.27511927E+03</pdfrwt>
<pdfrwt beam="2">  1       -2 0.70452364E-02 0.27511927E+03</pdfrwt>
<totfact> 0.88281871E+03</totfact>
</mgrwt>
</event>
<event>
 5    1  0.1107336E+001  0.2755587E+03  0.7818608E-02  0.1098140E+00
          2   -1    0    0  501    0  0.00000000000E+00  0.00000000000E+00  0.87827249372E+02  0.87827249372E+02  0.00000000000E+00 0.  1.
         -2   -1    0    0    0  501 -0.00000000000E+00 -0.00000000000E+00 -0.21614183544E+03  0.21614183544E+03  0.00000000000E+00 0.  1.
         35    2    1    2    0    0  0.00000000000E+00  0.00000000000E+00 -0.12831458606E+03  0.30396908481E+03  0.27555865351E+03 0.  0.
         25    1    3    3    0    0  0.45449969269E+01 -0.27102522774E+02 -0.13240654163E+03  0.18079462383E+03  0.12000000000E+03 0.  0.
         25    1    3    3    0    0 -0.45449969269E+01  0.27102522774E+02  0.40919555677E+01  0.12317446098E+03  0.12000000000E+03 0.  0.
<mgrwt>
<rscale>  0 0.27555865E+03</rscale>
<asrwt>0</asrwt>
<pdfrwt beam="1">  1        2 0.13511885E-01 0.27555865E+03</pdfrwt>
<pdfrwt beam="2">  1       -2 0.33252590E-01 0.27555865E+03</pdfrwt>
<totfact> 0.37182550E+03</totfact>
</mgrwt>
</event>
<event>
 5    1  0.1107336E+001  0.2743430E+03  0.7818608E-02  0.1098819E+00
          1   -1    0    0  501    0  0.00000000000E+00  0.00000000000E+00  0.51134327075E+03  0.51134327075E+03  0.00000000000E+00 0.  1.
         -1   -1    0    0    0  501 -0.00000000000E+00 -0.00000000000E+00 -0.36797230265E+02  0.36797230265E+02  0.00000000000E+00 0.  1.
         35    2    1    2    0    0  0.00000000000E+00  0.00000000000E+00  0.47454604049E+03  0.54814050102E+03  0.27434296840E+03 0.  0.
         25    1    3    3    0    0 -0.13301237033E+02 -0.13770870045E+02  0.11012885997E+03  0.16399672426E+03  0.12000000000E+03 0.  0.
         25    1    3    3    0    0  0.13301237033E+02  0.13770870045E+02  0.36441718052E+03  0.38414377676E+03  0.12000000000E+03 0.  0.
<mgrwt>
<rscale>  0 0.27434297E+03</rscale>
<asrwt>0</asrwt>
<pdfrwt beam="1">  1        1 0.78668191E-01 0.27434297E+03</pdfrwt>
<pdfrwt beam="2">  1       -1 0.56611127E-02 0.27434297E+03</pdfrwt>
<totfact> 0.63627653E+03</totfact>
</mgrwt>
</event>
<event>
 5    1  0.1107336E+001  0.2768814E+03  0.7818608E-02  0.1097405E+00
          1   -1    0    0  501    0  0.00000000000E+00  0.00000000000E+00  0.15234464581E+03  0.15234464581E+03  0.00000000000E+00 0. -1.
         -1   -1    0    0    0  501 -0.00000000000E+00 -0.00000000000E+00 -0.12580575024E+03  0.12580575024E+03  0.00000000000E+00 0. -1.
         35    2    1    2    0    0  0.00000000000E+00  0.00000000000E+00  0.26538895567E+02  0.27815039605E+03  0.27688143644E+03 0.  0.
         25    1    3    3    0    0 -0.54386819043E+02  0.58490635156E+01  0.55577720347E+02  0.14311191645E+03  0.12000000000E+03 0.  0.
         25    1    3    3    0    0  0.54386819043E+02 -0.58490635156E+01 -0.29038824780E+02  0.13503847961E+03  0.12000000000E+03 0.  0.
<mgrwt>
<rscale>  0 0.27688144E+03</rscale>
<asrwt>0</asrwt>
<pdfrwt beam="1">  1        1 0.23437638E-01 0.27688144E+03</pdfrwt>
<pdfrwt beam="2">  1       -1 0.19354731E-01 0.27688144E+03</pdfrwt>
<totfact> 0.43969684E+03</totfact>
</mgrwt>
</event>
<event>
 5    1  0.1107336E+001  0.2751003E+03  0.7818608E-02  0.1098396E+00
         -2   -1    0    0    0  501 -0.00000000000E+00  0.00000000000E+00  0.54116662354E+03  0.54116662354E+03  0.00000000000E+00 0.  1.
          2   -1    0    0  501    0  0.00000000000E+00 -0.00000000000E+00 -0.34961596046E+02  0.34961596046E+02  0.00000000000E+00 0.  1.
         35    2    1    2    0    0  0.00000000000E+00  0.00000000000E+00  0.50620502749E+03  0.57612821958E+03  0.27510033723E+03 0.  0.
         25    1    3    3    0    0 -0.17826285118E+02  0.36994388027E+02  0.14162070206E+03  0.19011255729E+03  0.12000000000E+03 0.  0.
         25    1    3    3    0    0  0.17826285118E+02 -0.36994388027E+02  0.36458432543E+03  0.38601566230E+03  0.12000000000E+03 0.  0.
<mgrwt>
<rscale>  0 0.27510034E+03</rscale>
<asrwt>0</asrwt>
<pdfrwt beam="1">  1        2 0.53787075E-02 0.27510034E+03</pdfrwt>
<pdfrwt beam="2">  1       -2 0.83256397E-01 0.27510034E+03</pdfrwt>
<totfact> 0.18565388E+03</totfact>
</mgrwt>
</event>
<event>
 5    1  0.1107336E+001  0.2715424E+03  0.7818608E-02  0.1100400E+00
          2   -1    0    0  501    0  0.00000000000E+00  0.00000000000E+00  0.19214553531E+02  0.19214553531E+02  0.00000000000E+00 0. -1.
         -2   -1    0    0    0  501 -0.00000000000E+00 -0.00000000000E+00 -0.95936739220E+03  0.95936739220E+03  0.00000000000E+00 0. -1.
         35    2    1    2    0    0  0.00000000000E+00  0.00000000000E+00 -0.94015283867E+03  0.97858194573E+03  0.27154238059E+03 0.  0.
         25    1    3    3    0    0  0.48479030842E+02  0.36147923607E+02 -0.54004263354E+03  0.55650959996E+03  0.12000000000E+03 0.  0.
         25    1    3    3    0    0 -0.48479030842E+02 -0.36147923607E+02 -0.40011020513E+03  0.42207234577E+03  0.12000000000E+03 0.  0.
<mgrwt>
<rscale>  0 0.27154238E+03</rscale>
<asrwt>0</asrwt>
<pdfrwt beam="1">  1        2 0.29560854E-02 0.27154238E+03</pdfrwt>
<pdfrwt beam="2">  1       -2 0.14759497E+00 0.27154238E+03</pdfrwt>
<totfact> 0.10566898E+03</totfact>
</mgrwt>
</event>
<event>
 5    1  0.1107336E+001  0.2769078E+03  0.7818608E-02  0.1097390E+00
         -2   -1    0    0    0  501 -0.00000000000E+00  0.00000000000E+00  0.29172482486E+02  0.29172482486E+02  0.00000000000E+00 0.  1.
          2   -1    0    0  501    0  0.00000000000E+00 -0.00000000000E+00 -0.65710851052E+03  0.65710851052E+03  0.00000000000E+00 0.  1.
         35    2    1    2    0    0  0.00000000000E+00  0.00000000000E+00 -0.62793602803E+03  0.68628099301E+03  0.27690782954E+03 0.  0.
         25    1    3    3    0    0  0.57712742206E+02 -0.37350962392E+02 -0.29759732883E+03  0.32816158388E+03  0.12000000000E+03 0.  0.
         25    1    3    3    0    0 -0.57712742206E+02  0.37350962392E+02 -0.33033869920E+03  0.35811940913E+03  0.12000000000E+03 0.  0.
<mgrwt>
<rscale>  0 0.27690783E+03</rscale>
<asrwt>0</asrwt>
<pdfrwt beam="1">  1        2 0.10109361E+00 0.27690783E+03</pdfrwt>
<pdfrwt beam="2">  1       -2 0.44880745E-02 0.27690783E+03</pdfrwt>
<totfact> 0.10412788E+04</totfact>
</mgrwt>
</event>
<event>
 5    1  0.1107336E+001  0.2750019E+03  0.7818608E-02  0.1098451E+00
         -1   -1    0    0    0  501 -0.00000000000E+00  0.00000000000E+00  0.18409651258E+03  0.18409651258E+03  0.00000000000E+00 0. -1.
          1   -1    0    0  501    0  0.00000000000E+00 -0.00000000000E+00 -0.10269889971E+03  0.10269889971E+03  0.00000000000E+00 0. -1.
         35    2    1    2    0    0  0.00000000000E+00  0.00000000000E+00  0.81397612872E+02  0.28679541229E+03  0.27500188568E+03 0.  0.
         25    1    3    3    0    0  0.65378355403E+02  0.46379429285E+01  0.55835717886E+02  0.14769382946E+03  0.12000000000E+03 0.  0.
         25    1    3    3    0    0 -0.65378355403E+02 -0.46379429285E+01  0.25561894987E+02  0.13910158283E+03  0.12000000000E+03 0.  0.
<mgrwt>
<rscale>  0 0.27500189E+03</rscale>
<asrwt>0</asrwt>
<pdfrwt beam="1">  1        1 0.15799831E-01 0.27500189E+03</pdfrwt>
<pdfrwt beam="2">  1       -1 0.28322540E-01 0.27500189E+03</pdfrwt>
<totfact> 0.39002502E+03</totfact>
</mgrwt>
</event>
<event>
 5    1  0.1107336E+001  0.2775099E+03  0.7818608E-02  0.1097057E+00
          2   -1    0    0  501    0  0.00000000000E+00  0.00000000000E+00  0.34357630137E+03  0.34357630137E+03  0.00000000000E+00 0.  1.
         -2   -1    0    0    0  501 -0.00000000000E+00 -0.00000000000E+00 -0.56036865109E+02  0.56036865109E+02  0.00000000000E+00 0.  1.
         35    2    1    2    0    0  0.00000000000E+00  0.00000000000E+00  0.28753943626E+03  0.39961316648E+03  0.27750991949E+03 0.  0.
         25    1    3    3    0    0 -0.90640291179E+01  0.63836511476E+02  0.10578869398E+03  0.17247754809E+03  0.12000000000E+03 0.  0.
         25    1    3    3    0    0  0.90640291179E+01 -0.63836511476E+02  0.18175074227E+03  0.22713561838E+03  0.12000000000E+03 0.  0.
<mgrwt>
<rscale>  0 0.27750992E+03</rscale>
<asrwt>0</asrwt>
<pdfrwt beam="1">  1        2 0.52857891E-01 0.27750992E+03</pdfrwt>
<pdfrwt beam="2">  1       -2 0.86210563E-02 0.27750992E+03</pdfrwt>
<totfact> 0.78725359E+03</totfact>
</mgrwt>
</event>
<event>
 5    1  0.1107336E+001  0.2745154E+03  0.7818608E-02  0.1098723E+00
          2   -1    0    0  501    0  0.00000000000E+00  0.00000000000E+00  0.96845041077E+03  0.96845041077E+03  0.00000000000E+00 0.  1.
         -2   -1    0    0    0  501 -0.00000000000E+00 -0.00000000000E+00 -0.19453424565E+02  0.19453424565E+02  0.00000000000E+00 0.  1.
         35    2    1    2    0    0  0.00000000000E+00  0.00000000000E+00  0.94899698620E+03  0.98790383533E+03  0.27451540584E+03 0.  0.
         25    1    3    3    0    0 -0.11461794152E+02 -0.18712841220E+02  0.24808975296E+03  0.27645988620E+03  0.12000000000E+03 0.  0.
         25    1    3    3    0    0  0.11461794152E+02  0.18712841220E+02  0.70090723324E+03  0.71144394913E+03  0.12000000000E+03 0.  0.
<mgrwt>
<rscale>  0 0.27451541E+03</rscale>
<asrwt>0</asrwt>
<pdfrwt beam="1">  1        2 0.14899233E+00 0.27451541E+03</pdfrwt>
<pdfrwt beam="2">  1       -2 0.29928353E-02 0.27451541E+03</pdfrwt>
<totfact> 0.11645245E+04</totfact>
</mgrwt>
</event>
<event>
 5    1  0.1107336E+001  0.2751668E+03  0.7818608E-02  0.1098358E+00
          4   -1    0    0  501    0  0.00000000000E+00  0.00000000000E+00  0.24864100965E+03  0.24864100965E+03  0.00000000000E+00 0.  1.
         -4   -1    0    0    0  501 -0.00000000000E+00 -0.00000000000E+00 -0.76130585699E+02  0.76130585699E+02  0.00000000000E+00 0.  1.
         35    2    1    2    0    0  0.00000000000E+00  0.00000000000E+00  0.17251042396E+03  0.32477159535E+03  0.27516675449E+03 0.  0.
         25    1    3    3    0    0 -0.53391016896E+02 -0.10262561540E+02  0.39440431036E+02  0.13751897489E+03  0.12000000000E+03 0.  0.
         25    1    3    3    0    0  0.53391016896E+02  0.10262561540E+02  0.13306999292E+03  0.18725262046E+03  0.12000000000E+03 0.  0.
<mgrwt>
<rscale>  0 0.27516675E+03</rscale>
<asrwt>0</asrwt>
<pdfrwt beam="1">  1        4 0.38252463E-01 0.27516675E+03</pdfrwt>
<pdfrwt beam="2">  1       -4 0.11712398E-01 0.27516675E+03</pdfrwt>
<totfact> 0.72175791E+02</totfact>
</mgrwt>
</event>
<event>
 5    1  0.1107336E+001  0.2745920E+03  0.7818608E-02  0.1098680E+00
         -2   -1    0    0    0  501 -0.00000000000E+00  0.00000000000E+00  0.16599467221E+03  0.16599467221E+03  0.00000000000E+00 0.  1.
          2   -1    0    0  501    0  0.00000000000E+00 -0.00000000000E+00 -0.11355901050E+03  0.11355901050E+03  0.00000000000E+00 0.  1.
         35    2    1    2    0    0  0.00000000000E+00  0.00000000000E+00  0.52435661707E+02  0.27955368271E+03  0.27459199351E+03 0.  0.
         25    1    3    3    0    0 -0.58244399830E+02  0.11692504433E+02  0.57115286140E+02  0.14557225245E+03  0.12000000000E+03 0.  0.
         25    1    3    3    0    0  0.58244399830E+02 -0.11692504433E+02 -0.46796244327E+01  0.13398143027E+03  0.12000000000E+03 0.  0.
<mgrwt>
<rscale>  0 0.27459199E+03</rscale>
<asrwt>0</asrwt>
<pdfrwt beam="1">  1        2 0.17470617E-01 0.27459199E+03</pdfrwt>
<pdfrwt beam="2">  1       -2 0.25537642E-01 0.27459199E+03</pdfrwt>
<totfact> 0.44223282E+03</totfact>
</mgrwt>
</event>
<event>
 5    1  0.1107336E+001  0.2635158E+03  0.7818608E-02  0.1105049E+00
          2   -1    0    0  501    0  0.00000000000E+00  0.00000000000E+00  0.29965462741E+04  0.29965462741E+04  0.00000000000E+00 0. -1.
         -2   -1    0    0    0  501 -0.00000000000E+00 -0.00000000000E+00 -0.57933853443E+01  0.57933853443E+01  0.00000000000E+00 0. -1.
         35    2    1    2    0    0  0.00000000000E+00  0.00000000000E+00  0.29907528887E+04  0.30023396594E+04  0.26351582319E+03 0.  0.
         25    1    3    3    0    0  0.16521326329E+02  0.50976188557E+02  0.16026325555E+04  0.16080120131E+04  0.12000000000E+03 0.  0.
         25    1    3    3    0    0 -0.16521326329E+02 -0.50976188557E+02  0.13881203332E+04  0.13943276464E+04  0.12000000000E+03 0.  0.
<mgrwt>
<rscale>  0 0.26351582E+03</rscale>
<asrwt>0</asrwt>
<pdfrwt beam="1">  1        2 0.46100588E+00 0.26351582E+03</pdfrwt>
<pdfrwt beam="2">  1       -2 0.89129245E-03 0.26351582E+03</pdfrwt>
<totfact> 0.52789950E+03</totfact>
</mgrwt>
</event>
<event>
 5    1  0.1107336E+001  0.2743291E+03  0.7818608E-02  0.1098827E+00
          2   -1    0    0  501    0  0.00000000000E+00  0.00000000000E+00  0.68992540980E+03  0.68992540980E+03  0.00000000000E+00 0.  1.
         -2   -1    0    0    0  501 -0.00000000000E+00 -0.00000000000E+00 -0.27269772067E+02  0.27269772067E+02  0.00000000000E+00 0.  1.
         35    2    1    2    0    0  0.00000000000E+00  0.00000000000E+00  0.66265563773E+03  0.71719518187E+03  0.27432906276E+03 0.  0.
         25    1    3    3    0    0 -0.41981149250E+02 -0.28471547937E+02  0.44350378980E+03  0.46224307188E+03  0.12000000000E+03 0.  0.
         25    1    3    3    0    0  0.41981149250E+02  0.28471547937E+02  0.21915184793E+03  0.25495210998E+03  0.12000000000E+03 0.  0.
<mgrwt>
<rscale>  0 0.27432906E+03</rscale>
<asrwt>0</asrwt>
<pdfrwt beam="1">  1        2 0.10614236E+00 0.27432906E+03</pdfrwt>
<pdfrwt beam="2">  1       -2 0.41953501E-02 0.27432906E+03</pdfrwt>
<totfact> 0.10870801E+04</totfact>
</mgrwt>
</event>
<event>
 5    1  0.1107336E+001  0.2672229E+03  0.7818608E-02  0.1102880E+00
         -1   -1    0    0    0  501 -0.00000000000E+00  0.00000000000E+00  0.10131022174E+02  0.10131022174E+02  0.00000000000E+00 0. -1.
          1   -1    0    0  501    0  0.00000000000E+00 -0.00000000000E+00 -0.17621147449E+04  0.17621147449E+04  0.00000000000E+00 0. -1.
         35    2    1    2    0    0  0.00000000000E+00  0.00000000000E+00 -0.17519837227E+04  0.17722457671E+04  0.26722292981E+03 0.  0.
         25    1    3    3    0    0  0.13413610265E+02 -0.31490656416E+02 -0.11927000426E+04  0.11992101475E+04  0.12000000000E+03 0.  0.
         25    1    3    3    0    0 -0.13413610265E+02  0.31490656416E+02 -0.55928368015E+03  0.57303561954E+03  0.12000000000E+03 0.  0.
<mgrwt>
<rscale>  0 0.26722293E+03</rscale>
<asrwt>0</asrwt>
<pdfrwt beam="1">  1        1 0.27109442E+00 0.26722293E+03</pdfrwt>
<pdfrwt beam="2">  1       -1 0.15586197E-02 0.26722293E+03</pdfrwt>
<totfact> 0.47525426E+03</totfact>
</mgrwt>
</event>
<event>
 5    1  0.1107336E+001  0.2758979E+03  0.7818608E-02  0.1097951E+00
         -2   -1    0    0    0  501 -0.00000000000E+00  0.00000000000E+00  0.11672229178E+02  0.11672229178E+02  0.00000000000E+00 0.  1.
          2   -1    0    0  501    0  0.00000000000E+00 -0.00000000000E+00 -0.16303574654E+04  0.16303574654E+04  0.00000000000E+00 0.  1.
         35    2    1    2    0    0  0.00000000000E+00  0.00000000000E+00 -0.16186852362E+04  0.16420296946E+04  0.27589785051E+03 0.  0.
         25    1    3    3    0    0  0.65878664391E+02 -0.11192768690E+02 -0.88570623690E+03  0.89629281743E+03  0.12000000000E+03 0.  0.
         25    1    3    3    0    0 -0.65878664391E+02  0.11192768690E+02 -0.73297899933E+03  0.74573687715E+03  0.12000000000E+03 0.  0.
<mgrwt>
<rscale>  0 0.27589785E+03</rscale>
<asrwt>0</asrwt>
<pdfrwt beam="1">  1        2 0.25082422E+00 0.27589785E+03</pdfrwt>
<pdfrwt beam="2">  1       -2 0.17957276E-02 0.27589785E+03</pdfrwt>
<totfact> 0.10535409E+04</totfact>
</mgrwt>
</event>
<event>
 5    1  0.1107336E+001  0.2747284E+03  0.7818608E-02  0.1098604E+00
         -2   -1    0    0    0  501 -0.00000000000E+00  0.00000000000E+00  0.10832061057E+02  0.10832061057E+02  0.00000000000E+00 0. -1.
          2   -1    0    0  501    0  0.00000000000E+00 -0.00000000000E+00 -0.17419513367E+04  0.17419513367E+04  0.00000000000E+00 0. -1.
         35    2    1    2    0    0  0.00000000000E+00  0.00000000000E+00 -0.17311192756E+04  0.17527833977E+04  0.27472839852E+03 0.  0.
         25    1    3    3    0    0  0.53883030933E+02  0.15409420147E+01 -0.11178074943E+04  0.11255218123E+04  0.12000000000E+03 0.  0.
         25    1    3    3    0    0 -0.53883030933E+02 -0.15409420147E+01 -0.61331178127E+03  0.62726158544E+03  0.12000000000E+03 0.  0.
<mgrwt>
<rscale>  0 0.27472840E+03</rscale>
<asrwt>0</asrwt>
<pdfrwt beam="1">  1        2 0.26799224E+00 0.27472840E+03</pdfrwt>
<pdfrwt beam="2">  1       -2 0.16664726E-02 0.27472840E+03</pdfrwt>
<totfact> 0.10265575E+04</totfact>
</mgrwt>
</event>
<event>
 5    1  0.1107336E+001  0.2743902E+03  0.7818608E-02  0.1098793E+00
         -2   -1    0    0    0  501 -0.00000000000E+00  0.00000000000E+00  0.12899685130E+03  0.12899685130E+03  0.00000000000E+00 0.  1.
          2   -1    0    0  501    0  0.00000000000E+00 -0.00000000000E+00 -0.14591442646E+03  0.14591442646E+03  0.00000000000E+00 0.  1.
         35    2    1    2    0    0  0.00000000000E+00  0.00000000000E+00 -0.16917575161E+02  0.27491127776E+03  0.27439024452E+03 0.  0.
         25    1    3    3    0    0 -0.41597535254E+02 -0.17563012741E+02  0.40456940641E+02  0.13444544768E+03  0.12000000000E+03 0.  0.
         25    1    3    3    0    0  0.41597535254E+02  0.17563012741E+02 -0.57374515802E+02  0.14046583008E+03  0.12000000000E+03 0.  0.
<mgrwt>
<rscale>  0 0.27439024E+03</rscale>
<asrwt>0</asrwt>
<pdfrwt beam="1">  1        2 0.22448373E-01 0.27439024E+03</pdfrwt>
<pdfrwt beam="2">  1       -2 0.19845670E-01 0.27439024E+03</pdfrwt>
<totfact> 0.51426361E+03</totfact>
</mgrwt>
</event>
<event>
 5    1  0.1107336E+001  0.2720566E+03  0.7818608E-02  0.1100108E+00
          1   -1    0    0  501    0  0.00000000000E+00  0.00000000000E+00  0.78909574411E+02  0.78909574411E+02  0.00000000000E+00 0. -1.
         -1   -1    0    0    0  501 -0.00000000000E+00 -0.00000000000E+00 -0.23449251724E+03  0.23449251724E+03  0.00000000000E+00 0. -1.
         35    2    1    2    0    0  0.00000000000E+00  0.00000000000E+00 -0.15558294283E+03  0.31340209166E+03  0.27205664659E+03 0.  0.
         25    1    3    3    0    0 -0.25125932177E+02 -0.13032005526E+02 -0.11589968449E+02  0.12383647687E+03  0.12000000000E+03 0.  0.
         25    1    3    3    0    0  0.25125932177E+02  0.13032005526E+02 -0.14399297438E+03  0.18956561478E+03  0.12000000000E+03 0.  0.
<mgrwt>
<rscale>  0 0.27205665E+03</rscale>
<asrwt>0</asrwt>
<pdfrwt beam="1">  1        1 0.12139935E-01 0.27205665E+03</pdfrwt>
<pdfrwt beam="2">  1       -1 0.36075772E-01 0.27205665E+03</pdfrwt>
<totfact> 0.36434657E+03</totfact>
</mgrwt>
</event>
<event>
 5    1  0.1107336E+001  0.2751569E+03  0.7818608E-02  0.1098364E+00
         -3   -1    0    0    0  501 -0.00000000000E+00  0.00000000000E+00  0.28226578902E+02  0.28226578902E+02  0.00000000000E+00 0.  1.
          3   -1    0    0  501    0  0.00000000000E+00 -0.00000000000E+00 -0.67056746865E+03  0.67056746865E+03  0.00000000000E+00 0.  1.
         35    2    1    2    0    0  0.00000000000E+00  0.00000000000E+00 -0.64234088975E+03  0.69879404756E+03  0.27515686844E+03 0.  0.
         25    1    3    3    0    0 -0.15163467971E+02  0.52598912396E+02 -0.42054879415E+03  0.44074693942E+03  0.12000000000E+03 0.  0.
         25    1    3    3    0    0  0.15163467971E+02 -0.52598912396E+02 -0.22179209560E+03  0.25804710814E+03  0.12000000000E+03 0.  0.
<mgrwt>
<rscale>  0 0.27515687E+03</rscale>
<asrwt>0</asrwt>
<pdfrwt beam="1">  1        3 0.10316423E+00 0.27515687E+03</pdfrwt>
<pdfrwt beam="2">  1       -3 0.43425506E-02 0.27515687E+03</pdfrwt>
<totfact> 0.61087639E+02</totfact>
</mgrwt>
</event>
<event>
 5    1  0.1107336E+001  0.2751297E+03  0.7818608E-02  0.1098379E+00
          1   -1    0    0  501    0  0.00000000000E+00  0.00000000000E+00  0.80194894261E+02  0.80194894261E+02  0.00000000000E+00 0. -1.
         -1   -1    0    0    0  501 -0.00000000000E+00 -0.00000000000E+00 -0.23597625669E+03  0.23597625669E+03  0.00000000000E+00 0. -1.
         35    2    1    2    0    0  0.00000000000E+00  0.00000000000E+00 -0.15578136242E+03  0.31617115095E+03  0.27512972179E+03 0.  0.
         25    1    3    3    0    0 -0.36674541977E+02 -0.53690266134E+02 -0.58105428890E+02  0.14833714158E+03  0.12000000000E+03 0.  0.
         25    1    3    3    0    0  0.36674541977E+02  0.53690266134E+02 -0.97675933535E+02  0.16783400936E+03  0.12000000000E+03 0.  0.
<mgrwt>
<rscale>  0 0.27512972E+03</rscale>
<asrwt>0</asrwt>
<pdfrwt beam="1">  1        1 0.12337676E-01 0.27512972E+03</pdfrwt>
<pdfrwt beam="2">  1       -1 0.36304039E-01 0.27512972E+03</pdfrwt>
<totfact> 0.35281644E+03</totfact>
</mgrwt>
</event>
<event>
 5    1  0.1107336E+001  0.2753146E+03  0.7818608E-02  0.1098276E+00
         -2   -1    0    0    0  501 -0.00000000000E+00  0.00000000000E+00  0.10092749430E+03  0.10092749430E+03  0.00000000000E+00 0. -1.
          2   -1    0    0  501    0  0.00000000000E+00 -0.00000000000E+00 -0.18775398019E+03  0.18775398019E+03  0.00000000000E+00 0. -1.
         35    2    1    2    0    0  0.00000000000E+00  0.00000000000E+00 -0.86826485897E+02  0.28868147449E+03  0.27531464738E+03 0.  0.
         25    1    3    3    0    0  0.20665058380E+02 -0.34870841209E+02  0.13116387676E+02  0.12733836747E+03  0.12000000000E+03 0.  0.
         25    1    3    3    0    0 -0.20665058380E+02  0.34870841209E+02 -0.99942873572E+02  0.16134310702E+03  0.12000000000E+03 0.  0.
<mgrwt>
<rscale>  0 0.27531465E+03</rscale>
<asrwt>0</asrwt>
<pdfrwt beam="1">  1        2 0.28885227E-01 0.27531465E+03</pdfrwt>
<pdfrwt beam="2">  1       -2 0.15527307E-01 0.27531465E+03</pdfrwt>
<totfact> 0.58670848E+03</totfact>
</mgrwt>
</event>
<event>
 5    1  0.1107336E+001  0.2752373E+03  0.7818608E-02  0.1098319E+00
         -1   -1    0    0    0  501 -0.00000000000E+00  0.00000000000E+00  0.62776249923E+02  0.62776249923E+02  0.00000000000E+00 0. -1.
          1   -1    0    0  501    0  0.00000000000E+00 -0.00000000000E+00 -0.30168878873E+03  0.30168878873E+03  0.00000000000E+00 0. -1.
         35    2    1    2    0    0  0.00000000000E+00  0.00000000000E+00 -0.23891253880E+03  0.36446503865E+03  0.27523728527E+03 0.  0.
         25    1    3    3    0    0  0.36625008147E+02  0.33222562879E+02 -0.18004783181E+03  0.22195123709E+03  0.12000000000E+03 0.  0.
         25    1    3    3    0    0 -0.36625008147E+02 -0.33222562879E+02 -0.58864706996E+02  0.14251380156E+03  0.12000000000E+03 0.  0.
<mgrwt>
<rscale>  0 0.27523729E+03</rscale>
<asrwt>0</asrwt>
<pdfrwt beam="1">  1        1 0.46413659E-01 0.27523729E+03</pdfrwt>
<pdfrwt beam="2">  1       -1 0.96578847E-02 0.27523729E+03</pdfrwt>
<totfact> 0.55612681E+03</totfact>
</mgrwt>
</event>
<event>
 5    1  0.1107336E+001  0.2749697E+03  0.7818608E-02  0.1098469E+00
          1   -1    0    0  501    0  0.00000000000E+00  0.00000000000E+00  0.44394216853E+01  0.44394216853E+01  0.00000000000E+00 0.  1.
         -1   -1    0    0    0  501 -0.00000000000E+00 -0.00000000000E+00 -0.42577801105E+04  0.42577801105E+04  0.00000000000E+00 0.  1.
         35    2    1    2    0    0  0.00000000000E+00  0.00000000000E+00 -0.42533406888E+04  0.42622195322E+04  0.27496968090E+03 0.  0.
         25    1    3    3    0    0  0.63905835674E+02  0.73760686309E+01 -0.18310501636E+04  0.18361054065E+04  0.12000000000E+03 0.  0.
         25    1    3    3    0    0 -0.63905835674E+02 -0.73760686309E+01 -0.24222905252E+04  0.24261141256E+04  0.12000000000E+03 0.  0.
<mgrwt>
<rscale>  0 0.27496968E+03</rscale>
<asrwt>0</asrwt>
<pdfrwt beam="1">  1        1 0.68298698E-03 0.27496968E+03</pdfrwt>
<pdfrwt beam="2">  1       -1 0.65504403E+00 0.27496968E+03</pdfrwt>
<totfact> 0.93177620E+00</totfact>
</mgrwt>
</event>
<event>
 5    1  0.1107336E+001  0.2761719E+03  0.7818608E-02  0.1097798E+00
         -2   -1    0    0    0  501 -0.00000000000E+00  0.00000000000E+00  0.79612737654E+01  0.79612737654E+01  0.00000000000E+00 0. -1.
          2   -1    0    0  501    0  0.00000000000E+00 -0.00000000000E+00 -0.23950599202E+04  0.23950599202E+04  0.00000000000E+00 0. -1.
         35    2    1    2    0    0  0.00000000000E+00  0.00000000000E+00 -0.23870986465E+04  0.24030211940E+04  0.27617188640E+03 0.  0.
         25    1    3    3    0    0 -0.55273676303E+02 -0.40138141516E+02 -0.11829709887E+04  0.11910023551E+04  0.12000000000E+03 0.  0.
         25    1    3    3    0    0  0.55273676303E+02  0.40138141516E+02 -0.12041276578E+04  0.12120188389E+04  0.12000000000E+03 0.  0.
<mgrwt>
<rscale>  0 0.27617189E+03</rscale>
<asrwt>0</asrwt>
<pdfrwt beam="1">  1        2 0.36847118E+00 0.27617189E+03</pdfrwt>
<pdfrwt beam="2">  1       -2 0.12248100E-02 0.27617189E+03</pdfrwt>
<totfact> 0.72599077E+03</totfact>
</mgrwt>
</event>
<event>
 5    1  0.1107336E+001  0.2751774E+03  0.7818608E-02  0.1098352E+00
          2   -1    0    0  501    0  0.00000000000E+00  0.00000000000E+00  0.28733168484E+04  0.28733168484E+04  0.00000000000E+00 0.  1.
         -2   -1    0    0    0  501 -0.00000000000E+00 -0.00000000000E+00 -0.65884328153E+01  0.65884328153E+01  0.00000000000E+00 0.  1.
         35    2    1    2    0    0  0.00000000000E+00  0.00000000000E+00  0.28667284156E+04  0.28799052812E+04  0.27517743376E+03 0.  0.
         25    1    3    3    0    0  0.31929915410E+02  0.56589328356E+02  0.12494596968E+04  0.12568895757E+04  0.12000000000E+03 0.  0.
         25    1    3    3    0    0 -0.31929915410E+02 -0.56589328356E+02  0.16172687187E+04  0.16230157055E+04  0.12000000000E+03 0.  0.
<mgrwt>
<rscale>  0 0.27517743E+03</rscale>
<asrwt>0</asrwt>
<pdfrwt beam="1">  1        2 0.44204775E+00 0.27517743E+03</pdfrwt>
<pdfrwt beam="2">  1       -2 0.10136073E-02 0.27517743E+03</pdfrwt>
<totfact> 0.51681672E+03</totfact>
</mgrwt>
</event>
<event>
 5    1  0.1107336E+001  0.2740508E+03  0.7818608E-02  0.1098983E+00
          1   -1    0    0  501    0  0.00000000000E+00  0.00000000000E+00  0.35631855275E+03  0.35631855275E+03  0.00000000000E+00 0. -1.
         -1   -1    0    0    0  501 -0.00000000000E+00 -0.00000000000E+00 -0.52694295304E+02  0.52694295304E+02  0.00000000000E+00 0. -1.
         35    2    1    2    0    0  0.00000000000E+00  0.00000000000E+00  0.30362425745E+03  0.40901284806E+03  0.27405076202E+03 0.  0.
         25    1    3    3    0    0 -0.41184970106E+02  0.40413216921E+02  0.20009363124E+03  0.24034743836E+03  0.12000000000E+03 0.  0.
         25    1    3    3    0    0  0.41184970106E+02 -0.40413216921E+02  0.10353062621E+03  0.16866540970E+03  0.12000000000E+03 0.  0.
<mgrwt>
<rscale>  0 0.27405076E+03</rscale>
<asrwt>0</asrwt>
<pdfrwt beam="1">  1        1 0.54818237E-01 0.27405076E+03</pdfrwt>
<pdfrwt beam="2">  1       -1 0.81068149E-02 0.27405076E+03</pdfrwt>
<totfact> 0.58958133E+03</totfact>
</mgrwt>
</event>
<event>
 5    1  0.1107336E+001  0.2762348E+03  0.7818608E-02  0.1097763E+00
         -2   -1    0    0    0  501 -0.00000000000E+00  0.00000000000E+00  0.11886741782E+02  0.11886741782E+02  0.00000000000E+00 0.  1.
          2   -1    0    0  501    0  0.00000000000E+00 -0.00000000000E+00 -0.16048483765E+04  0.16048483765E+04  0.00000000000E+00 0.  1.
         35    2    1    2    0    0  0.00000000000E+00  0.00000000000E+00 -0.15929616347E+04  0.16167351183E+04  0.27623481497E+03 0.  0.
         25    1    3    3    0    0 -0.20337044410E+01  0.23917954102E+02 -0.11712498592E+04  0.11776257627E+04  0.12000000000E+03 0.  0.
         25    1    3    3    0    0  0.20337044410E+01 -0.23917954102E+02 -0.42171177558E+03  0.43910935556E+03  0.12000000000E+03 0.  0.
<mgrwt>
<rscale>  0 0.27623481E+03</rscale>
<asrwt>0</asrwt>
<pdfrwt beam="1">  1        2 0.24689964E+00 0.27623481E+03</pdfrwt>
<pdfrwt beam="2">  1       -2 0.18287303E-02 0.27623481E+03</pdfrwt>
<totfact> 0.10581593E+04</totfact>
</mgrwt>
</event>
<event>
 5    1  0.1107336E+001  0.2742292E+03  0.7818608E-02  0.1098883E+00
          2   -1    0    0  501    0  0.00000000000E+00  0.00000000000E+00  0.16101095180E+04  0.16101095180E+04  0.00000000000E+00 0.  1.
         -2   -1    0    0    0  501 -0.00000000000E+00 -0.00000000000E+00 -0.11676477342E+02  0.11676477342E+02  0.00000000000E+00 0.  1.
         35    2    1    2    0    0  0.00000000000E+00  0.00000000000E+00  0.15984330407E+04  0.16217859954E+04  0.27422915458E+03 0.  0.
         25    1    3    3    0    0 -0.20417981549E+02 -0.59917338699E+02  0.91652012862E+03  0.92650748924E+03  0.12000000000E+03 0.  0.
         25    1    3    3    0    0  0.20417981549E+02  0.59917338699E+02  0.68191291205E+03  0.69527850611E+03  0.12000000000E+03 0.  0.
<mgrwt>
<rscale>  0 0.27422915E+03</rscale>
<asrwt>0</asrwt>
<pdfrwt beam="1">  1        2 0.24770898E+00 0.27422915E+03</pdfrwt>
<pdfrwt beam="2">  1       -2 0.17963824E-02 0.27422915E+03</pdfrwt>
<totfact> 0.10791582E+04</totfact>
</mgrwt>
</event>
<event>
 5    1  0.1107336E+001  0.2727574E+03  0.7818608E-02  0.1099712E+00
         -1   -1    0    0    0  501 -0.00000000000E+00  0.00000000000E+00  0.15603770503E+02  0.15603770503E+02  0.00000000000E+00 0. -1.
          1   -1    0    0  501    0  0.00000000000E+00 -0.00000000000E+00 -0.11919652287E+04  0.11919652287E+04  0.00000000000E+00 0. -1.
         35    2    1    2    0    0  0.00000000000E+00  0.00000000000E+00 -0.11763614582E+04  0.12075689992E+04  0.27275741512E+03 0.  0.
         25    1    3    3    0    0  0.62373709894E+02  0.11028100040E+02 -0.52763019767E+03  0.54479879237E+03  0.12000000000E+03 0.  0.
         25    1    3    3    0    0 -0.62373709894E+02 -0.11028100040E+02 -0.64873126050E+03  0.66277020680E+03  0.12000000000E+03 0.  0.
<mgrwt>
<rscale>  0 0.27275742E+03</rscale>
<asrwt>0</asrwt>
<pdfrwt beam="1">  1        1 0.18337927E+00 0.27275742E+03</pdfrwt>
<pdfrwt beam="2">  1       -1 0.24005800E-02 0.27275742E+03</pdfrwt>
<totfact> 0.60793420E+03</totfact>
</mgrwt>
</event>
<event>
 5    1  0.1107336E+001  0.2743533E+03  0.7818608E-02  0.1098814E+00
          2   -1    0    0  501    0  0.00000000000E+00  0.00000000000E+00  0.17526186920E+04  0.17526186920E+04  0.00000000000E+00 0.  1.
         -2   -1    0    0    0  501 -0.00000000000E+00 -0.00000000000E+00 -0.10736753397E+02  0.10736753397E+02  0.00000000000E+00 0.  1.
         35    2    1    2    0    0  0.00000000000E+00  0.00000000000E+00  0.17418819386E+04  0.17633554454E+04  0.27435331013E+03 0.  0.
         25    1    3    3    0    0 -0.34539815329E+01  0.56609836040E+02  0.10936668244E+04  0.11016913026E+04  0.12000000000E+03 0.  0.
         25    1    3    3    0    0  0.34539815329E+01 -0.56609836040E+02  0.64821511421E+03  0.66166414276E+03  0.12000000000E+03 0.  0.
<mgrwt>
<rscale>  0 0.27435331E+03</rscale>
<asrwt>0</asrwt>
<pdfrwt beam="1">  1        2 0.26963342E+00 0.27435331E+03</pdfrwt>
<pdfrwt beam="2">  1       -2 0.16518096E-02 0.27435331E+03</pdfrwt>
<totfact> 0.10265766E+04</totfact>
</mgrwt>
</event>
<event>
 5    1  0.1107336E+001  0.2732206E+03  0.7818608E-02  0.1099450E+00
          1   -1    0    0  501    0  0.00000000000E+00  0.00000000000E+00  0.13445176636E+03  0.13445176636E+03  0.00000000000E+00 0. -1.
         -1   -1    0    0    0  501 -0.00000000000E+00 -0.00000000000E+00 -0.13880347093E+03  0.13880347093E+03  0.00000000000E+00 0. -1.
         35    2    1    2    0    0  0.00000000000E+00  0.00000000000E+00 -0.43517045661E+01  0.27325523729E+03  0.27322058373E+03 0.  0.
         25    1    3    3    0    0 -0.18693868937E+02  0.56570481968E+02 -0.28875524108E+02  0.13705282215E+03  0.12000000000E+03 0.  0.
         25    1    3    3    0    0  0.18693868937E+02 -0.56570481968E+02  0.24523819542E+02  0.13620241514E+03  0.12000000000E+03 0.  0.
<mgrwt>
<rscale>  0 0.27322058E+03</rscale>
<asrwt>0</asrwt>
<pdfrwt beam="1">  1        1 0.20684887E-01 0.27322058E+03</pdfrwt>
<pdfrwt beam="2">  1       -1 0.21354380E-01 0.27322058E+03</pdfrwt>
<totfact> 0.43951835E+03</totfact>
</mgrwt>
</event>
<event>
 5    1  0.1107336E+001  0.2754137E+03  0.7818608E-02  0.1098221E+00
          1   -1    0    0  501    0  0.00000000000E+00  0.00000000000E+00  0.52660068907E+02  0.52660068907E+02  0.00000000000E+00 0. -1.
         -1   -1    0    0    0  501 -0.00000000000E+00 -0.00000000000E+00 -0.36010536138E+03  0.36010536138E+03  0.00000000000E+00 0. -1.
         35    2    1    2    0    0  0.00000000000E+00  0.00000000000E+00 -0.30744529247E+03  0.41276543029E+03  0.27541367536E+03 0.  0.
         25    1    3    3    0    0 -0.18733724319E+02  0.31474954460E+02 -0.68657800844E+02  0.14302279120E+03  0.12000000000E+03 0.  0.
         25    1    3    3    0    0  0.18733724319E+02 -0.31474954460E+02 -0.23878749163E+03  0.26974263909E+03  0.12000000000E+03 0.  0.
<mgrwt>
<rscale>  0 0.27541368E+03</rscale>
<asrwt>0</asrwt>
<pdfrwt beam="1">  1        1 0.81015493E-02 0.27541368E+03</pdfrwt>
<pdfrwt beam="2">  1       -1 0.55400823E-01 0.27541368E+03</pdfrwt>
<totfact> 0.28851144E+03</totfact>
</mgrwt>
</event>
<event>
 5    1  0.1107336E+001  0.2749205E+03  0.7818608E-02  0.1098496E+00
          2   -1    0    0  501    0  0.00000000000E+00  0.00000000000E+00  0.10188699304E+03  0.10188699304E+03  0.00000000000E+00 0.  1.
         -2   -1    0    0    0  501 -0.00000000000E+00 -0.00000000000E+00 -0.18545371468E+03  0.18545371468E+03  0.00000000000E+00 0.  1.
         35    2    1    2    0    0  0.00000000000E+00  0.00000000000E+00 -0.83566721634E+02  0.28734070772E+03  0.27492050732E+03 0.  0.
         25    1    3    3    0    0 -0.19704868309E+02 -0.75322264735E+01 -0.10830054986E+03  0.16301541452E+03  0.12000000000E+03 0.  0.
         25    1    3    3    0    0  0.19704868309E+02  0.75322264735E+01  0.24733828224E+02  0.12432529320E+03  0.12000000000E+03 0.  0.
<mgrwt>
<rscale>  0 0.27492051E+03</rscale>
<asrwt>0</asrwt>
<pdfrwt beam="1">  1        2 0.15674922E-01 0.27492051E+03</pdfrwt>
<pdfrwt beam="2">  1       -2 0.28531340E-01 0.27492051E+03</pdfrwt>
<totfact> 0.41200432E+03</totfact>
</mgrwt>
</event>
<event>
 5    1  0.1107336E+001  0.2732934E+03  0.7818608E-02  0.1099409E+00
         -3   -1    0    0    0  501 -0.00000000000E+00  0.00000000000E+00  0.24988831805E+03  0.24988831805E+03  0.00000000000E+00 0. -1.
          3   -1    0    0  501    0  0.00000000000E+00 -0.00000000000E+00 -0.74722687627E+02  0.74722687627E+02  0.00000000000E+00 0. -1.
         35    2    1    2    0    0  0.00000000000E+00  0.00000000000E+00  0.17516563042E+03  0.32461100568E+03  0.27329344472E+03 0.  0.
         25    1    3    3    0    0  0.90148165124E+01 -0.49618622894E+02  0.38192924825E+02  0.13565387632E+03  0.12000000000E+03 0.  0.
         25    1    3    3    0    0 -0.90148165124E+01  0.49618622894E+02  0.13697270560E+03  0.18895712935E+03  0.12000000000E+03 0.  0.
<mgrwt>
<rscale>  0 0.27329344E+03</rscale>
<asrwt>0</asrwt>
<pdfrwt beam="1">  1        3 0.11495798E-01 0.27329344E+03</pdfrwt>
<pdfrwt beam="2">  1       -3 0.38444356E-01 0.27329344E+03</pdfrwt>
<totfact> 0.99546694E+02</totfact>
</mgrwt>
</event>
<event>
 5    1  0.1107336E+001  0.2742410E+03  0.7818608E-02  0.1098877E+00
         -2   -1    0    0    0  501 -0.00000000000E+00  0.00000000000E+00  0.32986585698E+03  0.32986585698E+03  0.00000000000E+00 0.  1.
          2   -1    0    0  501    0  0.00000000000E+00 -0.00000000000E+00 -0.56999043261E+02  0.56999043261E+02  0.00000000000E+00 0.  1.
         35    2    1    2    0    0  0.00000000000E+00  0.00000000000E+00  0.27286681372E+03  0.38686490025E+03  0.27424104910E+03 0.  0.
         25    1    3    3    0    0 -0.18905934254E+02  0.56838054777E+02  0.17668189654E+03  0.22182085426E+03  0.12000000000E+03 0.  0.
         25    1    3    3    0    0  0.18905934254E+02 -0.56838054777E+02  0.96184917182E+02  0.16504404598E+03  0.12000000000E+03 0.  0.
<mgrwt>
<rscale>  0 0.27424105E+03</rscale>
<asrwt>0</asrwt>
<pdfrwt beam="1">  1        2 0.87690838E-02 0.27424105E+03</pdfrwt>
<pdfrwt beam="2">  1       -2 0.50748592E-01 0.27424105E+03</pdfrwt>
<totfact> 0.28092998E+03</totfact>
</mgrwt>
</event>
<event>
 5    1  0.1107336E+001  0.2743096E+03  0.7818608E-02  0.1098838E+00
         -1   -1    0    0    0  501 -0.00000000000E+00  0.00000000000E+00  0.18028962959E+02  0.18028962959E+02  0.00000000000E+00 0.  1.
          1   -1    0    0  501    0  0.00000000000E+00 -0.00000000000E+00 -0.10434008724E+04  0.10434008724E+04  0.00000000000E+00 0.  1.
         35    2    1    2    0    0  0.00000000000E+00  0.00000000000E+00 -0.10253719095E+04  0.10614298354E+04  0.27430957461E+03 0.  0.
         25    1    3    3    0    0  0.26709268798E+02 -0.60811419459E+02 -0.51325863285E+03  0.53126814131E+03  0.12000000000E+03 0.  0.
         25    1    3    3    0    0 -0.26709268798E+02  0.60811419459E+02 -0.51211327662E+03  0.53016169408E+03  0.12000000000E+03 0.  0.
<mgrwt>
<rscale>  0 0.27430957E+03</rscale>
<asrwt>0</asrwt>
<pdfrwt beam="1">  1        1 0.16052325E+00 0.27430957E+03</pdfrwt>
<pdfrwt beam="2">  1       -1 0.27736860E-02 0.27430957E+03</pdfrwt>
<totfact> 0.62836270E+03</totfact>
</mgrwt>
</event>
<event>
 5    1  0.1107336E+001  0.2756402E+03  0.7818608E-02  0.1098094E+00
          2   -1    0    0  501    0  0.00000000000E+00  0.00000000000E+00  0.23613370324E+03  0.23613370324E+03  0.00000000000E+00 0.  1.
         -2   -1    0    0    0  501 -0.00000000000E+00 -0.00000000000E+00 -0.80439105445E+02  0.80439105445E+02  0.00000000000E+00 0.  1.
         35    2    1    2    0    0  0.00000000000E+00  0.00000000000E+00  0.15569459779E+03  0.31657280868E+03  0.27564022822E+03 0.  0.
         25    1    3    3    0    0  0.60440056915E+01  0.30300756006E+02  0.14713639228E+03  0.19236367576E+03  0.12000000000E+03 0.  0.
         25    1    3    3    0    0 -0.60440056915E+01 -0.30300756006E+02  0.85582055121E+01  0.12420913292E+03  0.12000000000E+03 0.  0.
<mgrwt>
<rscale>  0 0.27564023E+03</rscale>
<asrwt>0</asrwt>
<pdfrwt beam="1">  1        2 0.36328262E-01 0.27564023E+03</pdfrwt>
<pdfrwt beam="2">  1       -2 0.12375247E-01 0.27564023E+03</pdfrwt>
<totfact> 0.66255483E+03</totfact>
</mgrwt>
</event>
<event>
 5    1  0.1107336E+001  0.2743476E+03  0.7818608E-02  0.1098817E+00
         -2   -1    0    0    0  501 -0.00000000000E+00  0.00000000000E+00  0.74602986847E+01  0.74602986847E+01  0.00000000000E+00 0.  1.
          2   -1    0    0  501    0  0.00000000000E+00 -0.00000000000E+00 -0.25222392373E+04  0.25222392373E+04  0.00000000000E+00 0.  1.
         35    2    1    2    0    0  0.00000000000E+00  0.00000000000E+00 -0.25147789386E+04  0.25296995360E+04  0.27434764854E+03 0.  0.
         25    1    3    3    0    0 -0.58768041068E+02 -0.19935438321E+02 -0.14766722995E+04  0.14828392308E+04  0.12000000000E+03 0.  0.
         25    1    3    3    0    0  0.58768041068E+02  0.19935438321E+02 -0.10381066392E+04  0.10468603052E+04  0.12000000000E+03 0.  0.
<mgrwt>
<rscale>  0 0.27434765E+03</rscale>
<asrwt>0</asrwt>
<pdfrwt beam="1">  1        2 0.38803686E+00 0.27434765E+03</pdfrwt>
<pdfrwt beam="2">  1       -2 0.11477381E-02 0.27434765E+03</pdfrwt>
<totfact> 0.68028884E+03</totfact>
</mgrwt>
</event>
<event>
 5    1  0.1107336E+001  0.2750214E+03  0.7818608E-02  0.1098440E+00
          1   -1    0    0  501    0  0.00000000000E+00  0.00000000000E+00  0.14782333172E+03  0.14782333172E+03  0.00000000000E+00 0.  1.
         -1   -1    0    0    0  501 -0.00000000000E+00 -0.00000000000E+00 -0.12791755030E+03  0.12791755030E+03  0.00000000000E+00 0.  1.
         35    2    1    2    0    0  0.00000000000E+00  0.00000000000E+00  0.19905781428E+02  0.27574088202E+03  0.27502144259E+03 0.  0.
         25    1    3    3    0    0 -0.56577767447E+02  0.27666674253E+02  0.33309965519E+02  0.13955659224E+03  0.12000000000E+03 0.  0.
         25    1    3    3    0    0  0.56577767447E+02 -0.27666674253E+02 -0.13404184091E+02  0.13618428979E+03  0.12000000000E+03 0.  0.
<mgrwt>
<rscale>  0 0.27502144E+03</rscale>
<asrwt>0</asrwt>
<pdfrwt beam="1">  1        1 0.22742051E-01 0.27502144E+03</pdfrwt>
<pdfrwt beam="2">  1       -1 0.19679623E-01 0.27502144E+03</pdfrwt>
<totfact> 0.44469173E+03</totfact>
</mgrwt>
</event>
<event>
 5    1  0.1107336E+001  0.2786888E+03  0.7818608E-02  0.1096407E+00
          1   -1    0    0  501    0  0.00000000000E+00  0.00000000000E+00  0.13184950328E+04  0.13184950328E+04  0.00000000000E+00 0. -1.
         -1   -1    0    0    0  501 -0.00000000000E+00 -0.00000000000E+00 -0.14726531850E+02  0.14726531850E+02  0.00000000000E+00 0. -1.
         35    2    1    2    0    0  0.00000000000E+00  0.00000000000E+00  0.13037685009E+04  0.13332215646E+04  0.27868878050E+03 0.  0.
         25    1    3    3    0    0 -0.34256633439E+02 -0.96482367851E+01  0.35892098497E+03  0.38011955864E+03  0.12000000000E+03 0.  0.
         25    1    3    3    0    0  0.34256633439E+02  0.96482367851E+01  0.94484751597E+03  0.95310200600E+03  0.12000000000E+03 0.  0.
<mgrwt>
<rscale>  0 0.27868878E+03</rscale>
<asrwt>0</asrwt>
<pdfrwt beam="1">  1        1 0.20284530E+00 0.27868878E+03</pdfrwt>
<pdfrwt beam="2">  1       -1 0.22656213E-02 0.27868878E+03</pdfrwt>
<totfact> 0.54132801E+03</totfact>
</mgrwt>
</event>
<event>
 5    1  0.1107336E+001  0.2748265E+03  0.7818608E-02  0.1098549E+00
          2   -1    0    0  501    0  0.00000000000E+00  0.00000000000E+00  0.66419471989E+03  0.66419471989E+03  0.00000000000E+00 0. -1.
         -2   -1    0    0    0  501 -0.00000000000E+00 -0.00000000000E+00 -0.28429015714E+02  0.28429015714E+02  0.00000000000E+00 0. -1.
         35    2    1    2    0    0  0.00000000000E+00  0.00000000000E+00  0.63576570418E+03  0.69262373561E+03  0.27482650621E+03 0.  0.
         25    1    3    3    0    0  0.60141450575E+00  0.60678061754E+02  0.38917498745E+03  0.41175157526E+03  0.12000000000E+03 0.  0.
         25    1    3    3    0    0 -0.60141450575E+00 -0.60678061754E+02  0.24659071673E+03  0.28087216034E+03  0.12000000000E+03 0.  0.
<mgrwt>
<rscale>  0 0.27482651E+03</rscale>
<asrwt>0</asrwt>
<pdfrwt beam="1">  1        2 0.10218379E+00 0.27482651E+03</pdfrwt>
<pdfrwt beam="2">  1       -2 0.43736952E-02 0.27482651E+03</pdfrwt>
<totfact> 0.10686486E+04</totfact>
</mgrwt>
</event>
<event>
 5    1  0.1107336E+001  0.2743237E+03  0.7818608E-02  0.1098830E+00
          1   -1    0    0  501    0  0.00000000000E+00  0.00000000000E+00  0.87928088685E+02  0.87928088685E+02  0.00000000000E+00 0.  1.
         -1   -1    0    0    0  501 -0.00000000000E+00 -0.00000000000E+00 -0.21396323203E+03  0.21396323203E+03  0.00000000000E+00 0.  1.
         35    2    1    2    0    0  0.00000000000E+00  0.00000000000E+00 -0.12603514334E+03  0.30189132071E+03  0.27432373606E+03 0.  0.
         25    1    3    3    0    0 -0.54400950322E+02 -0.25957816533E+02 -0.32280381612E+02  0.13811333995E+03  0.12000000000E+03 0.  0.
         25    1    3    3    0    0  0.54400950322E+02  0.25957816533E+02 -0.93754761728E+02  0.16377798076E+03  0.12000000000E+03 0.  0.
<mgrwt>
<rscale>  0 0.27432374E+03</rscale>
<asrwt>0</asrwt>
<pdfrwt beam="1">  1        1 0.13527398E-01 0.27432374E+03</pdfrwt>
<pdfrwt beam="2">  1       -1 0.32917420E-01 0.27432374E+03</pdfrwt>
<totfact> 0.37012234E+03</totfact>
</mgrwt>
</event>
<event>
 5    1  0.1107336E+001  0.2753606E+03  0.7818608E-02  0.1098250E+00
         -2   -1    0    0    0  501 -0.00000000000E+00  0.00000000000E+00  0.90746709574E+01  0.90746709574E+01  0.00000000000E+00 0.  1.
          2   -1    0    0  501    0  0.00000000000E+00 -0.00000000000E+00 -0.20888761428E+04  0.20888761428E+04  0.00000000000E+00 0.  1.
         35    2    1    2    0    0  0.00000000000E+00  0.00000000000E+00 -0.20798014718E+04  0.20979508137E+04  0.27536059026E+03 0.  0.
         25    1    3    3    0    0 -0.39089378287E+02  0.44270406798E+02 -0.79091054066E+03  0.80213922217E+03  0.12000000000E+03 0.  0.
         25    1    3    3    0    0  0.39089378287E+02 -0.44270406798E+02 -0.12888909312E+04  0.12958115916E+04  0.12000000000E+03 0.  0.
<mgrwt>
<rscale>  0 0.27536059E+03</rscale>
<asrwt>0</asrwt>
<pdfrwt beam="1">  1        2 0.32136526E+00 0.27536059E+03</pdfrwt>
<pdfrwt beam="2">  1       -2 0.13961045E-02 0.27536059E+03</pdfrwt>
<totfact> 0.87401132E+03</totfact>
</mgrwt>
</event>
<event>
 5    1  0.1107336E+001  0.2655429E+03  0.7818608E-02  0.1103858E+00
         -1   -1    0    0    0  501 -0.00000000000E+00  0.00000000000E+00  0.47104983387E+03  0.47104983387E+03  0.00000000000E+00 0.  1.
          1   -1    0    0  501    0  0.00000000000E+00 -0.00000000000E+00 -0.37423340376E+02  0.37423340376E+02  0.00000000000E+00 0.  1.
         35    2    1    2    0    0  0.00000000000E+00  0.00000000000E+00  0.43362649350E+03  0.50847317425E+03  0.26554290250E+03 0.  0.
         25    1    3    3    0    0 -0.43968399356E+02 -0.22400218129E+02  0.27074486006E+03  0.30022952746E+03  0.12000000000E+03 0.  0.
         25    1    3    3    0    0  0.43968399356E+02  0.22400218129E+02  0.16288163344E+03  0.20824364678E+03  0.12000000000E+03 0.  0.
<mgrwt>
<rscale>  0 0.26554290E+03</rscale>
<asrwt>0</asrwt>
<pdfrwt beam="1">  1        1 0.57574373E-02 0.26554290E+03</pdfrwt>
<pdfrwt beam="2">  1       -1 0.72469201E-01 0.26554290E+03</pdfrwt>
<totfact> 0.27249483E+03</totfact>
</mgrwt>
</event>
<event>
 5    1  0.1107336E+001  0.2736975E+03  0.7818608E-02  0.1099182E+00
          1   -1    0    0  501    0  0.00000000000E+00  0.00000000000E+00  0.15884022059E+03  0.15884022059E+03  0.00000000000E+00 0.  1.
         -1   -1    0    0    0  501 -0.00000000000E+00 -0.00000000000E+00 -0.11790196918E+03  0.11790196918E+03  0.00000000000E+00 0.  1.
         35    2    1    2    0    0  0.00000000000E+00  0.00000000000E+00  0.40938251407E+02  0.27674218977E+03  0.27369745919E+03 0.  0.
         25    1    3    3    0    0 -0.28505944595E+02 -0.50987125207E+02  0.51059591925E+02  0.14289631815E+03  0.12000000000E+03 0.  0.
         25    1    3    3    0    0  0.28505944595E+02  0.50987125207E+02 -0.10121340518E+02  0.13384587161E+03  0.12000000000E+03 0.  0.
<mgrwt>
<rscale>  0 0.27369746E+03</rscale>
<asrwt>0</asrwt>
<pdfrwt beam="1">  1        1 0.24436957E-01 0.27369746E+03</pdfrwt>
<pdfrwt beam="2">  1       -1 0.18138764E-01 0.27369746E+03</pdfrwt>
<totfact> 0.46280852E+03</totfact>
</mgrwt>
</event>
<event>
 5    1  0.1107336E+001  0.2747330E+03  0.7818608E-02  0.1098601E+00
         -3   -1    0    0    0  501 -0.00000000000E+00  0.00000000000E+00  0.74001069661E+03  0.74001069661E+03  0.00000000000E+00 0.  1.
          3   -1    0    0  501    0  0.00000000000E+00 -0.00000000000E+00 -0.25499038580E+02  0.25499038580E+02  0.00000000000E+00 0.  1.
         35    2    1    2    0    0  0.00000000000E+00  0.00000000000E+00  0.71451165803E+03  0.76550973519E+03  0.27473304353E+03 0.  0.
         25    1    3    3    0    0  0.56152432180E+02  0.32563707593E+02  0.31266765481E+03  0.34113714699E+03  0.12000000000E+03 0.  0.
         25    1    3    3    0    0 -0.56152432180E+02 -0.32563707593E+02  0.40184400322E+03  0.42437258820E+03  0.12000000000E+03 0.  0.
<mgrwt>
<rscale>  0 0.27473304E+03</rscale>
<asrwt>0</asrwt>
<pdfrwt beam="1">  1        3 0.39229296E-02 0.27473304E+03</pdfrwt>
<pdfrwt beam="2">  1       -3 0.11384778E+00 0.27473304E+03</pdfrwt>
<totfact> 0.56849640E+02</totfact>
</mgrwt>
</event>
<event>
 5    1  0.1107336E+001  0.2746627E+03  0.7818608E-02  0.1098640E+00
         -1   -1    0    0    0  501 -0.00000000000E+00  0.00000000000E+00  0.17597901752E+02  0.17597901752E+02  0.00000000000E+00 0. -1.
          1   -1    0    0  501    0  0.00000000000E+00 -0.00000000000E+00 -0.10717130224E+04  0.10717130224E+04  0.00000000000E+00 0. -1.
         35    2    1    2    0    0  0.00000000000E+00  0.00000000000E+00 -0.10541151207E+04  0.10893109242E+04  0.27466270570E+03 0.  0.
         25    1    3    3    0    0  0.53356183644E+02  0.13772100554E+02 -0.37743136964E+03  0.39986371663E+03  0.12000000000E+03 0.  0.
         25    1    3    3    0    0 -0.53356183644E+02 -0.13772100554E+02 -0.67668375101E+03  0.68944720753E+03  0.12000000000E+03 0.  0.
<mgrwt>
<rscale>  0 0.27466271E+03</rscale>
<asrwt>0</asrwt>
<pdfrwt beam="1">  1        1 0.16487898E+00 0.27466271E+03</pdfrwt>
<pdfrwt beam="2">  1       -1 0.27073686E-02 0.27466271E+03</pdfrwt>
<totfact> 0.62083713E+03</totfact>
</mgrwt>
</event>
<event>
 5    1  0.1107336E+001  0.2752579E+03  0.7818608E-02  0.1098308E+00
         -3   -1    0    0    0  501 -0.00000000000E+00  0.00000000000E+00  0.87762522229E+03  0.87762522229E+03  0.00000000000E+00 0. -1.
          3   -1    0    0  501    0  0.00000000000E+00 -0.00000000000E+00 -0.21582935272E+02  0.21582935272E+02  0.00000000000E+00 0. -1.
         35    2    1    2    0    0  0.00000000000E+00  0.00000000000E+00  0.85604228701E+03  0.89920815756E+03  0.27525790354E+03 0.  0.
         25    1    3    3    0    0 -0.29203533107E+02 -0.56149439810E+02  0.35238098529E+03  0.37759497445E+03  0.12000000000E+03 0.  0.
         25    1    3    3    0    0  0.29203533107E+02  0.56149439810E+02  0.50366130173E+03  0.52161318311E+03  0.12000000000E+03 0.  0.
<mgrwt>
<rscale>  0 0.27525790E+03</rscale>
<asrwt>0</asrwt>
<pdfrwt beam="1">  1        3 0.33204523E-02 0.27525790E+03</pdfrwt>
<pdfrwt beam="2">  1       -3 0.13501924E+00 0.27525790E+03</pdfrwt>
<totfact> 0.49011710E+02</totfact>
</mgrwt>
</event>
<event>
 5    1  0.1107336E+001  0.2747236E+03  0.7818608E-02  0.1098606E+00
         -2   -1    0    0    0  501 -0.00000000000E+00  0.00000000000E+00  0.32199224999E+02  0.32199224999E+02  0.00000000000E+00 0. -1.
          2   -1    0    0  501    0  0.00000000000E+00 -0.00000000000E+00 -0.58598511821E+03  0.58598511821E+03  0.00000000000E+00 0. -1.
         35    2    1    2    0    0  0.00000000000E+00  0.00000000000E+00 -0.55378589322E+03  0.61818434321E+03  0.27472361870E+03 0.  0.
         25    1    3    3    0    0  0.49493965614E+02 -0.44898570737E+02 -0.27317337741E+03  0.30576008309E+03  0.12000000000E+03 0.  0.
         25    1    3    3    0    0 -0.49493965614E+02  0.44898570737E+02 -0.28061251581E+03  0.31242426013E+03  0.12000000000E+03 0.  0.
<mgrwt>
<rscale>  0 0.27472362E+03</rscale>
<asrwt>0</asrwt>
<pdfrwt beam="1">  1        2 0.90151551E-01 0.27472362E+03</pdfrwt>
<pdfrwt beam="2">  1       -2 0.49537272E-02 0.27472362E+03</pdfrwt>
<totfact> 0.10251226E+04</totfact>
</mgrwt>
</event>
<event>
 5    1  0.1107336E+001  0.2746758E+03  0.7818608E-02  0.1098633E+00
         -2   -1    0    0    0  501 -0.00000000000E+00  0.00000000000E+00  0.11607721015E+02  0.11607721015E+02  0.00000000000E+00 0.  1.
          2   -1    0    0  501    0  0.00000000000E+00 -0.00000000000E+00 -0.16249273720E+04  0.16249273720E+04  0.00000000000E+00 0.  1.
         35    2    1    2    0    0  0.00000000000E+00  0.00000000000E+00 -0.16133196510E+04  0.16365350930E+04  0.27467583514E+03 0.  0.
         25    1    3    3    0    0 -0.58185735825E+02  0.19713730185E+02 -0.96288063367E+03  0.97227224876E+03  0.12000000000E+03 0.  0.
         25    1    3    3    0    0  0.58185735825E+02 -0.19713730185E+02 -0.65043901731E+03  0.66426284425E+03  0.12000000000E+03 0.  0.
<mgrwt>
<rscale>  0 0.27467584E+03</rscale>
<asrwt>0</asrwt>
<pdfrwt beam="1">  1        2 0.24998897E+00 0.27467584E+03</pdfrwt>
<pdfrwt beam="2">  1       -2 0.17858022E-02 0.27467584E+03</pdfrwt>
<totfact> 0.10691062E+04</totfact>
</mgrwt>
</event>
<event>
 5    1  0.1107336E+001  0.2735409E+03  0.7818608E-02  0.1099270E+00
          2   -1    0    0  501    0  0.00000000000E+00  0.00000000000E+00  0.28906083703E+04  0.28906083703E+04  0.00000000000E+00 0.  1.
         -2   -1    0    0    0  501 -0.00000000000E+00 -0.00000000000E+00 -0.64713552006E+01  0.64713552006E+01  0.00000000000E+00 0.  1.
         35    2    1    2    0    0  0.00000000000E+00  0.00000000000E+00  0.28841370151E+04  0.28970797255E+04  0.27354088184E+03 0.  0.
         25    1    3    3    0    0  0.40838542961E+02 -0.39968445346E+02  0.17837651283E+04  0.17887099531E+04  0.12000000000E+03 0.  0.
         25    1    3    3    0    0 -0.40838542961E+02  0.39968445346E+02  0.11003718868E+04  0.11083697724E+04  0.12000000000E+03 0.  0.
<mgrwt>
<rscale>  0 0.27354088E+03</rscale>
<asrwt>0</asrwt>
<pdfrwt beam="1">  1        2 0.44470795E+00 0.27354088E+03</pdfrwt>
<pdfrwt beam="2">  1       -2 0.99559542E-03 0.27354088E+03</pdfrwt>
<totfact> 0.51839584E+03</totfact>
</mgrwt>
</event>
<event>
 5    1  0.1107336E+001  0.2736678E+03  0.7818608E-02  0.1099199E+00
          2   -1    0    0  501    0  0.00000000000E+00  0.00000000000E+00  0.15689579490E+03  0.15689579490E+03  0.00000000000E+00 0.  1.
         -2   -1    0    0    0  501 -0.00000000000E+00 -0.00000000000E+00 -0.11933730866E+03  0.11933730866E+03  0.00000000000E+00 0.  1.
         35    2    1    2    0    0  0.00000000000E+00  0.00000000000E+00  0.37558486243E+02  0.27623310356E+03  0.27366784176E+03 0.  0.
         25    1    3    3    0    0 -0.22730064011E+02 -0.50388193856E+02 -0.17162056241E+02  0.13322973416E+03  0.12000000000E+03 0.  0.
         25    1    3    3    0    0  0.22730064011E+02  0.50388193856E+02  0.54720542484E+02  0.14300336940E+03  0.12000000000E+03 0.  0.
<mgrwt>
<rscale>  0 0.27366784E+03</rscale>
<asrwt>0</asrwt>
<pdfrwt beam="1">  1        2 0.24137815E-01 0.27366784E+03</pdfrwt>
<pdfrwt beam="2">  1       -2 0.18359586E-01 0.27366784E+03</pdfrwt>
<totfact> 0.54092225E+03</totfact>
</mgrwt>
</event>
<event>
 5    1  0.1107336E+001  0.2614380E+03  0.7818608E-02  0.1106282E+00
          2   -1    0    0  501    0  0.00000000000E+00  0.00000000000E+00  0.10495074105E+03  0.10495074105E+03  0.00000000000E+00 0.  1.
         -2   -1    0    0    0  501 -0.00000000000E+00 -0.00000000000E+00 -0.16281402640E+03  0.16281402640E+03  0.00000000000E+00 0.  1.
         35    2    1    2    0    0  0.00000000000E+00  0.00000000000E+00 -0.57863285352E+02  0.26776476745E+03  0.26143796759E+03 0.  0.
         25    1    3    3    0    0  0.21881276422E+02  0.38501598928E+01  0.19040279817E+02  0.12351577326E+03  0.12000000000E+03 0.  0.
         25    1    3    3    0    0 -0.21881276422E+02 -0.38501598928E+01 -0.76903565169E+02  0.14424899419E+03  0.12000000000E+03 0.  0.
<mgrwt>
<rscale>  0 0.26143797E+03</rscale>
<asrwt>0</asrwt>
<pdfrwt beam="1">  1        2 0.16146268E-01 0.26143797E+03</pdfrwt>
<pdfrwt beam="2">  1       -2 0.25048312E-01 0.26143797E+03</pdfrwt>
<totfact> 0.50091349E+03</totfact>
</mgrwt>
</event>
<event>
 5    1  0.1107336E+001  0.2754652E+03  0.7818608E-02  0.1098192E+00
         -2   -1    0    0    0  501 -0.00000000000E+00  0.00000000000E+00  0.55538641107E+02  0.55538641107E+02  0.00000000000E+00 0.  1.
          2   -1    0    0  501    0  0.00000000000E+00 -0.00000000000E+00 -0.34156873700E+03  0.34156873700E+03  0.00000000000E+00 0.  1.
         35    2    1    2    0    0  0.00000000000E+00  0.00000000000E+00 -0.28603009589E+03  0.39710737810E+03  0.27546515930E+03 0.  0.
         25    1    3    3    0    0  0.66856353850E+01 -0.10063593163E+02 -0.47127311763E+02  0.12948728564E+03  0.12000000000E+03 0.  0.
         25    1    3    3    0    0 -0.66856353850E+01  0.10063593163E+02 -0.23890278413E+03  0.26762009246E+03  0.12000000000E+03 0.  0.
<mgrwt>
<rscale>  0 0.27546516E+03</rscale>
<asrwt>0</asrwt>
<pdfrwt beam="1">  1        2 0.52549035E-01 0.27546516E+03</pdfrwt>
<pdfrwt beam="2">  1       -2 0.85444065E-02 0.27546516E+03</pdfrwt>
<totfact> 0.80320747E+03</totfact>
</mgrwt>
</event>
<event>
 5    1  0.1107336E+001  0.2751172E+03  0.7818608E-02  0.1098386E+00
         -2   -1    0    0    0  501 -0.00000000000E+00  0.00000000000E+00  0.17965265916E+03  0.17965265916E+03  0.00000000000E+00 0.  1.
          2   -1    0    0  501    0  0.00000000000E+00 -0.00000000000E+00 -0.10532753399E+03  0.10532753399E+03  0.00000000000E+00 0.  1.
         35    2    1    2    0    0  0.00000000000E+00  0.00000000000E+00  0.74325125165E+02  0.28498019315E+03  0.27511722276E+03 0.  0.
         25    1    3    3    0    0 -0.54154199474E+02  0.34922887063E+02  0.17235267814E+02  0.13729289792E+03  0.12000000000E+03 0.  0.
         25    1    3    3    0    0  0.54154199474E+02 -0.34922887063E+02  0.57089857351E+02  0.14768729524E+03  0.12000000000E+03 0.  0.
<mgrwt>
<rscale>  0 0.27511722E+03</rscale>
<asrwt>0</asrwt>
<pdfrwt beam="1">  1        2 0.16204236E-01 0.27511722E+03</pdfrwt>
<pdfrwt beam="2">  1       -2 0.27638871E-01 0.27511722E+03</pdfrwt>
<totfact> 0.41950670E+03</totfact>
</mgrwt>
</event>
<event>
 5    1  0.1107336E+001  0.2743534E+03  0.7818608E-02  0.1098814E+00
          2   -1    0    0  501    0  0.00000000000E+00  0.00000000000E+00  0.83815457728E+03  0.83815457728E+03  0.00000000000E+00 0. -1.
         -2   -1    0    0    0  501 -0.00000000000E+00 -0.00000000000E+00 -0.22451045862E+02  0.22451045862E+02  0.00000000000E+00 0. -1.
         35    2    1    2    0    0  0.00000000000E+00  0.00000000000E+00  0.81570353142E+03  0.86060562315E+03  0.27435339877E+03 0.  0.
         25    1    3    3    0    0 -0.59722403423E+02  0.25562027222E+02  0.36379446201E+03  0.38854419735E+03  0.12000000000E+03 0.  0.
         25    1    3    3    0    0  0.59722403423E+02 -0.25562027222E+02  0.45190906942E+03  0.47206142580E+03  0.12000000000E+03 0.  0.
<mgrwt>
<rscale>  0 0.27435340E+03</rscale>
<asrwt>0</asrwt>
<pdfrwt beam="1">  1        2 0.12894683E+00 0.27435340E+03</pdfrwt>
<pdfrwt beam="2">  1       -2 0.34540077E-02 0.27435340E+03</pdfrwt>
<totfact> 0.11412865E+04</totfact>
</mgrwt>
</event>
<event>
 5    1  0.1107336E+001  0.2747381E+03  0.7818608E-02  0.1098598E+00
         -1   -1    0    0    0  501 -0.00000000000E+00  0.00000000000E+00  0.61423433575E+01  0.61423433575E+01  0.00000000000E+00 0.  1.
          1   -1    0    0  501    0  0.00000000000E+00 -0.00000000000E+00 -0.30721585044E+04  0.30721585044E+04  0.00000000000E+00 0.  1.
         35    2    1    2    0    0  0.00000000000E+00  0.00000000000E+00 -0.30660161610E+04  0.30783008477E+04  0.27473807441E+03 0.  0.
         25    1    3    3    0    0 -0.49430800201E+02  0.43885494318E+02 -0.16455626438E+04  0.16512558116E+04  0.12000000000E+03 0.  0.
         25    1    3    3    0    0  0.49430800201E+02 -0.43885494318E+02 -0.14204535172E+04  0.14270450361E+04  0.12000000000E+03 0.  0.
<mgrwt>
<rscale>  0 0.27473807E+03</rscale>
<asrwt>0</asrwt>
<pdfrwt beam="1">  1        1 0.47264060E+00 0.27473807E+03</pdfrwt>
<pdfrwt beam="2">  1       -1 0.94497425E-03 0.27473807E+03</pdfrwt>
<totfact> 0.13146726E+03</totfact>
</mgrwt>
</event>
<event>
 5    1  0.1107336E+001  0.2754277E+03  0.7818608E-02  0.1098213E+00
         -2   -1    0    0    0  501 -0.00000000000E+00  0.00000000000E+00  0.11457810682E+02  0.11457810682E+02  0.00000000000E+00 0. -1.
          2   -1    0    0  501    0  0.00000000000E+00 -0.00000000000E+00 -0.16552119639E+04  0.16552119639E+04  0.00000000000E+00 0. -1.
         35    2    1    2    0    0  0.00000000000E+00  0.00000000000E+00 -0.16437541532E+04  0.16666697746E+04  0.27542770610E+03 0.  0.
         25    1    3    3    0    0  0.49760009284E+02  0.21468759471E+02 -0.10660444863E+04  0.10741451545E+04  0.12000000000E+03 0.  0.
         25    1    3    3    0    0 -0.49760009284E+02 -0.21468759471E+02 -0.57770966688E+03  0.59252462005E+03  0.12000000000E+03 0.  0.
<mgrwt>
<rscale>  0 0.27542771E+03</rscale>
<asrwt>0</asrwt>
<pdfrwt beam="1">  1        2 0.25464823E+00 0.27542771E+03</pdfrwt>
<pdfrwt beam="2">  1       -2 0.17627384E-02 0.27542771E+03</pdfrwt>
<totfact> 0.10503243E+04</totfact>
</mgrwt>
</event>
<event>
 5    1  0.1107336E+001  0.2762210E+03  0.7818608E-02  0.1097771E+00
         -2   -1    0    0    0  501 -0.00000000000E+00  0.00000000000E+00  0.96278621074E+01  0.96278621074E+01  0.00000000000E+00 0.  1.
          2   -1    0    0  501    0  0.00000000000E+00 -0.00000000000E+00 -0.19811785291E+04  0.19811785291E+04  0.00000000000E+00 0.  1.
         35    2    1    2    0    0  0.00000000000E+00  0.00000000000E+00 -0.19715506670E+04  0.19908063912E+04  0.27622102518E+03 0.  0.
         25    1    3    3    0    0 -0.22221829483E+02  0.63233113269E+02 -0.88846954655E+03  0.89903858175E+03  0.12000000000E+03 0.  0.
         25    1    3    3    0    0  0.22221829483E+02 -0.63233113269E+02 -0.10830811204E+04  0.10917678095E+04  0.12000000000E+03 0.  0.
<mgrwt>
<rscale>  0 0.27622103E+03</rscale>
<asrwt>0</asrwt>
<pdfrwt beam="1">  1        2 0.30479682E+00 0.27622103E+03</pdfrwt>
<pdfrwt beam="2">  1       -2 0.14812089E-02 0.27622103E+03</pdfrwt>
<totfact> 0.91350453E+03</totfact>
</mgrwt>
</event>
<event>
 5    1  0.1107336E+001  0.2745212E+03  0.7818608E-02  0.1098720E+00
          3   -1    0    0  501    0  0.00000000000E+00  0.00000000000E+00  0.38793462075E+02  0.38793462075E+02  0.00000000000E+00 0. -1.
         -3   -1    0    0    0  501 -0.00000000000E+00 -0.00000000000E+00 -0.48566089467E+03  0.48566089467E+03  0.00000000000E+00 0. -1.
         35    2    1    2    0    0  0.00000000000E+00  0.00000000000E+00 -0.44686743259E+03  0.52445435675E+03  0.27452116493E+03 0.  0.
         25    1    3    3    0    0 -0.16714870389E+02 -0.50570160826E+02 -0.29994029292E+03  0.32741549654E+03  0.12000000000E+03 0.  0.
         25    1    3    3    0    0  0.16714870389E+02  0.50570160826E+02 -0.14692713968E+03  0.19703886021E+03  0.12000000000E+03 0.  0.
<mgrwt>
<rscale>  0 0.27452116E+03</rscale>
<asrwt>0</asrwt>
<pdfrwt beam="1">  1        3 0.59682252E-02 0.27452116E+03</pdfrwt>
<pdfrwt beam="2">  1       -3 0.74717058E-01 0.27452116E+03</pdfrwt>
<totfact> 0.75424624E+02</totfact>
</mgrwt>
</event>
<event>
 5    1  0.1107336E+001  0.2766283E+03  0.7818608E-02  0.1097545E+00
         -1   -1    0    0    0  501 -0.00000000000E+00  0.00000000000E+00  0.70071853721E+02  0.70071853721E+02  0.00000000000E+00 0.  1.
          1   -1    0    0  501    0  0.00000000000E+00 -0.00000000000E+00 -0.27301696864E+03  0.27301696864E+03  0.00000000000E+00 0.  1.
         35    2    1    2    0    0  0.00000000000E+00  0.00000000000E+00 -0.20294511492E+03  0.34308882236E+03  0.27662830723E+03 0.  0.
         25    1    3    3    0    0 -0.41944408418E+02  0.13812266403E+02 -0.16687387102E+03  0.21023082773E+03  0.12000000000E+03 0.  0.
         25    1    3    3    0    0  0.41944408418E+02 -0.13812266403E+02 -0.36071243905E+02  0.13285799463E+03  0.12000000000E+03 0.  0.
<mgrwt>
<rscale>  0 0.27662831E+03</rscale>
<asrwt>0</asrwt>
<pdfrwt beam="1">  1        1 0.42002611E-01 0.27662831E+03</pdfrwt>
<pdfrwt beam="2">  1       -1 0.10780285E-01 0.27662831E+03</pdfrwt>
<totfact> 0.53191825E+03</totfact>
</mgrwt>
</event>
<event>
 5    1  0.1107336E+001  0.2751758E+03  0.7818608E-02  0.1098353E+00
          2   -1    0    0  501    0  0.00000000000E+00  0.00000000000E+00  0.48605094815E+02  0.48605094815E+02  0.00000000000E+00 0.  1.
         -2   -1    0    0    0  501 -0.00000000000E+00 -0.00000000000E+00 -0.38947433752E+03  0.38947433752E+03  0.00000000000E+00 0.  1.
         35    2    1    2    0    0  0.00000000000E+00  0.00000000000E+00 -0.34086924271E+03  0.43807943234E+03  0.27517584998E+03 0.  0.
         25    1    3    3    0    0  0.67023538237E+02 -0.58196422272E+01 -0.16708983762E+03  0.21643714272E+03  0.12000000000E+03 0.  0.
         25    1    3    3    0    0 -0.67023538237E+02  0.58196422272E+01 -0.17377940509E+03  0.22164228962E+03  0.12000000000E+03 0.  0.
<mgrwt>
<rscale>  0 0.27517585E+03</rscale>
<asrwt>0</asrwt>
<pdfrwt beam="1">  1        2 0.74777071E-02 0.27517585E+03</pdfrwt>
<pdfrwt beam="2">  1       -2 0.59919127E-01 0.27517585E+03</pdfrwt>
<totfact> 0.24526585E+03</totfact>
</mgrwt>
</event>
<event>
 5    1  0.1107336E+001  0.2732840E+03  0.7818608E-02  0.1099415E+00
          2   -1    0    0  501    0  0.00000000000E+00  0.00000000000E+00  0.10046272983E+04  0.10046272983E+04  0.00000000000E+00 0. -1.
         -2   -1    0    0    0  501 -0.00000000000E+00 -0.00000000000E+00 -0.18585032465E+02  0.18585032465E+02  0.00000000000E+00 0. -1.
         35    2    1    2    0    0  0.00000000000E+00  0.00000000000E+00  0.98604226587E+03  0.10232123308E+04  0.27328396188E+03 0.  0.
         25    1    3    3    0    0 -0.10502003549E+02 -0.64011621642E+02  0.46324379246E+03  0.48291054144E+03  0.12000000000E+03 0.  0.
         25    1    3    3    0    0  0.10502003549E+02  0.64011621642E+02  0.52279847341E+03  0.54030178936E+03  0.12000000000E+03 0.  0.
<mgrwt>
<rscale>  0 0.27328396E+03</rscale>
<asrwt>0</asrwt>
<pdfrwt beam="1">  1        2 0.15455800E+00 0.27328396E+03</pdfrwt>
<pdfrwt beam="2">  1       -2 0.28592366E-02 0.27328396E+03</pdfrwt>
<totfact> 0.11837837E+04</totfact>
</mgrwt>
</event>
<event>
 5    1  0.1107336E+001  0.2757014E+03  0.7818608E-02  0.1098060E+00
         -2   -1    0    0    0  501 -0.00000000000E+00  0.00000000000E+00  0.50381227624E+02  0.50381227624E+02  0.00000000000E+00 0.  1.
          2   -1    0    0  501    0  0.00000000000E+00 -0.00000000000E+00 -0.37718061045E+03  0.37718061045E+03  0.00000000000E+00 0.  1.
         35    2    1    2    0    0  0.00000000000E+00  0.00000000000E+00 -0.32679938283E+03  0.42756183807E+03  0.27570144860E+03 0.  0.
         25    1    3    3    0    0 -0.28171657259E+02 -0.37601801145E+00 -0.67687431614E+02  0.14062493399E+03  0.12000000000E+03 0.  0.
         25    1    3    3    0    0  0.28171657259E+02  0.37601801145E+00 -0.25911195121E+03  0.28693690408E+03  0.12000000000E+03 0.  0.
<mgrwt>
<rscale>  0 0.27570145E+03</rscale>
<asrwt>0</asrwt>
<pdfrwt beam="1">  1        2 0.58027784E-01 0.27570145E+03</pdfrwt>
<pdfrwt beam="2">  1       -2 0.77509584E-02 0.27570145E+03</pdfrwt>
<totfact> 0.84043799E+03</totfact>
</mgrwt>
</event>
<event>
 5    1  0.1107336E+001  0.2758446E+03  0.7818608E-02  0.1097980E+00
         -1   -1    0    0    0  501 -0.00000000000E+00  0.00000000000E+00  0.18191670129E+02  0.18191670129E+02  0.00000000000E+00 0. -1.
          1   -1    0    0  501    0  0.00000000000E+00 -0.00000000000E+00 -0.10456743424E+04  0.10456743424E+04  0.00000000000E+00 0. -1.
         35    2    1    2    0    0  0.00000000000E+00  0.00000000000E+00 -0.10274826723E+04  0.10638660125E+04  0.27584461350E+03 0.  0.
         25    1    3    3    0    0  0.83273094558E+01  0.16149175808E+02 -0.26105970589E+03  0.28789287939E+03  0.12000000000E+03 0.  0.
         25    1    3    3    0    0 -0.83273094558E+01 -0.16149175808E+02 -0.76642296640E+03  0.77597313316E+03  0.12000000000E+03 0.  0.
<mgrwt>
<rscale>  0 0.27584461E+03</rscale>
<asrwt>0</asrwt>
<pdfrwt beam="1">  1        1 0.16087301E+00 0.27584461E+03</pdfrwt>
<pdfrwt beam="2">  1       -1 0.27987179E-02 0.27584461E+03</pdfrwt>
<totfact> 0.61778950E+03</totfact>
</mgrwt>
</event>
<event>
 5    1  0.1107336E+001  0.2751390E+03  0.7818608E-02  0.1098374E+00
         -2   -1    0    0    0  501 -0.00000000000E+00  0.00000000000E+00  0.20158916365E+03  0.20158916365E+03  0.00000000000E+00 0.  1.
          2   -1    0    0  501    0  0.00000000000E+00 -0.00000000000E+00 -0.93880868740E+02  0.93880868740E+02  0.00000000000E+00 0.  1.
         35    2    1    2    0    0  0.00000000000E+00  0.00000000000E+00  0.10770829491E+03  0.29547003239E+03  0.27513898897E+03 0.  0.
         25    1    3    3    0    0 -0.96422307374E+01 -0.20454793495E+02  0.12189185872E+03  0.17253694217E+03  0.12000000000E+03 0.  0.
         25    1    3    3    0    0  0.96422307374E+01  0.20454793495E+02 -0.14183563805E+02  0.12293309023E+03  0.12000000000E+03 0.  0.
<mgrwt>
<rscale>  0 0.27513899E+03</rscale>
<asrwt>0</asrwt>
<pdfrwt beam="1">  1        2 0.14443211E-01 0.27513899E+03</pdfrwt>
<pdfrwt beam="2">  1       -2 0.31013717E-01 0.27513899E+03</pdfrwt>
<totfact> 0.39022571E+03</totfact>
</mgrwt>
</event>
<event>
 5    1  0.1107336E+001  0.2780608E+03  0.7818608E-02  0.1096753E+00
          1   -1    0    0  501    0  0.00000000000E+00  0.00000000000E+00  0.21671181297E+03  0.21671181297E+03  0.00000000000E+00 0.  1.
         -1   -1    0    0    0  501 -0.00000000000E+00 -0.00000000000E+00 -0.89194251101E+02  0.89194251101E+02  0.00000000000E+00 0.  1.
         35    2    1    2    0    0  0.00000000000E+00  0.00000000000E+00  0.12751756187E+03  0.30590606408E+03  0.27806076935E+03 0.  0.
         25    1    3    3    0    0  0.48825141464E+02  0.94170430141E+01  0.11828930804E+03  0.17568419261E+03  0.12000000000E+03 0.  0.
         25    1    3    3    0    0 -0.48825141464E+02 -0.94170430141E+01  0.92282538357E+01  0.13022187146E+03  0.12000000000E+03 0.  0.
<mgrwt>
<rscale>  0 0.27806077E+03</rscale>
<asrwt>0</asrwt>
<pdfrwt beam="1">  1        1 0.33340279E-01 0.27806077E+03</pdfrwt>
<pdfrwt beam="2">  1       -1 0.13722193E-01 0.27806077E+03</pdfrwt>
<totfact> 0.48753453E+03</totfact>
</mgrwt>
</event>
<event>
 5    1  0.1107336E+001  0.2750400E+03  0.7818608E-02  0.1098429E+00
          1   -1    0    0  501    0  0.00000000000E+00  0.00000000000E+00  0.92605001589E+03  0.92605001589E+03  0.00000000000E+00 0.  1.
         -1   -1    0    0    0  501 -0.00000000000E+00 -0.00000000000E+00 -0.20421949793E+02  0.20421949793E+02  0.00000000000E+00 0.  1.
         35    2    1    2    0    0  0.00000000000E+00  0.00000000000E+00  0.90562806610E+03  0.94647196569E+03  0.27503997477E+03 0.  0.
         25    1    3    3    0    0  0.17165210325E+02  0.60360549678E+02  0.37038943634E+03  0.39436832397E+03  0.12000000000E+03 0.  0.
         25    1    3    3    0    0 -0.17165210325E+02 -0.60360549678E+02  0.53523862976E+03  0.55210364171E+03  0.12000000000E+03 0.  0.
<mgrwt>
<rscale>  0 0.27503997E+03</rscale>
<asrwt>0</asrwt>
<pdfrwt beam="1">  1        1 0.14246920E+00 0.27503997E+03</pdfrwt>
<pdfrwt beam="2">  1       -1 0.31418391E-02 0.27503997E+03</pdfrwt>
<totfact> 0.64106409E+03</totfact>
</mgrwt>
</event>
<event>
 5    1  0.1107336E+001  0.2754105E+03  0.7818608E-02  0.1098222E+00
         -1   -1    0    0    0  501 -0.00000000000E+00  0.00000000000E+00  0.10360267956E+02  0.10360267956E+02  0.00000000000E+00 0. -1.
          1   -1    0    0  501    0  0.00000000000E+00 -0.00000000000E+00 -0.18303324951E+04  0.18303324951E+04  0.00000000000E+00 0. -1.
         35    2    1    2    0    0  0.00000000000E+00  0.00000000000E+00 -0.18199722272E+04  0.18406927631E+04  0.27541049434E+03 0.  0.
         25    1    3    3    0    0  0.46162117144E+02 -0.82801541480E+01 -0.58508283098E+03  0.59910051003E+03  0.12000000000E+03 0.  0.
         25    1    3    3    0    0 -0.46162117144E+02  0.82801541480E+01 -0.12348893962E+04  0.12415922531E+04  0.12000000000E+03 0.  0.
<mgrwt>
<rscale>  0 0.27541049E+03</rscale>
<asrwt>0</asrwt>
<pdfrwt beam="1">  1        1 0.28158952E+00 0.27541049E+03</pdfrwt>
<pdfrwt beam="2">  1       -1 0.15938879E-02 0.27541049E+03</pdfrwt>
<totfact> 0.41540517E+03</totfact>
</mgrwt>
</event>
<event>
 5    1  0.1107336E+001  0.2750084E+03  0.7818608E-02  0.1098447E+00
         -2   -1    0    0    0  501 -0.00000000000E+00  0.00000000000E+00  0.86749639769E+01  0.86749639769E+01  0.00000000000E+00 0. -1.
          2   -1    0    0  501    0  0.00000000000E+00 -0.00000000000E+00 -0.21795369450E+04  0.21795369450E+04  0.00000000000E+00 0. -1.
         35    2    1    2    0    0  0.00000000000E+00  0.00000000000E+00 -0.21708619811E+04  0.21882119090E+04  0.27500839612E+03 0.  0.
         25    1    3    3    0    0 -0.62614037220E+02  0.22325450600E+02 -0.10105934425E+04  0.10198617796E+04  0.12000000000E+03 0.  0.
         25    1    3    3    0    0  0.62614037220E+02 -0.22325450600E+02 -0.11602685385E+04  0.11683501294E+04  0.12000000000E+03 0.  0.
<mgrwt>
<rscale>  0 0.27500840E+03</rscale>
<asrwt>0</asrwt>
<pdfrwt beam="1">  1        2 0.33531351E+00 0.27500840E+03</pdfrwt>
<pdfrwt beam="2">  1       -2 0.13346093E-02 0.27500840E+03</pdfrwt>
<totfact> 0.83572872E+03</totfact>
</mgrwt>
</event>
<event>
 5    1  0.1107336E+001  0.2752294E+03  0.7818608E-02  0.1098323E+00
         -2   -1    0    0    0  501 -0.00000000000E+00  0.00000000000E+00  0.10107793330E+03  0.10107793330E+03  0.00000000000E+00 0. -1.
          2   -1    0    0  501    0  0.00000000000E+00 -0.00000000000E+00 -0.18735850676E+03  0.18735850676E+03  0.00000000000E+00 0. -1.
         35    2    1    2    0    0  0.00000000000E+00  0.00000000000E+00 -0.86280573460E+02  0.28843644007E+03  0.27522943629E+03 0.  0.
         25    1    3    3    0    0  0.23622955320E+02  0.38586694433E+02  0.91628346574E+01  0.12857268195E+03  0.12000000000E+03 0.  0.
         25    1    3    3    0    0 -0.23622955320E+02 -0.38586694433E+02 -0.95443408117E+02  0.15986375811E+03  0.12000000000E+03 0.  0.
<mgrwt>
<rscale>  0 0.27522944E+03</rscale>
<asrwt>0</asrwt>
<pdfrwt beam="1">  1        2 0.28824386E-01 0.27522944E+03</pdfrwt>
<pdfrwt beam="2">  1       -2 0.15550451E-01 0.27522944E+03</pdfrwt>
<totfact> 0.58661481E+03</totfact>
</mgrwt>
</event>
<event>
 5    1  0.1107336E+001  0.2757760E+03  0.7818608E-02  0.1098019E+00
         -2   -1    0    0    0  501 -0.00000000000E+00  0.00000000000E+00  0.18669195402E+03  0.18669195402E+03  0.00000000000E+00 0. -1.
          2   -1    0    0  501    0  0.00000000000E+00 -0.00000000000E+00 -0.10184210833E+03  0.10184210833E+03  0.00000000000E+00 0. -1.
         35    2    1    2    0    0  0.00000000000E+00  0.00000000000E+00  0.84849845690E+02  0.28853406235E+03  0.27577601205E+03 0.  0.
         25    1    3    3    0    0  0.29952145443E+02 -0.55941386862E+02  0.67763756249E+02  0.15171847759E+03  0.12000000000E+03 0.  0.
         25    1    3    3    0    0 -0.29952145443E+02  0.55941386862E+02  0.17086089441E+02  0.13681558476E+03  0.12000000000E+03 0.  0.
<mgrwt>
<rscale>  0 0.27577601E+03</rscale>
<asrwt>0</asrwt>
<pdfrwt beam="1">  1        2 0.15668017E-01 0.27577601E+03</pdfrwt>
<pdfrwt beam="2">  1       -2 0.28721839E-01 0.27577601E+03</pdfrwt>
<totfact> 0.40734469E+03</totfact>
</mgrwt>
</event>
<event>
 5    1  0.1107336E+001  0.2746482E+03  0.7818608E-02  0.1098648E+00
         -2   -1    0    0    0  501 -0.00000000000E+00  0.00000000000E+00  0.87496129315E+03  0.87496129315E+03  0.00000000000E+00 0. -1.
          2   -1    0    0  501    0  0.00000000000E+00 -0.00000000000E+00 -0.21552852408E+02  0.21552852408E+02  0.00000000000E+00 0. -1.
         35    2    1    2    0    0  0.00000000000E+00  0.00000000000E+00  0.85340844074E+03  0.89651414556E+03  0.27464822311E+03 0.  0.
         25    1    3    3    0    0  0.54689916762E+02 -0.21294165271E+02  0.32278673767E+03  0.34933609388E+03  0.12000000000E+03 0.  0.
         25    1    3    3    0    0 -0.54689916762E+02  0.21294165271E+02  0.53062170307E+03  0.54717805168E+03  0.12000000000E+03 0.  0.
<mgrwt>
<rscale>  0 0.27464822E+03</rscale>
<asrwt>0</asrwt>
<pdfrwt beam="1">  1        2 0.33158241E-02 0.27464822E+03</pdfrwt>
<pdfrwt beam="2">  1       -2 0.13460940E+00 0.27464822E+03</pdfrwt>
<totfact> 0.11423988E+03</totfact>
</mgrwt>
</event>
<event>
 5    1  0.1107336E+001  0.2743879E+03  0.7818608E-02  0.1098794E+00
         -2   -1    0    0    0  501 -0.00000000000E+00  0.00000000000E+00  0.29908663383E+02  0.29908663383E+02  0.00000000000E+00 0.  1.
          2   -1    0    0  501    0  0.00000000000E+00 -0.00000000000E+00 -0.62932222549E+03  0.62932222549E+03  0.00000000000E+00 0.  1.
         35    2    1    2    0    0  0.00000000000E+00  0.00000000000E+00 -0.59941356211E+03  0.65923088888E+03  0.27438794873E+03 0.  0.
         25    1    3    3    0    0 -0.30167399514E+02  0.31541257076E+02 -0.42024835917E+03  0.43921931455E+03  0.12000000000E+03 0.  0.
         25    1    3    3    0    0  0.30167399514E+02 -0.31541257076E+02 -0.17916520294E+03  0.22001157432E+03  0.12000000000E+03 0.  0.
<mgrwt>
<rscale>  0 0.27438795E+03</rscale>
<asrwt>0</asrwt>
<pdfrwt beam="1">  1        2 0.96818799E-01 0.27438795E+03</pdfrwt>
<pdfrwt beam="2">  1       -2 0.46013331E-02 0.27438795E+03</pdfrwt>
<totfact> 0.10549845E+04</totfact>
</mgrwt>
</event>
<event>
 5    1  0.1107336E+001  0.2751768E+03  0.7818608E-02  0.1098353E+00
         -2   -1    0    0    0  501 -0.00000000000E+00  0.00000000000E+00  0.47307723945E+01  0.47307723945E+01  0.00000000000E+00 0. -1.
          2   -1    0    0  501    0  0.00000000000E+00 -0.00000000000E+00 -0.40015809499E+04  0.40015809499E+04  0.00000000000E+00 0. -1.
         35    2    1    2    0    0  0.00000000000E+00  0.00000000000E+00 -0.39968501775E+04  0.40063117222E+04  0.27517680638E+03 0.  0.
         25    1    3    3    0    0 -0.48591397173E+02 -0.17998387022E+02 -0.13729784325E+04  0.13791862970E+04  0.12000000000E+03 0.  0.
         25    1    3    3    0    0  0.48591397173E+02  0.17998387022E+02 -0.26238717450E+04  0.26271254252E+04  0.12000000000E+03 0.  0.
<mgrwt>
<rscale>  0 0.27517681E+03</rscale>
<asrwt>0</asrwt>
<pdfrwt beam="1">  1        2 0.61562970E+00 0.27517681E+03</pdfrwt>
<pdfrwt beam="2">  1       -2 0.72780893E-03 0.27517681E+03</pdfrwt>
<totfact> 0.15072478E+03</totfact>
</mgrwt>
</event>
<event>
 5    1  0.1107336E+001  0.2727193E+03  0.7818608E-02  0.1099733E+00
         -4   -1    0    0    0  501 -0.00000000000E+00  0.00000000000E+00  0.41008193347E+02  0.41008193347E+02  0.00000000000E+00 0.  1.
          4   -1    0    0  501    0  0.00000000000E+00 -0.00000000000E+00 -0.45342039120E+03  0.45342039120E+03  0.00000000000E+00 0.  1.
         35    2    1    2    0    0  0.00000000000E+00  0.00000000000E+00 -0.41241219786E+03  0.49442858455E+03  0.27271927743E+03 0.  0.
         25    1    3    3    0    0 -0.29039155372E+02  0.56096564345E+02 -0.18032114803E+03  0.22562316704E+03  0.12000000000E+03 0.  0.
         25    1    3    3    0    0  0.29039155372E+02 -0.56096564345E+02 -0.23209104982E+03  0.26880541751E+03  0.12000000000E+03 0.  0.
<mgrwt>
<rscale>  0 0.27271928E+03</rscale>
<asrwt>0</asrwt>
<pdfrwt beam="1">  1        4 0.69756985E-01 0.27271928E+03</pdfrwt>
<pdfrwt beam="2">  1       -4 0.63089527E-02 0.27271928E+03</pdfrwt>
<totfact> 0.58777401E+02</totfact>
</mgrwt>
</event>
<event>
 5    1  0.1107336E+001  0.2757531E+03  0.7818608E-02  0.1098031E+00
         -2   -1    0    0    0  501 -0.00000000000E+00  0.00000000000E+00  0.88601487597E+01  0.88601487597E+01  0.00000000000E+00 0. -1.
          2   -1    0    0  501    0  0.00000000000E+00 -0.00000000000E+00 -0.21455550415E+04  0.21455550415E+04  0.00000000000E+00 0. -1.
         35    2    1    2    0    0  0.00000000000E+00  0.00000000000E+00 -0.21366948927E+04  0.21544151903E+04  0.27575305503E+03 0.  0.
         25    1    3    3    0    0  0.22477773587E+02  0.10532954358E+02 -0.15620883973E+04  0.15668874735E+04  0.12000000000E+03 0.  0.
         25    1    3    3    0    0 -0.22477773587E+02 -0.10532954358E+02 -0.57460649542E+03  0.58752771681E+03  0.12000000000E+03 0.  0.
<mgrwt>
<rscale>  0 0.27575306E+03</rscale>
<asrwt>0</asrwt>
<pdfrwt beam="1">  1        2 0.33008504E+00 0.27575306E+03</pdfrwt>
<pdfrwt beam="2">  1       -2 0.13631012E-02 0.27575306E+03</pdfrwt>
<totfact> 0.84471334E+03</totfact>
</mgrwt>
</event>
<event>
 5    1  0.1107336E+001  0.2894751E+03  0.7818608E-02  0.1090624E+00
          2   -1    0    0  501    0  0.00000000000E+00  0.00000000000E+00  0.43531076338E+03  0.43531076338E+03  0.00000000000E+00 0.  1.
         -2   -1    0    0    0  501 -0.00000000000E+00 -0.00000000000E+00 -0.48124148467E+02  0.48124148467E+02  0.00000000000E+00 0.  1.
         35    2    1    2    0    0  0.00000000000E+00  0.00000000000E+00  0.38718661491E+03  0.48343491184E+03  0.28947510985E+03 0.  0.
         25    1    3    3    0    0  0.50092781827E+02  0.63130670241E+02  0.20588728249E+03  0.25156379192E+03  0.12000000000E+03 0.  0.
         25    1    3    3    0    0 -0.50092781827E+02 -0.63130670241E+02  0.18129933242E+03  0.23187111992E+03  0.12000000000E+03 0.  0.
<mgrwt>
<rscale>  0 0.28947511E+03</rscale>
<asrwt>0</asrwt>
<pdfrwt beam="1">  1        2 0.66970884E-01 0.28947511E+03</pdfrwt>
<pdfrwt beam="2">  1       -2 0.74037155E-02 0.28947511E+03</pdfrwt>
<totfact> 0.77344192E+03</totfact>
</mgrwt>
</event>
<event>
 5    1  0.1107336E+001  0.2744342E+03  0.7818608E-02  0.1098768E+00
         -1   -1    0    0    0  501 -0.00000000000E+00  0.00000000000E+00  0.24969808040E+02  0.24969808040E+02  0.00000000000E+00 0. -1.
          1   -1    0    0  501    0  0.00000000000E+00 -0.00000000000E+00 -0.75405168554E+03  0.75405168554E+03  0.00000000000E+00 0. -1.
         35    2    1    2    0    0  0.00000000000E+00  0.00000000000E+00 -0.72908187750E+03  0.77902149358E+03  0.27443415123E+03 0.  0.
         25    1    3    3    0    0 -0.61300366318E+02 -0.19312000064E+01 -0.29122571080E+03  0.32089543325E+03  0.12000000000E+03 0.  0.
         25    1    3    3    0    0  0.61300366318E+02  0.19312000064E+01 -0.43785616669E+03  0.45812606033E+03  0.12000000000E+03 0.  0.
<mgrwt>
<rscale>  0 0.27443415E+03</rscale>
<asrwt>0</asrwt>
<pdfrwt beam="1">  1        1 0.11600795E+00 0.27443415E+03</pdfrwt>
<pdfrwt beam="2">  1       -1 0.38415091E-02 0.27443415E+03</pdfrwt>
<totfact> 0.65745754E+03</totfact>
</mgrwt>
</event>
<event>
 5    1  0.1107336E+001  0.2750925E+03  0.7818608E-02  0.1098400E+00
          3   -1    0    0  501    0  0.00000000000E+00  0.00000000000E+00  0.15960958781E+04  0.15960958781E+04  0.00000000000E+00 0.  1.
         -3   -1    0    0    0  501 -0.00000000000E+00 -0.00000000000E+00 -0.11853278180E+02  0.11853278180E+02  0.00000000000E+00 0.  1.
         35    2    1    2    0    0  0.00000000000E+00  0.00000000000E+00  0.15842425999E+04  0.16079491563E+04  0.27509248222E+03 0.  0.
         25    1    3    3    0    0  0.35154850669E+02 -0.24237464344E+02  0.48864459424E+03  0.50497213555E+03  0.12000000000E+03 0.  0.
         25    1    3    3    0    0 -0.35154850669E+02  0.24237464344E+02  0.10955980057E+04  0.11029770207E+04  0.12000000000E+03 0.  0.
<mgrwt>
<rscale>  0 0.27509248E+03</rscale>
<asrwt>0</asrwt>
<pdfrwt beam="1">  1        3 0.24555304E+00 0.27509248E+03</pdfrwt>
<pdfrwt beam="2">  1       -3 0.18235825E-02 0.27509248E+03</pdfrwt>
<totfact> 0.24341071E+02</totfact>
</mgrwt>
</event>
<event>
 5    1  0.1107336E+001  0.2743876E+03  0.7818608E-02  0.1098794E+00
          1   -1    0    0  501    0  0.00000000000E+00  0.00000000000E+00  0.62399823682E+03  0.62399823682E+03  0.00000000000E+00 0. -1.
         -1   -1    0    0    0  501 -0.00000000000E+00 -0.00000000000E+00 -0.30163764354E+02  0.30163764354E+02  0.00000000000E+00 0. -1.
         35    2    1    2    0    0  0.00000000000E+00  0.00000000000E+00  0.59383447246E+03  0.65416200117E+03  0.27438757824E+03 0.  0.
         25    1    3    3    0    0  0.26407927057E+02  0.40083575536E+02  0.18719606882E+03  0.22747843814E+03  0.12000000000E+03 0.  0.
         25    1    3    3    0    0 -0.26407927057E+02 -0.40083575536E+02  0.40663840364E+03  0.42668356303E+03  0.12000000000E+03 0.  0.
<mgrwt>
<rscale>  0 0.27438758E+03</rscale>
<asrwt>0</asrwt>
<pdfrwt beam="1">  1        1 0.95999719E-01 0.27438758E+03</pdfrwt>
<pdfrwt beam="2">  1       -1 0.46405796E-02 0.27438758E+03</pdfrwt>
<totfact> 0.65289979E+03</totfact>
</mgrwt>
</event>
<event>
 5    1  0.1107336E+001  0.2746203E+03  0.7818608E-02  0.1098664E+00
         -2   -1    0    0    0  501 -0.00000000000E+00  0.00000000000E+00  0.11830938966E+03  0.11830938966E+03  0.00000000000E+00 0. -1.
          2   -1    0    0  501    0  0.00000000000E+00 -0.00000000000E+00 -0.15936244576E+03  0.15936244576E+03  0.00000000000E+00 0. -1.
         35    2    1    2    0    0  0.00000000000E+00  0.00000000000E+00 -0.41053056099E+02  0.27767183541E+03  0.27462027377E+03 0.  0.
         25    1    3    3    0    0  0.49438753554E+02 -0.16767465969E+02  0.21513548762E+02  0.13262040208E+03  0.12000000000E+03 0.  0.
         25    1    3    3    0    0 -0.49438753554E+02  0.16767465969E+02 -0.62566604861E+02  0.14505143333E+03  0.12000000000E+03 0.  0.
<mgrwt>
<rscale>  0 0.27462027E+03</rscale>
<asrwt>0</asrwt>
<pdfrwt beam="1">  1        2 0.24517299E-01 0.27462027E+03</pdfrwt>
<pdfrwt beam="2">  1       -2 0.18201445E-01 0.27462027E+03</pdfrwt>
<totfact> 0.53944505E+03</totfact>
</mgrwt>
</event>
<event>
 5    1  0.1107336E+001  0.2750969E+03  0.7818608E-02  0.1098397E+00
         -2   -1    0    0    0  501 -0.00000000000E+00  0.00000000000E+00  0.17473315420E+02  0.17473315420E+02  0.00000000000E+00 0. -1.
          2   -1    0    0  501    0  0.00000000000E+00 -0.00000000000E+00 -0.10827699362E+04  0.10827699362E+04  0.00000000000E+00 0. -1.
         35    2    1    2    0    0  0.00000000000E+00  0.00000000000E+00 -0.10652966207E+04  0.11002432516E+04  0.27509693289E+03 0.  0.
         25    1    3    3    0    0 -0.60827666964E+01 -0.52146488303E+02 -0.70059407841E+03  0.71273299278E+03  0.12000000000E+03 0.  0.
         25    1    3    3    0    0  0.60827666964E+01  0.52146488303E+02 -0.36470254233E+03  0.38751025880E+03  0.12000000000E+03 0.  0.
<mgrwt>
<rscale>  0 0.27509693E+03</rscale>
<asrwt>0</asrwt>
<pdfrwt beam="1">  1        2 0.16658004E+00 0.27509693E+03</pdfrwt>
<pdfrwt beam="2">  1       -2 0.26882015E-02 0.27509693E+03</pdfrwt>
<totfact> 0.11645924E+04</totfact>
</mgrwt>
</event>
<event>
 5    1  0.1107336E+001  0.2755996E+03  0.7818608E-02  0.1098117E+00
          2   -1    0    0  501    0  0.00000000000E+00  0.00000000000E+00  0.55317363572E+02  0.55317363572E+02  0.00000000000E+00 0. -1.
         -2   -1    0    0    0  501 -0.00000000000E+00 -0.00000000000E+00 -0.34326978835E+03  0.34326978835E+03  0.00000000000E+00 0. -1.
         35    2    1    2    0    0  0.00000000000E+00  0.00000000000E+00 -0.28795242478E+03  0.39858715193E+03  0.27559956230E+03 0.  0.
         25    1    3    3    0    0  0.58293385277E+02  0.29281150596E+02 -0.11757364069E+03  0.18021949266E+03  0.12000000000E+03 0.  0.
         25    1    3    3    0    0 -0.58293385277E+02 -0.29281150596E+02 -0.17037878409E+03  0.21836765927E+03  0.12000000000E+03 0.  0.
<mgrwt>
<rscale>  0 0.27559956E+03</rscale>
<asrwt>0</asrwt>
<pdfrwt beam="1">  1        2 0.85103636E-02 0.27559956E+03</pdfrwt>
<pdfrwt beam="2">  1       -2 0.52810737E-01 0.27559956E+03</pdfrwt>
<totfact> 0.26934811E+03</totfact>
</mgrwt>
</event>
<event>
 5    1  0.1107336E+001  0.2731740E+03  0.7818608E-02  0.1099477E+00
          2   -1    0    0  501    0  0.00000000000E+00  0.00000000000E+00  0.62256795872E+03  0.62256795872E+03  0.00000000000E+00 0.  1.
         -2   -1    0    0    0  501 -0.00000000000E+00 -0.00000000000E+00 -0.29966215902E+02  0.29966215902E+02  0.00000000000E+00 0.  1.
         35    2    1    2    0    0  0.00000000000E+00  0.00000000000E+00  0.59260174282E+03  0.65253417462E+03  0.27317398020E+03 0.  0.
         25    1    3    3    0    0 -0.54077161757E+02 -0.25525198233E+02  0.35859686531E+03  0.38284146455E+03  0.12000000000E+03 0.  0.
         25    1    3    3    0    0  0.54077161757E+02  0.25525198233E+02  0.23400487751E+03  0.26969271008E+03  0.12000000000E+03 0.  0.
<mgrwt>
<rscale>  0 0.27317398E+03</rscale>
<asrwt>0</asrwt>
<pdfrwt beam="1">  1        2 0.95779676E-01 0.27317398E+03</pdfrwt>
<pdfrwt beam="2">  1       -2 0.46101875E-02 0.27317398E+03</pdfrwt>
<totfact> 0.10651526E+04</totfact>
</mgrwt>
</event>
<event>
 5    1  0.1107336E+001  0.2744149E+03  0.7818608E-02  0.1098779E+00
         -1   -1    0    0    0  501 -0.00000000000E+00  0.00000000000E+00  0.26531366106E+02  0.26531366106E+02  0.00000000000E+00 0.  1.
          1   -1    0    0  501    0  0.00000000000E+00 -0.00000000000E+00 -0.70957110157E+03  0.70957110157E+03  0.00000000000E+00 0.  1.
         35    2    1    2    0    0  0.00000000000E+00  0.00000000000E+00 -0.68303973546E+03  0.73610246767E+03  0.27441494620E+03 0.  0.
         25    1    3    3    0    0  0.51295975860E+02 -0.24255369018E+02 -0.43468566077E+03  0.45450107123E+03  0.12000000000E+03 0.  0.
         25    1    3    3    0    0 -0.51295975860E+02  0.24255369018E+02 -0.24835407469E+03  0.28160139644E+03  0.12000000000E+03 0.  0.
<mgrwt>
<rscale>  0 0.27441495E+03</rscale>
<asrwt>0</asrwt>
<pdfrwt beam="1">  1        1 0.10916477E+00 0.27441495E+03</pdfrwt>
<pdfrwt beam="2">  1       -1 0.40817490E-02 0.27441495E+03</pdfrwt>
<totfact> 0.65746408E+03</totfact>
</mgrwt>
</event>
<event>
 5    1  0.1107336E+001  0.2752773E+03  0.7818608E-02  0.1098297E+00
          1   -1    0    0  501    0  0.00000000000E+00  0.00000000000E+00  0.10471536145E+03  0.10471536145E+03  0.00000000000E+00 0. -1.
         -1   -1    0    0    0  501 -0.00000000000E+00 -0.00000000000E+00 -0.18091327922E+03  0.18091327922E+03  0.00000000000E+00 0. -1.
         35    2    1    2    0    0  0.00000000000E+00  0.00000000000E+00 -0.76197917768E+02  0.28562864067E+03  0.27527731054E+03 0.  0.
         25    1    3    3    0    0 -0.44303357289E+01 -0.44054412248E+02 -0.90843307905E+02  0.15688507164E+03  0.12000000000E+03 0.  0.
         25    1    3    3    0    0  0.44303357289E+01  0.44054412248E+02  0.14645390137E+02  0.12874356903E+03  0.12000000000E+03 0.  0.
<mgrwt>
<rscale>  0 0.27527731E+03</rscale>
<asrwt>0</asrwt>
<pdfrwt beam="1">  1        1 0.16110056E-01 0.27527731E+03</pdfrwt>
<pdfrwt beam="2">  1       -1 0.27832812E-01 0.27527731E+03</pdfrwt>
<totfact> 0.39160285E+03</totfact>
</mgrwt>
</event>
<event>
 5    1  0.1107336E+001  0.2743056E+03  0.7818608E-02  0.1098840E+00
          2   -1    0    0  501    0  0.00000000000E+00  0.00000000000E+00  0.10480718535E+04  0.10480718535E+04  0.00000000000E+00 0.  1.
         -2   -1    0    0    0  501 -0.00000000000E+00 -0.00000000000E+00 -0.17948090193E+02  0.17948090193E+02  0.00000000000E+00 0.  1.
         35    2    1    2    0    0  0.00000000000E+00  0.00000000000E+00  0.10301237633E+04  0.10660199437E+04  0.27430558256E+03 0.  0.
         25    1    3    3    0    0 -0.43043474996E+02 -0.50576385182E+02  0.51342837101E+03  0.53143146655E+03  0.12000000000E+03 0.  0.
         25    1    3    3    0    0  0.43043474996E+02  0.50576385182E+02  0.51669539230E+03  0.53458847715E+03  0.12000000000E+03 0.  0.
<mgrwt>
<rscale>  0 0.27430558E+03</rscale>
<asrwt>0</asrwt>
<pdfrwt beam="1">  1        2 0.16124178E+00 0.27430558E+03</pdfrwt>
<pdfrwt beam="2">  1       -2 0.27612455E-02 0.27430558E+03</pdfrwt>
<totfact> 0.11735978E+04</totfact>
</mgrwt>
</event>
<event>
 5    1  0.1107336E+001  0.2768200E+03  0.7818608E-02  0.1097439E+00
          2   -1    0    0  501    0  0.00000000000E+00  0.00000000000E+00  0.99792170251E+03  0.99792170251E+03  0.00000000000E+00 0.  1.
         -2   -1    0    0    0  501 -0.00000000000E+00 -0.00000000000E+00 -0.19197220018E+02  0.19197220018E+02  0.00000000000E+00 0.  1.
         35    2    1    2    0    0  0.00000000000E+00  0.00000000000E+00  0.97872448249E+03  0.10171189225E+04  0.27681995942E+03 0.  0.
         25    1    3    3    0    0  0.39098762174E+00  0.68914683056E+02  0.49971311783E+03  0.51851961057E+03  0.12000000000E+03 0.  0.
         25    1    3    3    0    0 -0.39098762174E+00 -0.68914683056E+02  0.47901136466E+03  0.49859931196E+03  0.12000000000E+03 0.  0.
<mgrwt>
<rscale>  0 0.27681996E+03</rscale>
<asrwt>0</asrwt>
<pdfrwt beam="1">  1        2 0.15352638E+00 0.27681996E+03</pdfrwt>
<pdfrwt beam="2">  1       -2 0.29534192E-02 0.27681996E+03</pdfrwt>
<totfact> 0.11392753E+04</totfact>
</mgrwt>
</event>
<event>
 5    1  0.1107336E+001  0.2743043E+03  0.7818608E-02  0.1098841E+00
         -2   -1    0    0    0  501 -0.00000000000E+00  0.00000000000E+00  0.84357719426E+02  0.84357719426E+02  0.00000000000E+00 0.  1.
          2   -1    0    0  501    0  0.00000000000E+00 -0.00000000000E+00 -0.22298744785E+03  0.22298744785E+03  0.00000000000E+00 0.  1.
         35    2    1    2    0    0  0.00000000000E+00  0.00000000000E+00 -0.13862972842E+03  0.30734516727E+03  0.27430430227E+03 0.  0.
         25    1    3    3    0    0 -0.13688190346E+02 -0.64522323908E+02 -0.60620281906E+02  0.14975084446E+03  0.12000000000E+03 0.  0.
         25    1    3    3    0    0  0.13688190346E+02  0.64522323908E+02 -0.78009446514E+02  0.15759432281E+03  0.12000000000E+03 0.  0.
<mgrwt>
<rscale>  0 0.27430430E+03</rscale>
<asrwt>0</asrwt>
<pdfrwt beam="1">  1        2 0.34305760E-01 0.27430430E+03</pdfrwt>
<pdfrwt beam="2">  1       -2 0.12978111E-01 0.27430430E+03</pdfrwt>
<totfact> 0.65254972E+03</totfact>
</mgrwt>
</event>
<event>
 5    1  0.1107336E+001  0.2771639E+03  0.7818608E-02  0.1097248E+00
         -2   -1    0    0    0  501 -0.00000000000E+00  0.00000000000E+00  0.36684051516E+02  0.36684051516E+02  0.00000000000E+00 0. -1.
          2   -1    0    0  501    0  0.00000000000E+00 -0.00000000000E+00 -0.52352318418E+03  0.52352318418E+03  0.00000000000E+00 0. -1.
         35    2    1    2    0    0  0.00000000000E+00  0.00000000000E+00 -0.48683913267E+03  0.56020723570E+03  0.27716386098E+03 0.  0.
         25    1    3    3    0    0  0.58510592378E+02  0.36459873717E+02 -0.25801429925E+03  0.29278693692E+03  0.12000000000E+03 0.  0.
         25    1    3    3    0    0 -0.58510592378E+02 -0.36459873717E+02 -0.22882483342E+03  0.26742029878E+03  0.12000000000E+03 0.  0.
<mgrwt>
<rscale>  0 0.27716386E+03</rscale>
<asrwt>0</asrwt>
<pdfrwt beam="1">  1        2 0.80542029E-01 0.27716386E+03</pdfrwt>
<pdfrwt beam="2">  1       -2 0.56437002E-02 0.27716386E+03</pdfrwt>
<totfact> 0.95600173E+03</totfact>
</mgrwt>
</event>
<event>
 5    1  0.1107336E+001  0.2748018E+03  0.7818608E-02  0.1098562E+00
          2   -1    0    0  501    0  0.00000000000E+00  0.00000000000E+00  0.20909010543E+04  0.20909010543E+04  0.00000000000E+00 0.  1.
         -2   -1    0    0    0  501 -0.00000000000E+00 -0.00000000000E+00 -0.90291232448E+01  0.90291232448E+01  0.00000000000E+00 0.  1.
         35    2    1    2    0    0  0.00000000000E+00  0.00000000000E+00  0.20818719311E+04  0.20999301776E+04  0.27480177083E+03 0.  0.
         25    1    3    3    0    0 -0.51541564054E+02 -0.39720944493E+02  0.11604771205E+04  0.11684782554E+04  0.12000000000E+03 0.  0.
         25    1    3    3    0    0  0.51541564054E+02  0.39720944493E+02  0.92139481065E+03  0.93145192218E+03  0.12000000000E+03 0.  0.
<mgrwt>
<rscale>  0 0.27480177E+03</rscale>
<asrwt>0</asrwt>
<pdfrwt beam="1">  1        2 0.32167670E+00 0.27480177E+03</pdfrwt>
<pdfrwt beam="2">  1       -2 0.13890976E-02 0.27480177E+03</pdfrwt>
<totfact> 0.87828240E+03</totfact>
</mgrwt>
</event>
<event>
 5    1  0.1107336E+001  0.2748428E+03  0.7818608E-02  0.1098540E+00
          2   -1    0    0  501    0  0.00000000000E+00  0.00000000000E+00  0.17898369596E+03  0.17898369596E+03  0.00000000000E+00 0. -1.
         -2   -1    0    0    0  501 -0.00000000000E+00 -0.00000000000E+00 -0.10551037065E+03  0.10551037065E+03  0.00000000000E+00 0. -1.
         35    2    1    2    0    0  0.00000000000E+00  0.00000000000E+00  0.73473325307E+02  0.28449406661E+03  0.27484276305E+03 0.  0.
         25    1    3    3    0    0 -0.58321146999E+01  0.30113357839E+02 -0.24883666345E+02  0.12633299147E+03  0.12000000000E+03 0.  0.
         25    1    3    3    0    0  0.58321146999E+01 -0.30113357839E+02  0.98356991651E+02  0.15816107514E+03  0.12000000000E+03 0.  0.
<mgrwt>
<rscale>  0 0.27484276E+03</rscale>
<asrwt>0</asrwt>
<pdfrwt beam="1">  1        2 0.27535953E-01 0.27484276E+03</pdfrwt>
<pdfrwt beam="2">  1       -2 0.16232365E-01 0.27484276E+03</pdfrwt>
<totfact> 0.57445565E+03</totfact>
</mgrwt>
</event>
<event>
 5    1  0.1107336E+001  0.2749463E+03  0.7818608E-02  0.1098482E+00
         -3   -1    0    0    0  501 -0.00000000000E+00  0.00000000000E+00  0.16347415517E+03  0.16347415517E+03  0.00000000000E+00 0.  1.
          3   -1    0    0  501    0  0.00000000000E+00 -0.00000000000E+00 -0.11560768610E+03  0.11560768610E+03  0.00000000000E+00 0.  1.
         35    2    1    2    0    0  0.00000000000E+00  0.00000000000E+00  0.47866469067E+02  0.27908184127E+03  0.27494631342E+03 0.  0.
         25    1    3    3    0    0 -0.79504756779E+01  0.65510276341E+02  0.36116369960E+02  0.14163050007E+03  0.12000000000E+03 0.  0.
         25    1    3    3    0    0  0.79504756779E+01 -0.65510276341E+02  0.11750099106E+02  0.13745134120E+03  0.12000000000E+03 0.  0.
<mgrwt>
<rscale>  0 0.27494631E+03</rscale>
<asrwt>0</asrwt>
<pdfrwt beam="1">  1        3 0.17785798E-01 0.27494631E+03</pdfrwt>
<pdfrwt beam="2">  1       -3 0.25149870E-01 0.27494631E+03</pdfrwt>
<totfact> 0.10432718E+03</totfact>
</mgrwt>
</event>
<event>
 5    1  0.1107336E+001  0.2746913E+03  0.7818608E-02  0.1098624E+00
          2   -1    0    0  501    0  0.00000000000E+00  0.00000000000E+00  0.83774498642E+03  0.83774498642E+03  0.00000000000E+00 0. -1.
         -2   -1    0    0    0  501 -0.00000000000E+00 -0.00000000000E+00 -0.22517380898E+02  0.22517380898E+02  0.00000000000E+00 0. -1.
         35    2    1    2    0    0  0.00000000000E+00  0.00000000000E+00  0.81522760552E+03  0.86026236732E+03  0.27469126637E+03 0.  0.
         25    1    3    3    0    0 -0.36750692831E+02 -0.47836091750E+02  0.31766582044E+03  0.34489198102E+03  0.12000000000E+03 0.  0.
         25    1    3    3    0    0  0.36750692831E+02  0.47836091750E+02  0.49756178508E+03  0.51537038630E+03  0.12000000000E+03 0.  0.
<mgrwt>
<rscale>  0 0.27469127E+03</rscale>
<asrwt>0</asrwt>
<pdfrwt beam="1">  1        2 0.12888382E+00 0.27469127E+03</pdfrwt>
<pdfrwt beam="2">  1       -2 0.34642131E-02 0.27469127E+03</pdfrwt>
<totfact> 0.11370305E+04</totfact>
</mgrwt>
</event>
<event>
 5    1  0.1107336E+001  0.2750407E+03  0.7818608E-02  0.1098429E+00
          2   -1    0    0  501    0  0.00000000000E+00  0.00000000000E+00  0.15071031950E+03  0.15071031950E+03  0.00000000000E+00 0.  1.
         -2   -1    0    0    0  501 -0.00000000000E+00 -0.00000000000E+00 -0.12548471409E+03  0.12548471409E+03  0.00000000000E+00 0.  1.
         35    2    1    2    0    0  0.00000000000E+00  0.00000000000E+00  0.25225605413E+02  0.27619503358E+03  0.27504066137E+03 0.  0.
         25    1    3    3    0    0  0.64382265294E+02 -0.16245460534E+02  0.22796880301E+02  0.13902765489E+03  0.12000000000E+03 0.  0.
         25    1    3    3    0    0 -0.64382265294E+02  0.16245460534E+02  0.24287251114E+01  0.13716737869E+03  0.12000000000E+03 0.  0.
<mgrwt>
<rscale>  0 0.27504066E+03</rscale>
<asrwt>0</asrwt>
<pdfrwt beam="1">  1        2 0.23186203E-01 0.27504066E+03</pdfrwt>
<pdfrwt beam="2">  1       -2 0.19305341E-01 0.27504066E+03</pdfrwt>
<totfact> 0.51978703E+03</totfact>
</mgrwt>
</event>
<event>
 5    1  0.1107336E+001  0.2755159E+03  0.7818608E-02  0.1098164E+00
          3   -1    0    0  501    0  0.00000000000E+00  0.00000000000E+00  0.27646041347E+02  0.27646041347E+02  0.00000000000E+00 0.  1.
         -3   -1    0    0    0  501 -0.00000000000E+00 -0.00000000000E+00 -0.68643665555E+03  0.68643665555E+03  0.00000000000E+00 0.  1.
         35    2    1    2    0    0  0.00000000000E+00  0.00000000000E+00 -0.65879061420E+03  0.71408269689E+03  0.27551592449E+03 0.  0.
         25    1    3    3    0    0 -0.43185192723E+02  0.33834463679E+02 -0.22678075515E+03  0.26237233602E+03  0.12000000000E+03 0.  0.
         25    1    3    3    0    0  0.43185192723E+02 -0.33834463679E+02 -0.43200985905E+03  0.45171036088E+03  0.12000000000E+03 0.  0.
<mgrwt>
<rscale>  0 0.27551592E+03</rscale>
<asrwt>0</asrwt>
<pdfrwt beam="1">  1        3 0.42532374E-02 0.27551592E+03</pdfrwt>
<pdfrwt beam="2">  1       -3 0.10560563E+00 0.27551592E+03</pdfrwt>
<totfact> 0.59672483E+02</totfact>
</mgrwt>
</event>
<event>
 5    1  0.1107336E+001  0.2733278E+03  0.7818608E-02  0.1099390E+00
         -2   -1    0    0    0  501 -0.00000000000E+00  0.00000000000E+00  0.88982410704E+01  0.88982410704E+01  0.00000000000E+00 0. -1.
          2   -1    0    0  501    0  0.00000000000E+00 -0.00000000000E+00 -0.20989564341E+04  0.20989564341E+04  0.00000000000E+00 0. -1.
         35    2    1    2    0    0  0.00000000000E+00  0.00000000000E+00 -0.20900581930E+04  0.21078546752E+04  0.27332779110E+03 0.  0.
         25    1    3    3    0    0 -0.20583930401E+02 -0.51889881505E+02 -0.13077705093E+04  0.13144504415E+04  0.12000000000E+03 0.  0.
         25    1    3    3    0    0  0.20583930401E+02  0.51889881505E+02 -0.78228768366E+03  0.79340423367E+03  0.12000000000E+03 0.  0.
<mgrwt>
<rscale>  0 0.27332779E+03</rscale>
<asrwt>0</asrwt>
<pdfrwt beam="1">  1        2 0.32291694E+00 0.27332779E+03</pdfrwt>
<pdfrwt beam="2">  1       -2 0.13689578E-02 0.27332779E+03</pdfrwt>
<totfact> 0.88842680E+03</totfact>
</mgrwt>
</event>
<event>
 5    1  0.1107336E+001  0.2740814E+03  0.7818608E-02  0.1098966E+00
         -2   -1    0    0    0  501 -0.00000000000E+00  0.00000000000E+00  0.11115612956E+02  0.11115612956E+02  0.00000000000E+00 0.  1.
          2   -1    0    0  501    0  0.00000000000E+00 -0.00000000000E+00 -0.16895290343E+04  0.16895290343E+04  0.00000000000E+00 0.  1.
         35    2    1    2    0    0  0.00000000000E+00  0.00000000000E+00 -0.16784134214E+04  0.17006446473E+04  0.27408138078E+03 0.  0.
         25    1    3    3    0    0 -0.18310271322E+02 -0.62803103284E+02 -0.77695493686E+03  0.78888431961E+03  0.12000000000E+03 0.  0.
         25    1    3    3    0    0  0.18310271322E+02  0.62803103284E+02 -0.90145848450E+03  0.91176032766E+03  0.12000000000E+03 0.  0.
<mgrwt>
<rscale>  0 0.27408138E+03</rscale>
<asrwt>0</asrwt>
<pdfrwt beam="1">  1        2 0.25992758E+00 0.27408138E+03</pdfrwt>
<pdfrwt beam="2">  1       -2 0.17100941E-02 0.27408138E+03</pdfrwt>
<totfact> 0.10531824E+04</totfact>
</mgrwt>
</event>
<event>
 5    1  0.1107336E+001  0.2740799E+03  0.7818608E-02  0.1098967E+00
         -2   -1    0    0    0  501 -0.00000000000E+00  0.00000000000E+00  0.17721850774E+03  0.17721850774E+03  0.00000000000E+00 0. -1.
          2   -1    0    0  501    0  0.00000000000E+00 -0.00000000000E+00 -0.10597057104E+03  0.10597057104E+03  0.00000000000E+00 0. -1.
         35    2    1    2    0    0  0.00000000000E+00  0.00000000000E+00  0.71247936699E+02  0.28318907878E+03  0.27407988955E+03 0.  0.
         25    1    3    3    0    0  0.21532000758E+02 -0.40857561538E+02  0.84601719911E+02  0.15391692046E+03  0.12000000000E+03 0.  0.
         25    1    3    3    0    0 -0.21532000758E+02  0.40857561538E+02 -0.13353783212E+02  0.12927215832E+03  0.12000000000E+03 0.  0.
<mgrwt>
<rscale>  0 0.27407989E+03</rscale>
<asrwt>0</asrwt>
<pdfrwt beam="1">  1        2 0.16303165E-01 0.27407989E+03</pdfrwt>
<pdfrwt beam="2">  1       -2 0.27264386E-01 0.27407989E+03</pdfrwt>
<totfact> 0.42676525E+03</totfact>
</mgrwt>
</event>
<event>
 5    1  0.1107336E+001  0.2776441E+03  0.7818608E-02  0.1096983E+00
          2   -1    0    0  501    0  0.00000000000E+00  0.00000000000E+00  0.80739472947E+02  0.80739472947E+02  0.00000000000E+00 0. -1.
         -2   -1    0    0    0  501 -0.00000000000E+00 -0.00000000000E+00 -0.23868819499E+03  0.23868819499E+03  0.00000000000E+00 0. -1.
         35    2    1    2    0    0  0.00000000000E+00  0.00000000000E+00 -0.15794872205E+03  0.31942766794E+03  0.27764408196E+03 0.  0.
         25    1    3    3    0    0  0.47962160795E+01 -0.68564231759E+02 -0.92947125028E+02  0.16662300446E+03  0.12000000000E+03 0.  0.
         25    1    3    3    0    0 -0.47962160795E+01  0.68564231759E+02 -0.65001597017E+02  0.15280466348E+03  0.12000000000E+03 0.  0.
<mgrwt>
<rscale>  0 0.27764408E+03</rscale>
<asrwt>0</asrwt>
<pdfrwt beam="1">  1        2 0.12421457E-01 0.27764408E+03</pdfrwt>
<pdfrwt beam="2">  1       -2 0.36721261E-01 0.27764408E+03</pdfrwt>
<totfact> 0.34214347E+03</totfact>
</mgrwt>
</event>
<event>
 5    1  0.1107336E+001  0.2749236E+03  0.7818608E-02  0.1098494E+00
          1   -1    0    0  501    0  0.00000000000E+00  0.00000000000E+00  0.16614293942E+04  0.16614293942E+04  0.00000000000E+00 0. -1.
         -1   -1    0    0    0  501 -0.00000000000E+00 -0.00000000000E+00 -0.11373183646E+02  0.11373183646E+02  0.00000000000E+00 0. -1.
         35    2    1    2    0    0  0.00000000000E+00  0.00000000000E+00  0.16500562105E+04  0.16728025778E+04  0.27492356476E+03 0.  0.
         25    1    3    3    0    0 -0.18294366963E+02  0.63199812972E+02  0.74643496792E+03  0.75887684215E+03  0.12000000000E+03 0.  0.
         25    1    3    3    0    0  0.18294366963E+02 -0.63199812972E+02  0.90362124259E+03  0.91392573565E+03  0.12000000000E+03 0.  0.
<mgrwt>
<rscale>  0 0.27492356E+03</rscale>
<asrwt>0</asrwt>
<pdfrwt beam="1">  1        1 0.25560433E+00 0.27492356E+03</pdfrwt>
<pdfrwt beam="2">  1       -1 0.17497219E-02 0.27492356E+03</pdfrwt>
<totfact> 0.46712854E+03</totfact>
</mgrwt>
</event>
<event>
 5    1  0.1107336E+001  0.2753618E+03  0.7818608E-02  0.1098250E+00
          3   -1    0    0  501    0  0.00000000000E+00  0.00000000000E+00  0.57346275805E+03  0.57346275805E+03  0.00000000000E+00 0.  1.
         -3   -1    0    0    0  501 -0.00000000000E+00 -0.00000000000E+00 -0.33055380501E+02  0.33055380501E+02  0.00000000000E+00 0.  1.
         35    2    1    2    0    0  0.00000000000E+00  0.00000000000E+00  0.54040737755E+03  0.60651813855E+03  0.27536179597E+03 0.  0.
         25    1    3    3    0    0  0.60471502389E+02 -0.22251834292E+02  0.31448040107E+03  0.34270959920E+03  0.12000000000E+03 0.  0.
         25    1    3    3    0    0 -0.60471502389E+02  0.22251834292E+02  0.22592697649E+03  0.26380853935E+03  0.12000000000E+03 0.  0.
<mgrwt>
<rscale>  0 0.27536180E+03</rscale>
<asrwt>0</asrwt>
<pdfrwt beam="1">  1        3 0.88225032E-01 0.27536180E+03</pdfrwt>
<pdfrwt beam="2">  1       -3 0.50854436E-02 0.27536180E+03</pdfrwt>
<totfact> 0.67780791E+02</totfact>
</mgrwt>
</event>
<event>
 5    1  0.1107336E+001  0.2755923E+03  0.7818608E-02  0.1098121E+00
         -1   -1    0    0    0  501 -0.00000000000E+00  0.00000000000E+00  0.60755074473E+02  0.60755074473E+02  0.00000000000E+00 0.  1.
          1   -1    0    0  501    0  0.00000000000E+00 -0.00000000000E+00 -0.31252997335E+03  0.31252997335E+03  0.00000000000E+00 0.  1.
         35    2    1    2    0    0  0.00000000000E+00  0.00000000000E+00 -0.25177489888E+03  0.37328504782E+03  0.27559232069E+03 0.  0.
         25    1    3    3    0    0  0.55794893726E+02  0.31839185920E+02 -0.96806168925E+02  0.16702765719E+03  0.12000000000E+03 0.  0.
         25    1    3    3    0    0 -0.55794893726E+02 -0.31839185920E+02 -0.15496872995E+03  0.20625739063E+03  0.12000000000E+03 0.  0.
<mgrwt>
<rscale>  0 0.27559232E+03</rscale>
<asrwt>0</asrwt>
<pdfrwt beam="1">  1        1 0.48081534E-01 0.27559232E+03</pdfrwt>
<pdfrwt beam="2">  1       -1 0.93469346E-02 0.27559232E+03</pdfrwt>
<totfact> 0.55949408E+03</totfact>
</mgrwt>
</event>
<event>
 5    1  0.1107336E+001  0.2730350E+03  0.7818608E-02  0.1099555E+00
          4   -1    0    0  501    0  0.00000000000E+00  0.00000000000E+00  0.62947310359E+03  0.62947310359E+03  0.00000000000E+00 0. -1.
         -4   -1    0    0    0  501 -0.00000000000E+00 -0.00000000000E+00 -0.29607337221E+02  0.29607337221E+02  0.00000000000E+00 0. -1.
         35    2    1    2    0    0  0.00000000000E+00  0.00000000000E+00  0.59986576636E+03  0.65908044081E+03  0.27303496076E+03 0.  0.
         25    1    3    3    0    0  0.25910987749E+02 -0.24086464502E+02  0.16803809376E+03  0.20949543673E+03  0.12000000000E+03 0.  0.
         25    1    3    3    0    0 -0.25910987749E+02  0.24086464502E+02  0.43182767261E+03  0.44958500408E+03  0.12000000000E+03 0.  0.
<mgrwt>
<rscale>  0 0.27303496E+03</rscale>
<asrwt>0</asrwt>
<pdfrwt beam="1">  1        4 0.96842006E-01 0.27303496E+03</pdfrwt>
<pdfrwt beam="2">  1       -4 0.45549754E-02 0.27303496E+03</pdfrwt>
<totfact> 0.47790507E+02</totfact>
</mgrwt>
</event>
<event>
 5    1  0.1107336E+001  0.2753543E+03  0.7818608E-02  0.1098254E+00
         -1   -1    0    0    0  501 -0.00000000000E+00  0.00000000000E+00  0.44455601618E+02  0.44455601618E+02  0.00000000000E+00 0.  1.
          1   -1    0    0  501    0  0.00000000000E+00 -0.00000000000E+00 -0.42638026390E+03  0.42638026390E+03  0.00000000000E+00 0.  1.
         35    2    1    2    0    0  0.00000000000E+00  0.00000000000E+00 -0.38192466228E+03  0.47083586552E+03  0.27535425292E+03 0.  0.
         25    1    3    3    0    0 -0.42659979209E+02  0.27857840954E+02 -0.26664586429E+03  0.29680961924E+03  0.12000000000E+03 0.  0.
         25    1    3    3    0    0  0.42659979209E+02 -0.27857840954E+02 -0.11527879800E+03  0.17402624629E+03  0.12000000000E+03 0.  0.
<mgrwt>
<rscale>  0 0.27535425E+03</rscale>
<asrwt>0</asrwt>
<pdfrwt beam="1">  1        1 0.65596965E-01 0.27535425E+03</pdfrwt>
<pdfrwt beam="2">  1       -1 0.68393232E-02 0.27535425E+03</pdfrwt>
<totfact> 0.60705517E+03</totfact>
</mgrwt>
</event>
<event>
 5    1  0.1107336E+001  0.2759357E+03  0.7818608E-02  0.1097930E+00
          1   -1    0    0  501    0  0.00000000000E+00  0.00000000000E+00  0.58442919932E+02  0.58442919932E+02  0.00000000000E+00 0.  1.
         -1   -1    0    0    0  501 -0.00000000000E+00 -0.00000000000E+00 -0.32570456839E+03  0.32570456839E+03  0.00000000000E+00 0.  1.
         35    2    1    2    0    0  0.00000000000E+00  0.00000000000E+00 -0.26726164846E+03  0.38414748833E+03  0.27593568825E+03 0.  0.
         25    1    3    3    0    0  0.55372354029E+02  0.34558291004E+02 -0.10668058336E+03  0.17332374313E+03  0.12000000000E+03 0.  0.
         25    1    3    3    0    0 -0.55372354029E+02 -0.34558291004E+02 -0.16058106510E+03  0.21082374519E+03  0.12000000000E+03 0.  0.
<mgrwt>
<rscale>  0 0.27593569E+03</rscale>
<asrwt>0</asrwt>
<pdfrwt beam="1">  1        1 0.89912184E-02 0.27593569E+03</pdfrwt>
<pdfrwt beam="2">  1       -1 0.50108396E-01 0.27593569E+03</pdfrwt>
<totfact> 0.30223782E+03</totfact>
</mgrwt>
</event>
<event>
 5    1  0.1107336E+001  0.2749186E+03  0.7818608E-02  0.1098497E+00
          1   -1    0    0  501    0  0.00000000000E+00  0.00000000000E+00  0.19227018586E+04  0.19227018586E+04  0.00000000000E+00 0. -1.
         -1   -1    0    0    0  501 -0.00000000000E+00 -0.00000000000E+00 -0.98273470159E+01  0.98273470159E+01  0.00000000000E+00 0. -1.
         35    2    1    2    0    0  0.00000000000E+00  0.00000000000E+00  0.19128745116E+04  0.19325292056E+04  0.27491859430E+03 0.  0.
         25    1    3    3    0    0  0.20448956882E+02 -0.31412874399E+02  0.13471974497E+04  0.13530505893E+04  0.12000000000E+03 0.  0.
         25    1    3    3    0    0 -0.20448956882E+02  0.31412874399E+02  0.56567706186E+03  0.57947861637E+03  0.12000000000E+03 0.  0.
<mgrwt>
<rscale>  0 0.27491859E+03</rscale>
<asrwt>0</asrwt>
<pdfrwt beam="1">  1        1 0.29579999E+00 0.27491859E+03</pdfrwt>
<pdfrwt beam="2">  1       -1 0.15119011E-02 0.27491859E+03</pdfrwt>
<totfact> 0.39075235E+03</totfact>
</mgrwt>
</event>
<event>
 5    1  0.1107336E+001  0.2718331E+03  0.7818608E-02  0.1100235E+00
          2   -1    0    0  501    0  0.00000000000E+00  0.00000000000E+00  0.33414311222E+03  0.33414311222E+03  0.00000000000E+00 0.  1.
         -2   -1    0    0    0  501 -0.00000000000E+00 -0.00000000000E+00 -0.55285633415E+02  0.55285633415E+02  0.00000000000E+00 0.  1.
         35    2    1    2    0    0  0.00000000000E+00  0.00000000000E+00  0.27885747881E+03  0.38942874564E+03  0.27183313713E+03 0.  0.
         25    1    3    3    0    0  0.31735797569E+02 -0.28101311206E+02  0.71075911697E+02  0.14576909742E+03  0.12000000000E+03 0.  0.
         25    1    3    3    0    0 -0.31735797569E+02  0.28101311206E+02  0.20778156711E+03  0.24365964822E+03  0.12000000000E+03 0.  0.
<mgrwt>
<rscale>  0 0.27183314E+03</rscale>
<asrwt>0</asrwt>
<pdfrwt beam="1">  1        2 0.51406631E-01 0.27183314E+03</pdfrwt>
<pdfrwt beam="2">  1       -2 0.85054823E-02 0.27183314E+03</pdfrwt>
<totfact> 0.82794698E+03</totfact>
</mgrwt>
</event>
<event>
 5    1  0.1107336E+001  0.2749784E+03  0.7818608E-02  0.1098464E+00
         -2   -1    0    0    0  501 -0.00000000000E+00  0.00000000000E+00  0.96604134906E+01  0.96604134906E+01  0.00000000000E+00 0.  1.
          2   -1    0    0  501    0  0.00000000000E+00 -0.00000000000E+00 -0.19567777155E+04  0.19567777155E+04  0.00000000000E+00 0.  1.
         35    2    1    2    0    0  0.00000000000E+00  0.00000000000E+00 -0.19471173020E+04  0.19664381290E+04  0.27497841254E+03 0.  0.
         25    1    3    3    0    0  0.39464064181E+02 -0.53705166097E+02 -0.91742041121E+03  0.92763239924E+03  0.12000000000E+03 0.  0.
         25    1    3    3    0    0 -0.39464064181E+02  0.53705166097E+02 -0.10296968908E+04  0.10388057297E+04  0.12000000000E+03 0.  0.
<mgrwt>
<rscale>  0 0.27497841E+03</rscale>
<asrwt>0</asrwt>
<pdfrwt beam="1">  1        2 0.30104257E+00 0.27497841E+03</pdfrwt>
<pdfrwt beam="2">  1       -2 0.14862182E-02 0.27497841E+03</pdfrwt>
<totfact> 0.93621286E+03</totfact>
</mgrwt>
</event>
<event>
 5    1  0.1107336E+001  0.2741195E+03  0.7818608E-02  0.1098945E+00
         -2   -1    0    0    0  501 -0.00000000000E+00  0.00000000000E+00  0.24142473335E+02  0.24142473335E+02  0.00000000000E+00 0.  1.
          2   -1    0    0  501    0  0.00000000000E+00 -0.00000000000E+00 -0.77810462570E+03  0.77810462570E+03  0.00000000000E+00 0.  1.
         35    2    1    2    0    0  0.00000000000E+00  0.00000000000E+00 -0.75396215236E+03  0.80224709903E+03  0.27411946430E+03 0.  0.
         25    1    3    3    0    0 -0.50211945800E+02  0.43108909667E+02 -0.38400047248E+03  0.40772046853E+03  0.12000000000E+03 0.  0.
         25    1    3    3    0    0  0.50211945800E+02 -0.43108909667E+02 -0.36996167989E+03  0.39452663051E+03  0.12000000000E+03 0.  0.
<mgrwt>
<rscale>  0 0.27411946E+03</rscale>
<asrwt>0</asrwt>
<pdfrwt beam="1">  1        2 0.11970839E+00 0.27411946E+03</pdfrwt>
<pdfrwt beam="2">  1       -2 0.37142272E-02 0.27411946E+03</pdfrwt>
<totfact> 0.11256292E+04</totfact>
</mgrwt>
</event>
<event>
 5    1  0.1107336E+001  0.2750084E+03  0.7818608E-02  0.1098447E+00
          2   -1    0    0  501    0  0.00000000000E+00  0.00000000000E+00  0.22401854333E+03  0.22401854333E+03  0.00000000000E+00 0. -1.
         -2   -1    0    0    0  501 -0.00000000000E+00 -0.00000000000E+00 -0.84401081384E+02  0.84401081384E+02  0.00000000000E+00 0. -1.
         35    2    1    2    0    0  0.00000000000E+00  0.00000000000E+00  0.13961746194E+03  0.30841962471E+03  0.27500841665E+03 0.  0.
         25    1    3    3    0    0 -0.43876316361E+02 -0.29018312066E+02  0.23024734877E+02  0.13303131958E+03  0.12000000000E+03 0.  0.
         25    1    3    3    0    0  0.43876316361E+02  0.29018312066E+02  0.11659272707E+03  0.17538830513E+03  0.12000000000E+03 0.  0.
<mgrwt>
<rscale>  0 0.27500842E+03</rscale>
<asrwt>0</asrwt>
<pdfrwt beam="1">  1        2 0.34464391E-01 0.27500842E+03</pdfrwt>
<pdfrwt beam="2">  1       -2 0.12984782E-01 0.27500842E+03</pdfrwt>
<totfact> 0.64880464E+03</totfact>
</mgrwt>
</event>
<event>
 5    1  0.1107336E+001  0.2765547E+03  0.7818608E-02  0.1097586E+00
          2   -1    0    0  501    0  0.00000000000E+00  0.00000000000E+00  0.77442214005E+03  0.77442214005E+03  0.00000000000E+00 0. -1.
         -2   -1    0    0    0  501 -0.00000000000E+00 -0.00000000000E+00 -0.24690182315E+02  0.24690182315E+02  0.00000000000E+00 0. -1.
         35    2    1    2    0    0  0.00000000000E+00  0.00000000000E+00  0.74973195774E+03  0.79911232236E+03  0.27655468773E+03 0.  0.
         25    1    3    3    0    0  0.62761569957E+02 -0.19744399672E+02  0.43205875751E+03  0.45321476799E+03  0.12000000000E+03 0.  0.
         25    1    3    3    0    0 -0.62761569957E+02  0.19744399672E+02  0.31767320023E+03  0.34589755438E+03  0.12000000000E+03 0.  0.
<mgrwt>
<rscale>  0 0.27655469E+03</rscale>
<asrwt>0</asrwt>
<pdfrwt beam="1">  1        2 0.11914185E+00 0.27655469E+03</pdfrwt>
<pdfrwt beam="2">  1       -2 0.37984902E-02 0.27655469E+03</pdfrwt>
<totfact> 0.10952305E+04</totfact>
</mgrwt>
</event>
<event>
 5    1  0.1107336E+001  0.2761086E+03  0.7818608E-02  0.1097834E+00
         -1   -1    0    0    0  501 -0.00000000000E+00  0.00000000000E+00  0.13665050464E+02  0.13665050464E+02  0.00000000000E+00 0. -1.
          1   -1    0    0  501    0  0.00000000000E+00 -0.00000000000E+00 -0.13947247323E+04  0.13947247323E+04  0.00000000000E+00 0. -1.
         35    2    1    2    0    0  0.00000000000E+00  0.00000000000E+00 -0.13810596819E+04  0.14083897828E+04  0.27610855727E+03 0.  0.
         25    1    3    3    0    0  0.37972138281E+02  0.29606970320E+02 -0.44375555277E+03  0.46220931037E+03  0.12000000000E+03 0.  0.
         25    1    3    3    0    0 -0.37972138281E+02 -0.29606970320E+02 -0.93730412909E+03  0.94618047242E+03  0.12000000000E+03 0.  0.
<mgrwt>
<rscale>  0 0.27610856E+03</rscale>
<asrwt>0</asrwt>
<pdfrwt beam="1">  1        1 0.21457280E+00 0.27610856E+03</pdfrwt>
<pdfrwt beam="2">  1       -1 0.21023177E-02 0.27610856E+03</pdfrwt>
<totfact> 0.53632311E+03</totfact>
</mgrwt>
</event>
<event>
 5    1  0.1107336E+001  0.2759303E+03  0.7818608E-02  0.1097933E+00
          1   -1    0    0  501    0  0.00000000000E+00  0.00000000000E+00  0.33747086356E+04  0.33747086356E+04  0.00000000000E+00 0. -1.
         -1   -1    0    0    0  501 -0.00000000000E+00 -0.00000000000E+00 -0.56403039015E+01  0.56403039015E+01  0.00000000000E+00 0. -1.
         35    2    1    2    0    0  0.00000000000E+00  0.00000000000E+00  0.33690683317E+04  0.33803489395E+04  0.27593029760E+03 0.  0.
         25    1    3    3    0    0 -0.39596440615E+02  0.60289355394E+01  0.23588985811E+04  0.23622884544E+04  0.12000000000E+03 0.  0.
         25    1    3    3    0    0  0.39596440615E+02 -0.60289355394E+01  0.10101697506E+04  0.10180604851E+04  0.12000000000E+03 0.  0.
<mgrwt>
<rscale>  0 0.27593030E+03</rscale>
<asrwt>0</asrwt>
<pdfrwt beam="1">  1        1 0.51918433E+00 0.27593030E+03</pdfrwt>
<pdfrwt beam="2">  1       -1 0.86774176E-03 0.27593030E+03</pdfrwt>
<totfact> 0.89884532E+02</totfact>
</mgrwt>
</event>
<event>
 5    1  0.1107336E+001  0.2752146E+03  0.7818608E-02  0.1098332E+00
         -2   -1    0    0    0  501 -0.00000000000E+00  0.00000000000E+00  0.29364542627E+02  0.29364542627E+02  0.00000000000E+00 0. -1.
          2   -1    0    0  501    0  0.00000000000E+00 -0.00000000000E+00 -0.64485142071E+03  0.64485142071E+03  0.00000000000E+00 0. -1.
         35    2    1    2    0    0  0.00000000000E+00  0.00000000000E+00 -0.61548687808E+03  0.67421596334E+03  0.27521458560E+03 0.  0.
         25    1    3    3    0    0  0.18077230037E+01  0.66226046998E+02 -0.27808084103E+03  0.31002921041E+03  0.12000000000E+03 0.  0.
         25    1    3    3    0    0 -0.18077230037E+01 -0.66226046998E+02 -0.33740603706E+03  0.36418675292E+03  0.12000000000E+03 0.  0.
<mgrwt>
<rscale>  0 0.27521459E+03</rscale>
<asrwt>0</asrwt>
<pdfrwt beam="1">  1        2 0.99207899E-01 0.27521459E+03</pdfrwt>
<pdfrwt beam="2">  1       -2 0.45176225E-02 0.27521459E+03</pdfrwt>
<totfact> 0.10540667E+04</totfact>
</mgrwt>
</event>
<event>
 5    1  0.1107336E+001  0.2740399E+03  0.7818608E-02  0.1098989E+00
         -2   -1    0    0    0  501 -0.00000000000E+00  0.00000000000E+00  0.83537480210E+01  0.83537480210E+01  0.00000000000E+00 0. -1.
          2   -1    0    0  501    0  0.00000000000E+00 -0.00000000000E+00 -0.22474310446E+04  0.22474310446E+04  0.00000000000E+00 0. -1.
         35    2    1    2    0    0  0.00000000000E+00  0.00000000000E+00 -0.22390772966E+04  0.22557847926E+04  0.27403994337E+03 0.  0.
         25    1    3    3    0    0  0.60904992160E+02 -0.23732300863E+02 -0.12026053426E+04  0.12103438562E+04  0.12000000000E+03 0.  0.
         25    1    3    3    0    0 -0.60904992160E+02  0.23732300863E+02 -0.10364719539E+04  0.10454409364E+04  0.12000000000E+03 0.  0.
<mgrwt>
<rscale>  0 0.27403994E+03</rscale>
<asrwt>0</asrwt>
<pdfrwt beam="1">  1        2 0.34575873E+00 0.27403994E+03</pdfrwt>
<pdfrwt beam="2">  1       -2 0.12851916E-02 0.27403994E+03</pdfrwt>
<totfact> 0.81248787E+03</totfact>
</mgrwt>
</event>
<event>
 5    1  0.1107336E+001  0.2757328E+03  0.7818608E-02  0.1098043E+00
          2   -1    0    0  501    0  0.00000000000E+00  0.00000000000E+00  0.95825489931E+03  0.95825489931E+03  0.00000000000E+00 0. -1.
         -2   -1    0    0    0  501 -0.00000000000E+00 -0.00000000000E+00 -0.19835161976E+02  0.19835161976E+02  0.00000000000E+00 0. -1.
         35    2    1    2    0    0  0.00000000000E+00  0.00000000000E+00  0.93841973733E+03  0.97809006128E+03  0.27573277746E+03 0.  0.
         25    1    3    3    0    0 -0.51068929699E+02 -0.34381941370E+02  0.36781915006E+03  0.39176661499E+03  0.12000000000E+03 0.  0.
         25    1    3    3    0    0  0.51068929699E+02  0.34381941370E+02  0.57060058727E+03  0.58632344629E+03  0.12000000000E+03 0.  0.
<mgrwt>
<rscale>  0 0.27573278E+03</rscale>
<asrwt>0</asrwt>
<pdfrwt beam="1">  1        2 0.14742379E+00 0.27573278E+03</pdfrwt>
<pdfrwt beam="2">  1       -2 0.30515641E-02 0.27573278E+03</pdfrwt>
<totfact> 0.11481678E+04</totfact>
</mgrwt>
</event>
<event>
 5    1  0.1107336E+001  0.2762790E+03  0.7818608E-02  0.1097739E+00
         -2   -1    0    0    0  501 -0.00000000000E+00  0.00000000000E+00  0.22030478014E+02  0.22030478014E+02  0.00000000000E+00 0. -1.
          2   -1    0    0  501    0  0.00000000000E+00 -0.00000000000E+00 -0.86618710620E+03  0.86618710620E+03  0.00000000000E+00 0. -1.
         35    2    1    2    0    0  0.00000000000E+00  0.00000000000E+00 -0.84415662819E+03  0.88821758421E+03  0.27627896046E+03 0.  0.
         25    1    3    3    0    0 -0.21975647287E+02  0.46226515470E+02 -0.56809052833E+03  0.58287791876E+03  0.12000000000E+03 0.  0.
         25    1    3    3    0    0  0.21975647287E+02 -0.46226515470E+02 -0.27606609986E+03  0.30533966545E+03  0.12000000000E+03 0.  0.
<mgrwt>
<rscale>  0 0.27627896E+03</rscale>
<asrwt>0</asrwt>
<pdfrwt beam="1">  1        2 0.13325954E+00 0.27627896E+03</pdfrwt>
<pdfrwt beam="2">  1       -2 0.33893046E-02 0.27627896E+03</pdfrwt>
<totfact> 0.11248917E+04</totfact>
</mgrwt>
</event>
<event>
 5    1  0.1107336E+001  0.2786733E+03  0.7818608E-02  0.1096416E+00
          2   -1    0    0  501    0  0.00000000000E+00  0.00000000000E+00  0.70436385496E+03  0.70436385496E+03  0.00000000000E+00 0. -1.
         -2   -1    0    0    0  501 -0.00000000000E+00 -0.00000000000E+00 -0.27563449386E+02  0.27563449386E+02  0.00000000000E+00 0. -1.
         35    2    1    2    0    0  0.00000000000E+00  0.00000000000E+00  0.67680040558E+03  0.73192730435E+03  0.27867326722E+03 0.  0.
         25    1    3    3    0    0  0.40872029066E+02 -0.36336814096E+02  0.45655669178E+03  0.47522089562E+03  0.12000000000E+03 0.  0.
         25    1    3    3    0    0 -0.40872029066E+02  0.36336814096E+02  0.22024371379E+03  0.25670640873E+03  0.12000000000E+03 0.  0.
<mgrwt>
<rscale>  0 0.27867327E+03</rscale>
<asrwt>0</asrwt>
<pdfrwt beam="1">  1        2 0.10836366E+00 0.27867327E+03</pdfrwt>
<pdfrwt beam="2">  1       -2 0.42405312E-02 0.27867327E+03</pdfrwt>
<totfact> 0.10437358E+04</totfact>
</mgrwt>
</event>
<event>
 5    1  0.1107336E+001  0.2883587E+03  0.7818608E-02  0.1091209E+00
         -2   -1    0    0    0  501 -0.00000000000E+00  0.00000000000E+00  0.19204366095E+03  0.19204366095E+03  0.00000000000E+00 0. -1.
          2   -1    0    0  501    0  0.00000000000E+00 -0.00000000000E+00 -0.10824457952E+03  0.10824457952E+03  0.00000000000E+00 0. -1.
         35    2    1    2    0    0  0.00000000000E+00  0.00000000000E+00  0.83799081430E+02  0.30028824048E+03  0.28835870252E+03 0.  0.
         25    1    3    3    0    0 -0.32941562516E+02 -0.20378991215E+02  0.11470046550E+03  0.17046010269E+03  0.12000000000E+03 0.  0.
         25    1    3    3    0    0  0.32941562516E+02  0.20378991215E+02 -0.30901384068E+02  0.12982813779E+03  0.12000000000E+03 0.  0.
<mgrwt>
<rscale>  0 0.28835870E+03</rscale>
<asrwt>0</asrwt>
<pdfrwt beam="1">  1        2 0.16653012E-01 0.28835870E+03</pdfrwt>
<pdfrwt beam="2">  1       -2 0.29545179E-01 0.28835870E+03</pdfrwt>
<totfact> 0.36074560E+03</totfact>
</mgrwt>
</event>
<event>
 5    1  0.1107336E+001  0.2754095E+03  0.7818608E-02  0.1098223E+00
         -2   -1    0    0    0  501 -0.00000000000E+00  0.00000000000E+00  0.18489561517E+03  0.18489561517E+03  0.00000000000E+00 0.  1.
          2   -1    0    0  501    0  0.00000000000E+00 -0.00000000000E+00 -0.10255838321E+03  0.10255838321E+03  0.00000000000E+00 0.  1.
         35    2    1    2    0    0  0.00000000000E+00  0.00000000000E+00  0.82337231968E+02  0.28745399838E+03  0.27540947953E+03 0.  0.
         25    1    3    3    0    0  0.58293760506E+02  0.28358917247E+02  0.21359544065E+02  0.13805296384E+03  0.12000000000E+03 0.  0.
         25    1    3    3    0    0 -0.58293760506E+02 -0.28358917247E+02  0.60977687903E+02  0.14940103455E+03  0.12000000000E+03 0.  0.
<mgrwt>
<rscale>  0 0.27540948E+03</rscale>
<asrwt>0</asrwt>
<pdfrwt beam="1">  1        2 0.15778213E-01 0.27540948E+03</pdfrwt>
<pdfrwt beam="2">  1       -2 0.28445479E-01 0.27540948E+03</pdfrwt>
<totfact> 0.41107596E+03</totfact>
</mgrwt>
</event>
<event>
 5    1  0.1107336E+001  0.2749742E+03  0.7818608E-02  0.1098466E+00
          2   -1    0    0  501    0  0.00000000000E+00  0.00000000000E+00  0.26200595485E+04  0.26200595485E+04  0.00000000000E+00 0.  1.
         -2   -1    0    0    0  501 -0.00000000000E+00 -0.00000000000E+00 -0.72146087358E+01  0.72146087358E+01  0.00000000000E+00 0.  1.
         35    2    1    2    0    0  0.00000000000E+00  0.00000000000E+00  0.26128449398E+04  0.26272741573E+04  0.27497421339E+03 0.  0.
         25    1    3    3    0    0  0.38529919953E+02 -0.54695208997E+02  0.12571592634E+04  0.12646444299E+04  0.12000000000E+03 0.  0.
         25    1    3    3    0    0 -0.38529919953E+02  0.54695208997E+02  0.13556856764E+04  0.13626297273E+04  0.12000000000E+03 0.  0.
<mgrwt>
<rscale>  0 0.27497421E+03</rscale>
<asrwt>0</asrwt>
<pdfrwt beam="1">  1        2 0.40308533E+00 0.27497421E+03</pdfrwt>
<pdfrwt beam="2">  1       -2 0.11099419E-02 0.27497421E+03</pdfrwt>
<totfact> 0.63059757E+03</totfact>
</mgrwt>
</event>
<event>
 5    1  0.1107336E+001  0.2752175E+03  0.7818608E-02  0.1098330E+00
         -2   -1    0    0    0  501 -0.00000000000E+00  0.00000000000E+00  0.28608878729E+03  0.28608878729E+03  0.00000000000E+00 0.  1.
          2   -1    0    0  501    0  0.00000000000E+00 -0.00000000000E+00 -0.66189820220E+02  0.66189820220E+02  0.00000000000E+00 0.  1.
         35    2    1    2    0    0  0.00000000000E+00  0.00000000000E+00  0.21989896707E+03  0.35227860751E+03  0.27521748053E+03 0.  0.
         25    1    3    3    0    0  0.64472647823E+02 -0.12436241203E+02  0.90758732409E+02  0.16416007408E+03  0.12000000000E+03 0.  0.
         25    1    3    3    0    0 -0.64472647823E+02  0.12436241203E+02  0.12914023466E+03  0.18811853343E+03  0.12000000000E+03 0.  0.
<mgrwt>
<rscale>  0 0.27521748E+03</rscale>
<asrwt>0</asrwt>
<pdfrwt beam="1">  1        2 0.10183049E-01 0.27521748E+03</pdfrwt>
<pdfrwt beam="2">  1       -2 0.44013659E-01 0.27521748E+03</pdfrwt>
<totfact> 0.30866617E+03</totfact>
</mgrwt>
</event>
<event>
 5    1  0.1107336E+001  0.2857870E+03  0.7818608E-02  0.1092570E+00
         -2   -1    0    0    0  501 -0.00000000000E+00  0.00000000000E+00  0.64645162129E+02  0.64645162129E+02  0.00000000000E+00 0.  1.
          2   -1    0    0  501    0  0.00000000000E+00 -0.00000000000E+00 -0.31585587235E+03  0.31585587235E+03  0.00000000000E+00 0.  1.
         35    2    1    2    0    0  0.00000000000E+00  0.00000000000E+00 -0.25121071022E+03  0.38050103447E+03  0.28578701214E+03 0.  0.
         25    1    3    3    0    0 -0.39217113340E+02  0.64337369603E+02 -0.10100929346E+03  0.17401194347E+03  0.12000000000E+03 0.  0.
         25    1    3    3    0    0  0.39217113340E+02 -0.64337369603E+02 -0.15020141676E+03  0.20648909100E+03  0.12000000000E+03 0.  0.
<mgrwt>
<rscale>  0 0.28578701E+03</rscale>
<asrwt>0</asrwt>
<pdfrwt beam="1">  1        2 0.48593212E-01 0.28578701E+03</pdfrwt>
<pdfrwt beam="2">  1       -2 0.99454095E-02 0.28578701E+03</pdfrwt>
<totfact> 0.68842286E+03</totfact>
</mgrwt>
</event>
<event>
 5    1  0.1107336E+001  0.2726039E+03  0.7818608E-02  0.1099799E+00
         -2   -1    0    0    0  501 -0.00000000000E+00  0.00000000000E+00  0.11477801944E+03  0.11477801944E+03  0.00000000000E+00 0. -1.
          2   -1    0    0  501    0  0.00000000000E+00 -0.00000000000E+00 -0.16186220880E+03  0.16186220880E+03  0.00000000000E+00 0. -1.
         35    2    1    2    0    0  0.00000000000E+00  0.00000000000E+00 -0.47084189366E+02  0.27664022824E+03  0.27260391595E+03 0.  0.
         25    1    3    3    0    0  0.12640184838E+02  0.32356090470E+02  0.31776802609E+02  0.12890483330E+03  0.12000000000E+03 0.  0.
         25    1    3    3    0    0 -0.12640184838E+02 -0.32356090470E+02 -0.78860991975E+02  0.14773539494E+03  0.12000000000E+03 0.  0.
<mgrwt>
<rscale>  0 0.27260392E+03</rscale>
<asrwt>0</asrwt>
<pdfrwt beam="1">  1        2 0.24901878E-01 0.27260392E+03</pdfrwt>
<pdfrwt beam="2">  1       -2 0.17658157E-01 0.27260392E+03</pdfrwt>
<totfact> 0.55777650E+03</totfact>
</mgrwt>
</event>
<event>
 5    1  0.1107336E+001  0.2743075E+03  0.7818608E-02  0.1098839E+00
         -2   -1    0    0    0  501 -0.00000000000E+00  0.00000000000E+00  0.22006458485E+02  0.22006458485E+02  0.00000000000E+00 0.  1.
          2   -1    0    0  501    0  0.00000000000E+00 -0.00000000000E+00 -0.85480117767E+03  0.85480117767E+03  0.00000000000E+00 0.  1.
         35    2    1    2    0    0  0.00000000000E+00  0.00000000000E+00 -0.83279471919E+03  0.87680763616E+03  0.27430746712E+03 0.  0.
         25    1    3    3    0    0  0.33309798776E+00  0.16482314721E+01 -0.20416910576E+03  0.23682873848E+03  0.12000000000E+03 0.  0.
         25    1    3    3    0    0 -0.33309798776E+00 -0.16482314721E+01 -0.62862561343E+03  0.63997889768E+03  0.12000000000E+03 0.  0.
<mgrwt>
<rscale>  0 0.27430747E+03</rscale>
<asrwt>0</asrwt>
<pdfrwt beam="1">  1        2 0.13150787E+00 0.27430747E+03</pdfrwt>
<pdfrwt beam="2">  1       -2 0.33856092E-02 0.27430747E+03</pdfrwt>
<totfact> 0.11461803E+04</totfact>
</mgrwt>
</event>
<event>
 5    1  0.1107336E+001  0.2749776E+03  0.7818608E-02  0.1098464E+00
         -1   -1    0    0    0  501 -0.00000000000E+00  0.00000000000E+00  0.21221692960E+02  0.21221692960E+02  0.00000000000E+00 0.  1.
          1   -1    0    0  501    0  0.00000000000E+00 -0.00000000000E+00 -0.89074744167E+03  0.89074744167E+03  0.00000000000E+00 0.  1.
         35    2    1    2    0    0  0.00000000000E+00  0.00000000000E+00 -0.86952574871E+03  0.91196913463E+03  0.27497758972E+03 0.  0.
         25    1    3    3    0    0 -0.15249785396E+02 -0.19752947316E+02 -0.22816636466E+03  0.25900313674E+03  0.12000000000E+03 0.  0.
         25    1    3    3    0    0  0.15249785396E+02  0.19752947316E+02 -0.64135938405E+03  0.65296599789E+03  0.12000000000E+03 0.  0.
<mgrwt>
<rscale>  0 0.27497759E+03</rscale>
<asrwt>0</asrwt>
<pdfrwt beam="1">  1        1 0.13703803E+00 0.27497759E+03</pdfrwt>
<pdfrwt beam="2">  1       -1 0.32648768E-02 0.27497759E+03</pdfrwt>
<totfact> 0.64544343E+03</totfact>
</mgrwt>
</event>
<event>
 5    1  0.1107336E+001  0.2737929E+03  0.7818608E-02  0.1099128E+00
          3   -1    0    0  501    0  0.00000000000E+00  0.00000000000E+00  0.12763424044E+04  0.12763424044E+04  0.00000000000E+00 0. -1.
         -3   -1    0    0    0  501 -0.00000000000E+00 -0.00000000000E+00 -0.14683079640E+02  0.14683079640E+02  0.00000000000E+00 0. -1.
         35    2    1    2    0    0  0.00000000000E+00  0.00000000000E+00  0.12616593248E+04  0.12910254841E+04  0.27379289378E+03 0.  0.
         25    1    3    3    0    0  0.66606476777E+01  0.65230851464E+02  0.60055993715E+03  0.61593154354E+03  0.12000000000E+03 0.  0.
         25    1    3    3    0    0 -0.66606476777E+01 -0.65230851464E+02  0.66109938763E+03  0.67509394052E+03  0.12000000000E+03 0.  0.
<mgrwt>
<rscale>  0 0.27379289E+03</rscale>
<asrwt>0</asrwt>
<pdfrwt beam="1">  1        3 0.19636028E+00 0.27379289E+03</pdfrwt>
<pdfrwt beam="2">  1       -3 0.22589363E-02 0.27379289E+03</pdfrwt>
<totfact> 0.33791406E+02</totfact>
</mgrwt>
</event>
<event>
 5    1  0.1107336E+001  0.2742809E+03  0.7818608E-02  0.1098854E+00
          1   -1    0    0  501    0  0.00000000000E+00  0.00000000000E+00  0.29879251202E+02  0.29879251202E+02  0.00000000000E+00 0. -1.
         -1   -1    0    0    0  501 -0.00000000000E+00 -0.00000000000E+00 -0.62945026329E+03  0.62945026329E+03  0.00000000000E+00 0. -1.
         35    2    1    2    0    0  0.00000000000E+00  0.00000000000E+00 -0.59957101209E+03  0.65932951450E+03  0.27428089643E+03 0.  0.
         25    1    3    3    0    0  0.41095985419E+02  0.24302173528E+02 -0.18889470730E+03  0.22882457495E+03  0.12000000000E+03 0.  0.
         25    1    3    3    0    0 -0.41095985419E+02 -0.24302173528E+02 -0.41067630479E+03  0.43050493954E+03  0.12000000000E+03 0.  0.
<mgrwt>
<rscale>  0 0.27428090E+03</rscale>
<asrwt>0</asrwt>
<pdfrwt beam="1">  1        1 0.45968083E-02 0.27428090E+03</pdfrwt>
<pdfrwt beam="2">  1       -1 0.96838492E-01 0.27428090E+03</pdfrwt>
<totfact> 0.20237846E+03</totfact>
</mgrwt>
</event>
<event>
 5    1  0.1107336E+001  0.2749777E+03  0.7818608E-02  0.1098464E+00
          4   -1    0    0  501    0  0.00000000000E+00  0.00000000000E+00  0.93457821576E+03  0.93457821576E+03  0.00000000000E+00 0.  1.
         -4   -1    0    0    0  501 -0.00000000000E+00 -0.00000000000E+00 -0.20226432341E+02  0.20226432341E+02  0.00000000000E+00 0.  1.
         35    2    1    2    0    0  0.00000000000E+00  0.00000000000E+00  0.91435178342E+03  0.95480464810E+03  0.27497769399E+03 0.  0.
         25    1    3    3    0    0  0.62333224306E+02  0.10015219041E+02  0.53616191349E+03  0.55304189077E+03  0.12000000000E+03 0.  0.
         25    1    3    3    0    0 -0.62333224306E+02 -0.10015219041E+02  0.37818986993E+03  0.40176275734E+03  0.12000000000E+03 0.  0.
<mgrwt>
<rscale>  0 0.27497769E+03</rscale>
<asrwt>0</asrwt>
<pdfrwt beam="1">  1        4 0.14378123E+00 0.27497769E+03</pdfrwt>
<pdfrwt beam="2">  1       -4 0.31117596E-02 0.27497769E+03</pdfrwt>
<totfact> 0.33608168E+02</totfact>
</mgrwt>
</event>
<event>
 5    1  0.1107336E+001  0.2737942E+03  0.7818608E-02  0.1099128E+00
          2   -1    0    0  501    0  0.00000000000E+00  0.00000000000E+00  0.37393457397E+03  0.37393457397E+03  0.00000000000E+00 0. -1.
         -2   -1    0    0    0  501 -0.00000000000E+00 -0.00000000000E+00 -0.50117884486E+02  0.50117884486E+02  0.00000000000E+00 0. -1.
         35    2    1    2    0    0  0.00000000000E+00  0.00000000000E+00  0.32381668948E+03  0.42405245845E+03  0.27379415467E+03 0.  0.
         25    1    3    3    0    0  0.52348764930E+02 -0.29762100836E+02  0.20331186185E+03  0.24364295394E+03  0.12000000000E+03 0.  0.
         25    1    3    3    0    0 -0.52348764930E+02  0.29762100836E+02  0.12050482763E+03  0.18040950451E+03  0.12000000000E+03 0.  0.
<mgrwt>
<rscale>  0 0.27379415E+03</rscale>
<asrwt>0</asrwt>
<pdfrwt beam="1">  1        2 0.57528394E-01 0.27379415E+03</pdfrwt>
<pdfrwt beam="2">  1       -2 0.77104440E-02 0.27379415E+03</pdfrwt>
<totfact> 0.85506015E+03</totfact>
</mgrwt>
</event>
<event>
 5    1  0.1107336E+001  0.2752779E+03  0.7818608E-02  0.1098296E+00
         -1   -1    0    0    0  501 -0.00000000000E+00  0.00000000000E+00  0.87832286318E+02  0.87832286318E+02  0.00000000000E+00 0. -1.
          1   -1    0    0  501    0  0.00000000000E+00 -0.00000000000E+00 -0.21568931486E+03  0.21568931486E+03  0.00000000000E+00 0. -1.
         35    2    1    2    0    0  0.00000000000E+00  0.00000000000E+00 -0.12785702854E+03  0.30352160118E+03  0.27527793706E+03 0.  0.
         25    1    3    3    0    0  0.16870820263E+02 -0.45675351007E+02 -0.12522924132E+02  0.13010644064E+03  0.12000000000E+03 0.  0.
         25    1    3    3    0    0 -0.16870820263E+02  0.45675351007E+02 -0.11533410441E+03  0.17341516054E+03  0.12000000000E+03 0.  0.
<mgrwt>
<rscale>  0 0.27527794E+03</rscale>
<asrwt>0</asrwt>
<pdfrwt beam="1">  1        1 0.33182971E-01 0.27527794E+03</pdfrwt>
<pdfrwt beam="2">  1       -1 0.13512659E-01 0.27527794E+03</pdfrwt>
<totfact> 0.50232139E+03</totfact>
</mgrwt>
</event>
<event>
 5    1  0.1107336E+001  0.2750358E+03  0.7818608E-02  0.1098432E+00
         -1   -1    0    0    0  501 -0.00000000000E+00  0.00000000000E+00  0.11146482390E+02  0.11146482390E+02  0.00000000000E+00 0.  1.
          1   -1    0    0  501    0  0.00000000000E+00 -0.00000000000E+00 -0.16966047621E+04  0.16966047621E+04  0.00000000000E+00 0.  1.
         35    2    1    2    0    0  0.00000000000E+00  0.00000000000E+00 -0.16854582797E+04  0.17077512445E+04  0.27503581660E+03 0.  0.
         25    1    3    3    0    0  0.22214838189E+02  0.33160075373E+02 -0.11781455919E+04  0.11849135519E+04  0.12000000000E+03 0.  0.
         25    1    3    3    0    0 -0.22214838189E+02 -0.33160075373E+02 -0.50731268774E+03  0.52283769257E+03  0.12000000000E+03 0.  0.
<mgrwt>
<rscale>  0 0.27503582E+03</rscale>
<asrwt>0</asrwt>
<pdfrwt beam="1">  1        1 0.26101602E+00 0.27503582E+03</pdfrwt>
<pdfrwt beam="2">  1       -1 0.17148441E-02 0.27503582E+03</pdfrwt>
<totfact> 0.45626037E+03</totfact>
</mgrwt>
</event>
<event>
 5    1  0.1107336E+001  0.2752400E+03  0.7818608E-02  0.1098318E+00
         -2   -1    0    0    0  501 -0.00000000000E+00  0.00000000000E+00  0.67650663650E+01  0.67650663650E+01  0.00000000000E+00 0.  1.
          2   -1    0    0  501    0  0.00000000000E+00 -0.00000000000E+00 -0.27995684456E+04  0.27995684456E+04  0.00000000000E+00 0.  1.
         35    2    1    2    0    0  0.00000000000E+00  0.00000000000E+00 -0.27928033793E+04  0.28063335120E+04  0.27524001401E+03 0.  0.
         25    1    3    3    0    0 -0.63281162946E+02  0.20372590345E+02 -0.12848418211E+04  0.12921447493E+04  0.12000000000E+03 0.  0.
         25    1    3    3    0    0  0.63281162946E+02 -0.20372590345E+02 -0.15079615582E+04  0.15141887627E+04  0.12000000000E+03 0.  0.
<mgrwt>
<rscale>  0 0.27524001E+03</rscale>
<asrwt>0</asrwt>
<pdfrwt beam="1">  1        2 0.43070320E+00 0.27524001E+03</pdfrwt>
<pdfrwt beam="2">  1       -2 0.10407786E-02 0.27524001E+03</pdfrwt>
<totfact> 0.54839343E+03</totfact>
</mgrwt>
</event>
<event>
 5    1  0.1107336E+001  0.2750321E+03  0.7818608E-02  0.1098434E+00
          2   -1    0    0  501    0  0.00000000000E+00  0.00000000000E+00  0.12648837107E+04  0.12648837107E+04  0.00000000000E+00 0.  1.
         -2   -1    0    0    0  501 -0.00000000000E+00 -0.00000000000E+00 -0.14950520947E+02  0.14950520947E+02  0.00000000000E+00 0.  1.
         35    2    1    2    0    0  0.00000000000E+00  0.00000000000E+00  0.12499331897E+04  0.12798342316E+04  0.27503214657E+03 0.  0.
         25    1    3    3    0    0 -0.23029857194E+02  0.54736998495E+02  0.77094965910E+03  0.78248954638E+03  0.12000000000E+03 0.  0.
         25    1    3    3    0    0  0.23029857194E+02 -0.54736998495E+02  0.47898353062E+03  0.49734468524E+03  0.12000000000E+03 0.  0.
<mgrwt>
<rscale>  0 0.27503215E+03</rscale>
<asrwt>0</asrwt>
<pdfrwt beam="1">  1        2 0.19459741E+00 0.27503215E+03</pdfrwt>
<pdfrwt beam="2">  1       -2 0.23000811E-02 0.27503215E+03</pdfrwt>
<totfact> 0.11532968E+04</totfact>
</mgrwt>
</event>
<event>
 5    1  0.1107336E+001  0.2749222E+03  0.7818608E-02  0.1098495E+00
         -2   -1    0    0    0  501 -0.00000000000E+00  0.00000000000E+00  0.39331304357E+02  0.39331304357E+02  0.00000000000E+00 0.  1.
          2   -1    0    0  501    0  0.00000000000E+00 -0.00000000000E+00 -0.48042034311E+03  0.48042034311E+03  0.00000000000E+00 0.  1.
         35    2    1    2    0    0  0.00000000000E+00  0.00000000000E+00 -0.44108903875E+03  0.51975164746E+03  0.27492223434E+03 0.  0.
         25    1    3    3    0    0  0.17572045215E+02  0.29800566807E+02 -0.11196248897E+03  0.16772730693E+03  0.12000000000E+03 0.  0.
         25    1    3    3    0    0 -0.17572045215E+02 -0.29800566807E+02 -0.32912654978E+03  0.35202434053E+03  0.12000000000E+03 0.  0.
<mgrwt>
<rscale>  0 0.27492223E+03</rscale>
<asrwt>0</asrwt>
<pdfrwt beam="1">  1        2 0.73910824E-01 0.27492223E+03</pdfrwt>
<pdfrwt beam="2">  1       -2 0.60509697E-02 0.27492223E+03</pdfrwt>
<totfact> 0.94567707E+03</totfact>
</mgrwt>
</event>
<event>
 5    1  0.1107336E+001  0.2754344E+03  0.7818608E-02  0.1098209E+00
          1   -1    0    0  501    0  0.00000000000E+00  0.00000000000E+00  0.67803074267E+03  0.67803074267E+03  0.00000000000E+00 0. -1.
         -1   -1    0    0    0  501 -0.00000000000E+00 -0.00000000000E+00 -0.27972225935E+02  0.27972225935E+02  0.00000000000E+00 0. -1.
         35    2    1    2    0    0  0.00000000000E+00  0.00000000000E+00  0.65005851673E+03  0.70600296860E+03  0.27543441415E+03 0.  0.
         25    1    3    3    0    0  0.22687784821E+02 -0.56909418333E+02  0.39809770033E+03  0.42027990254E+03  0.12000000000E+03 0.  0.
         25    1    3    3    0    0 -0.22687784821E+02  0.56909418333E+02  0.25196081641E+03  0.28572306606E+03  0.12000000000E+03 0.  0.
<mgrwt>
<rscale>  0 0.27543441E+03</rscale>
<asrwt>0</asrwt>
<pdfrwt beam="1">  1        1 0.10431241E+00 0.27543441E+03</pdfrwt>
<pdfrwt beam="2">  1       -1 0.43034199E-02 0.27543441E+03</pdfrwt>
<totfact> 0.64929184E+03</totfact>
</mgrwt>
</event>
<event>
 5    1  0.1107336E+001  0.2737996E+03  0.7818608E-02  0.1099124E+00
         -1   -1    0    0    0  501 -0.00000000000E+00  0.00000000000E+00  0.29811253863E+02  0.29811253863E+02  0.00000000000E+00 0.  1.
          1   -1    0    0  501    0  0.00000000000E+00 -0.00000000000E+00 -0.62867372345E+03  0.62867372345E+03  0.00000000000E+00 0.  1.
         35    2    1    2    0    0  0.00000000000E+00  0.00000000000E+00 -0.59886246959E+03  0.65848497731E+03  0.27379957609E+03 0.  0.
         25    1    3    3    0    0 -0.56471969994E+02 -0.10390827867E+02 -0.37715738722E+03  0.39993092833E+03  0.12000000000E+03 0.  0.
         25    1    3    3    0    0  0.56471969994E+02  0.10390827867E+02 -0.22170508236E+03  0.25855404898E+03  0.12000000000E+03 0.  0.
<mgrwt>
<rscale>  0 0.27379958E+03</rscale>
<asrwt>0</asrwt>
<pdfrwt beam="1">  1        1 0.96719030E-01 0.27379958E+03</pdfrwt>
<pdfrwt beam="2">  1       -1 0.45863469E-02 0.27379958E+03</pdfrwt>
<totfact> 0.65748832E+03</totfact>
</mgrwt>
</event>
<event>
 5    1  0.1107336E+001  0.2776710E+03  0.7818608E-02  0.1096968E+00
         -1   -1    0    0    0  501 -0.00000000000E+00  0.00000000000E+00  0.13603427796E+03  0.13603427796E+03  0.00000000000E+00 0. -1.
          1   -1    0    0  501    0  0.00000000000E+00 -0.00000000000E+00 -0.14169443212E+03  0.14169443212E+03  0.00000000000E+00 0. -1.
         35    2    1    2    0    0  0.00000000000E+00  0.00000000000E+00 -0.56601541539E+01  0.27772871008E+03  0.27767102668E+03 0.  0.
         25    1    3    3    0    0  0.64603291639E+02  0.24944682456E+02 -0.11746932786E+02  0.13904608194E+03  0.12000000000E+03 0.  0.
         25    1    3    3    0    0 -0.64603291639E+02 -0.24944682456E+02  0.60867786323E+01  0.13868262814E+03  0.12000000000E+03 0.  0.
<mgrwt>
<rscale>  0 0.27767103E+03</rscale>
<asrwt>0</asrwt>
<pdfrwt beam="1">  1        1 0.21799143E-01 0.27767103E+03</pdfrwt>
<pdfrwt beam="2">  1       -1 0.20928350E-01 0.27767103E+03</pdfrwt>
<totfact> 0.42485103E+03</totfact>
</mgrwt>
</event>
<event>
 5    1  0.1107336E+001  0.2748611E+03  0.7818608E-02  0.1098529E+00
         -2   -1    0    0    0  501 -0.00000000000E+00  0.00000000000E+00  0.11478104380E+03  0.11478104380E+03  0.00000000000E+00 0. -1.
          2   -1    0    0  501    0  0.00000000000E+00 -0.00000000000E+00 -0.16454948945E+03  0.16454948945E+03  0.00000000000E+00 0. -1.
         35    2    1    2    0    0  0.00000000000E+00  0.00000000000E+00 -0.49768445657E+02  0.27933053325E+03  0.27486114426E+03 0.  0.
         25    1    3    3    0    0 -0.14947401424E+02  0.65136159721E+02 -0.29543313902E+02  0.14049537896E+03  0.12000000000E+03 0.  0.
         25    1    3    3    0    0  0.14947401424E+02 -0.65136159721E+02 -0.20225131755E+02  0.13883515429E+03  0.12000000000E+03 0.  0.
<mgrwt>
<rscale>  0 0.27486114E+03</rscale>
<asrwt>0</asrwt>
<pdfrwt beam="1">  1        2 0.25315306E-01 0.27486114E+03</pdfrwt>
<pdfrwt beam="2">  1       -2 0.17658622E-01 0.27486114E+03</pdfrwt>
<totfact> 0.54775026E+03</totfact>
</mgrwt>
</event>
<event>
 5    1  0.1107336E+001  0.2740494E+03  0.7818608E-02  0.1098984E+00
         -1   -1    0    0    0  501 -0.00000000000E+00  0.00000000000E+00  0.27288928746E+02  0.27288928746E+02  0.00000000000E+00 0.  1.
          1   -1    0    0  501    0  0.00000000000E+00 -0.00000000000E+00 -0.68803628317E+03  0.68803628317E+03  0.00000000000E+00 0.  1.
         35    2    1    2    0    0  0.00000000000E+00  0.00000000000E+00 -0.66074735443E+03  0.71532521192E+03  0.27404943427E+03 0.  0.
         25    1    3    3    0    0  0.16705286736E+02 -0.62128436251E+02 -0.29021010117E+03  0.32056342901E+03  0.12000000000E+03 0.  0.
         25    1    3    3    0    0 -0.16705286736E+02  0.62128436251E+02 -0.37053725326E+03  0.39476178291E+03  0.12000000000E+03 0.  0.
<mgrwt>
<rscale>  0 0.27404943E+03</rscale>
<asrwt>0</asrwt>
<pdfrwt beam="1">  1        1 0.10585173E+00 0.27404943E+03</pdfrwt>
<pdfrwt beam="2">  1       -1 0.41982969E-02 0.27404943E+03</pdfrwt>
<totfact> 0.65944302E+03</totfact>
</mgrwt>
</event>
<event>
 5    1  0.1107336E+001  0.2752655E+03  0.7818608E-02  0.1098303E+00
          1   -1    0    0  501    0  0.00000000000E+00  0.00000000000E+00  0.11602597069E+04  0.11602597069E+04  0.00000000000E+00 0. -1.
         -1   -1    0    0    0  501 -0.00000000000E+00 -0.00000000000E+00 -0.16326319594E+02  0.16326319594E+02  0.00000000000E+00 0. -1.
         35    2    1    2    0    0  0.00000000000E+00  0.00000000000E+00  0.11439333873E+04  0.11765860264E+04  0.27526547758E+03 0.  0.
         25    1    3    3    0    0 -0.47700318220E+02  0.45453237424E+02  0.63263466780E+03  0.64727732855E+03  0.12000000000E+03 0.  0.
         25    1    3    3    0    0  0.47700318220E+02 -0.45453237424E+02  0.51129871946E+03  0.52930869790E+03  0.12000000000E+03 0.  0.
<mgrwt>
<rscale>  0 0.27526548E+03</rscale>
<asrwt>0</asrwt>
<pdfrwt beam="1">  1        1 0.17850143E+00 0.27526548E+03</pdfrwt>
<pdfrwt beam="2">  1       -1 0.25117424E-02 0.27526548E+03</pdfrwt>
<totfact> 0.59894032E+03</totfact>
</mgrwt>
</event>
<event>
 5    1  0.1107336E+001  0.2753932E+03  0.7818608E-02  0.1098232E+00
         -2   -1    0    0    0  501 -0.00000000000E+00  0.00000000000E+00  0.95137109332E+02  0.95137109332E+02  0.00000000000E+00 0.  1.
          2   -1    0    0  501    0  0.00000000000E+00 -0.00000000000E+00 -0.19929507689E+03  0.19929507689E+03  0.00000000000E+00 0.  1.
         35    2    1    2    0    0  0.00000000000E+00  0.00000000000E+00 -0.10415796756E+03  0.29443218622E+03  0.27539322809E+03 0.  0.
         25    1    3    3    0    0  0.20710184721E+02 -0.56633371642E+02 -0.84579716593E+02  0.15871351232E+03  0.12000000000E+03 0.  0.
         25    1    3    3    0    0 -0.20710184721E+02  0.56633371642E+02 -0.19578250967E+02  0.13571867390E+03  0.12000000000E+03 0.  0.
<mgrwt>
<rscale>  0 0.27539323E+03</rscale>
<asrwt>0</asrwt>
<pdfrwt beam="1">  1        2 0.30660781E-01 0.27539323E+03</pdfrwt>
<pdfrwt beam="2">  1       -2 0.14636479E-01 0.27539323E+03</pdfrwt>
<totfact> 0.60588436E+03</totfact>
</mgrwt>
</event>
<event>
 5    1  0.1107336E+001  0.2736777E+03  0.7818608E-02  0.1099193E+00
          1   -1    0    0  501    0  0.00000000000E+00  0.00000000000E+00  0.11077518191E+04  0.11077518191E+04  0.00000000000E+00 0. -1.
         -1   -1    0    0    0  501 -0.00000000000E+00 -0.00000000000E+00 -0.16903494190E+02  0.16903494190E+02  0.00000000000E+00 0. -1.
         35    2    1    2    0    0  0.00000000000E+00  0.00000000000E+00  0.10908483249E+04  0.11246553133E+04  0.27367774070E+03 0.  0.
         25    1    3    3    0    0  0.51874357076E+02  0.38621059649E+02  0.59445229814E+03  0.60988201312E+03  0.12000000000E+03 0.  0.
         25    1    3    3    0    0 -0.51874357076E+02 -0.38621059649E+02  0.49639602680E+03  0.51477330019E+03  0.12000000000E+03 0.  0.
<mgrwt>
<rscale>  0 0.27367774E+03</rscale>
<asrwt>0</asrwt>
<pdfrwt beam="1">  1        1 0.17042330E+00 0.27367774E+03</pdfrwt>
<pdfrwt beam="2">  1       -1 0.26005384E-02 0.27367774E+03</pdfrwt>
<totfact> 0.62029853E+03</totfact>
</mgrwt>
</event>
<event>
 5    1  0.1107336E+001  0.2868423E+03  0.7818608E-02  0.1092009E+00
         -2   -1    0    0    0  501 -0.00000000000E+00  0.00000000000E+00  0.72476570852E+02  0.72476570852E+02  0.00000000000E+00 0. -1.
          2   -1    0    0  501    0  0.00000000000E+00 -0.00000000000E+00 -0.28381079283E+03  0.28381079283E+03  0.00000000000E+00 0. -1.
         35    2    1    2    0    0  0.00000000000E+00  0.00000000000E+00 -0.21133422198E+03  0.35628736368E+03  0.28684234719E+03 0.  0.
         25    1    3    3    0    0 -0.70072630170E+02 -0.11072457375E+02 -0.63786723817E+02  0.15330205135E+03  0.12000000000E+03 0.  0.
         25    1    3    3    0    0  0.70072630170E+02  0.11072457375E+02 -0.14754749816E+03  0.20298531234E+03  0.12000000000E+03 0.  0.
<mgrwt>
<rscale>  0 0.28684235E+03</rscale>
<asrwt>0</asrwt>
<pdfrwt beam="1">  1        2 0.43663200E-01 0.28684235E+03</pdfrwt>
<pdfrwt beam="2">  1       -2 0.11150241E-01 0.28684235E+03</pdfrwt>
<totfact> 0.64356137E+03</totfact>
</mgrwt>
</event>
<event>
 5    1  0.1107336E+001  0.2748690E+03  0.7818608E-02  0.1098525E+00
          2   -1    0    0  501    0  0.00000000000E+00  0.00000000000E+00  0.86700784251E+02  0.86700784251E+02  0.00000000000E+00 0. -1.
         -2   -1    0    0    0  501 -0.00000000000E+00 -0.00000000000E+00 -0.21785554057E+03  0.21785554057E+03  0.00000000000E+00 0. -1.
         35    2    1    2    0    0  0.00000000000E+00  0.00000000000E+00 -0.13115475632E+03  0.30455632482E+03  0.27486903224E+03 0.  0.
         25    1    3    3    0    0 -0.33729671862E+02  0.57680049836E+02 -0.60198436978E+02  0.14996176422E+03  0.12000000000E+03 0.  0.
         25    1    3    3    0    0  0.33729671862E+02 -0.57680049836E+02 -0.70956319340E+02  0.15459456060E+03  0.12000000000E+03 0.  0.
<mgrwt>
<rscale>  0 0.27486903E+03</rscale>
<asrwt>0</asrwt>
<pdfrwt beam="1">  1        2 0.13338582E-01 0.27486903E+03</pdfrwt>
<pdfrwt beam="2">  1       -2 0.33516237E-01 0.27486903E+03</pdfrwt>
<totfact> 0.37213197E+03</totfact>
</mgrwt>
</event>
<event>
 5    1  0.1107336E+001  0.2757165E+03  0.7818608E-02  0.1098052E+00
          1   -1    0    0  501    0  0.00000000000E+00  0.00000000000E+00  0.21769705226E+03  0.21769705226E+03  0.00000000000E+00 0.  1.
         -1   -1    0    0    0  501 -0.00000000000E+00 -0.00000000000E+00 -0.87299719470E+02  0.87299719470E+02  0.00000000000E+00 0.  1.
         35    2    1    2    0    0  0.00000000000E+00  0.00000000000E+00  0.13039733279E+03  0.30499677173E+03  0.27571646009E+03 0.  0.
         25    1    3    3    0    0  0.49822326399E+01 -0.34454286757E+02  0.12963378424E+03  0.18004676763E+03  0.12000000000E+03 0.  0.
         25    1    3    3    0    0 -0.49822326399E+01  0.34454286757E+02  0.76354855076E+00  0.12495000410E+03  0.12000000000E+03 0.  0.
<mgrwt>
<rscale>  0 0.27571646E+03</rscale>
<asrwt>0</asrwt>
<pdfrwt beam="1">  1        1 0.33491854E-01 0.27571646E+03</pdfrwt>
<pdfrwt beam="2">  1       -1 0.13430726E-01 0.27571646E+03</pdfrwt>
<totfact> 0.50130366E+03</totfact>
</mgrwt>
</event>
<event>
 5    1  0.1107336E+001  0.2750148E+03  0.7818608E-02  0.1098443E+00
         -2   -1    0    0    0  501 -0.00000000000E+00  0.00000000000E+00  0.19990288714E+02  0.19990288714E+02  0.00000000000E+00 0. -1.
          2   -1    0    0  501    0  0.00000000000E+00 -0.00000000000E+00 -0.94587376013E+03  0.94587376013E+03  0.00000000000E+00 0. -1.
         35    2    1    2    0    0  0.00000000000E+00  0.00000000000E+00 -0.92588347141E+03  0.96586404884E+03  0.27501483271E+03 0.  0.
         25    1    3    3    0    0 -0.45417035218E+02 -0.44961203699E+02 -0.53526533032E+03  0.55226188604E+03  0.12000000000E+03 0.  0.
         25    1    3    3    0    0  0.45417035218E+02  0.44961203699E+02 -0.39061814109E+03  0.41360216280E+03  0.12000000000E+03 0.  0.
<mgrwt>
<rscale>  0 0.27501483E+03</rscale>
<asrwt>0</asrwt>
<pdfrwt beam="1">  1        2 0.14551906E+00 0.27501483E+03</pdfrwt>
<pdfrwt beam="2">  1       -2 0.30754286E-02 0.27501483E+03</pdfrwt>
<totfact> 0.11553085E+04</totfact>
</mgrwt>
</event>
<event>
 5    1  0.1107336E+001  0.2748223E+03  0.7818608E-02  0.1098551E+00
          3   -1    0    0  501    0  0.00000000000E+00  0.00000000000E+00  0.18338574217E+02  0.18338574217E+02  0.00000000000E+00 0. -1.
         -3   -1    0    0    0  501 -0.00000000000E+00 -0.00000000000E+00 -0.10296232519E+04  0.10296232519E+04  0.00000000000E+00 0. -1.
         35    2    1    2    0    0  0.00000000000E+00  0.00000000000E+00 -0.10112846777E+04  0.10479618261E+04  0.27482228745E+03 0.  0.
         25    1    3    3    0    0  0.15784780691E+02 -0.57130799184E+02 -0.38695729715E+03  0.40944967619E+03  0.12000000000E+03 0.  0.
         25    1    3    3    0    0 -0.15784780691E+02  0.57130799184E+02 -0.62432738055E+03  0.63851214994E+03  0.12000000000E+03 0.  0.
<mgrwt>
<rscale>  0 0.27482229E+03</rscale>
<asrwt>0</asrwt>
<pdfrwt beam="1">  1        3 0.28213183E-02 0.27482229E+03</pdfrwt>
<pdfrwt beam="2">  1       -3 0.15840362E+00 0.27482229E+03</pdfrwt>
<totfact> 0.42289688E+02</totfact>
</mgrwt>
</event>
<event>
 5    1  0.1107336E+001  0.2732152E+03  0.7818608E-02  0.1099453E+00
         -1   -1    0    0    0  501 -0.00000000000E+00  0.00000000000E+00  0.24134179530E+03  0.24134179530E+03  0.00000000000E+00 0. -1.
          1   -1    0    0  501    0  0.00000000000E+00 -0.00000000000E+00 -0.77324508978E+02  0.77324508978E+02  0.00000000000E+00 0. -1.
         35    2    1    2    0    0  0.00000000000E+00  0.00000000000E+00  0.16401728632E+03  0.31866630428E+03  0.27321519590E+03 0.  0.
         25    1    3    3    0    0 -0.61037151959E+02 -0.15521883286E+02  0.61969938933E+02  0.14901924745E+03  0.12000000000E+03 0.  0.
         25    1    3    3    0    0  0.61037151959E+02  0.15521883286E+02  0.10204734739E+03  0.16964705682E+03  0.12000000000E+03 0.  0.
<mgrwt>
<rscale>  0 0.27321520E+03</rscale>
<asrwt>0</asrwt>
<pdfrwt beam="1">  1        1 0.11896078E-01 0.27321520E+03</pdfrwt>
<pdfrwt beam="2">  1       -1 0.37129507E-01 0.27321520E+03</pdfrwt>
<totfact> 0.35597186E+03</totfact>
</mgrwt>
</event>
<event>
 5    1  0.1107336E+001  0.2787795E+03  0.7818608E-02  0.1096357E+00
         -2   -1    0    0    0  501 -0.00000000000E+00  0.00000000000E+00  0.12586017801E+03  0.12586017801E+03  0.00000000000E+00 0.  1.
          2   -1    0    0  501    0  0.00000000000E+00 -0.00000000000E+00 -0.15437376211E+03  0.15437376211E+03  0.00000000000E+00 0.  1.
         35    2    1    2    0    0  0.00000000000E+00  0.00000000000E+00 -0.28513584104E+02  0.28023394012E+03  0.27877954860E+03 0.  0.
         25    1    3    3    0    0 -0.18537370611E+02 -0.62932881722E+02 -0.41329199953E+02  0.14287156638E+03  0.12000000000E+03 0.  0.
         25    1    3    3    0    0  0.18537370611E+02  0.62932881722E+02  0.12815615849E+02  0.13736237374E+03  0.12000000000E+03 0.  0.
<mgrwt>
<rscale>  0 0.27877955E+03</rscale>
<asrwt>0</asrwt>
<pdfrwt beam="1">  1        2 0.23749810E-01 0.27877955E+03</pdfrwt>
<pdfrwt beam="2">  1       -2 0.19363104E-01 0.27877955E+03</pdfrwt>
<totfact> 0.50359772E+03</totfact>
</mgrwt>
</event>
<event>
 5    1  0.1107336E+001  0.2834877E+03  0.7818608E-02  0.1093799E+00
         -1   -1    0    0    0  501 -0.00000000000E+00  0.00000000000E+00  0.10818827587E+03  0.10818827587E+03  0.00000000000E+00 0. -1.
          1   -1    0    0  501    0  0.00000000000E+00 -0.00000000000E+00 -0.18570692925E+03  0.18570692925E+03  0.00000000000E+00 0. -1.
         35    2    1    2    0    0  0.00000000000E+00  0.00000000000E+00 -0.77518653380E+02  0.29389520513E+03  0.28348765401E+03 0.  0.
         25    1    3    3    0    0 -0.84787826461E+01 -0.66992398170E+02 -0.38875263551E+01  0.13774971517E+03  0.12000000000E+03 0.  0.
         25    1    3    3    0    0  0.84787826461E+01  0.66992398170E+02 -0.73631127025E+02  0.15614548996E+03  0.12000000000E+03 0.  0.
<mgrwt>
<rscale>  0 0.28348765E+03</rscale>
<asrwt>0</asrwt>
<pdfrwt beam="1">  1        1 0.28570297E-01 0.28348765E+03</pdfrwt>
<pdfrwt beam="2">  1       -1 0.16644350E-01 0.28348765E+03</pdfrwt>
<totfact> 0.43616555E+03</totfact>
</mgrwt>
</event>
<event>
 5    1  0.1107336E+001  0.2759466E+03  0.7818608E-02  0.1097924E+00
          2   -1    0    0  501    0  0.00000000000E+00  0.00000000000E+00  0.39852275770E+02  0.39852275770E+02  0.00000000000E+00 0. -1.
         -2   -1    0    0    0  501 -0.00000000000E+00 -0.00000000000E+00 -0.47767987294E+03  0.47767987294E+03  0.00000000000E+00 0. -1.
         35    2    1    2    0    0  0.00000000000E+00  0.00000000000E+00 -0.43782759717E+03  0.51753214871E+03  0.27594658922E+03 0.  0.
         25    1    3    3    0    0 -0.64598681155E+02 -0.17577229386E+02 -0.19558827578E+03  0.23903288941E+03  0.12000000000E+03 0.  0.
         25    1    3    3    0    0  0.64598681155E+02  0.17577229386E+02 -0.24223932139E+03  0.27849925929E+03  0.12000000000E+03 0.  0.
<mgrwt>
<rscale>  0 0.27594659E+03</rscale>
<asrwt>0</asrwt>
<pdfrwt beam="1">  1        2 0.61311199E-02 0.27594659E+03</pdfrwt>
<pdfrwt beam="2">  1       -2 0.73489205E-01 0.27594659E+03</pdfrwt>
<totfact> 0.20573040E+03</totfact>
</mgrwt>
</event>
<event>
 5    1  0.1107336E+001  0.2751069E+03  0.7818608E-02  0.1098392E+00
         -2   -1    0    0    0  501 -0.00000000000E+00  0.00000000000E+00  0.10273340704E+02  0.10273340704E+02  0.00000000000E+00 0. -1.
          2   -1    0    0  501    0  0.00000000000E+00 -0.00000000000E+00 -0.18417520113E+04  0.18417520113E+04  0.00000000000E+00 0. -1.
         35    2    1    2    0    0  0.00000000000E+00  0.00000000000E+00 -0.18314786706E+04  0.18520253520E+04  0.27510685854E+03 0.  0.
         25    1    3    3    0    0  0.31690381892E+02 -0.46415639835E+02 -0.66726899655E+03  0.68029890907E+03  0.12000000000E+03 0.  0.
         25    1    3    3    0    0 -0.31690381892E+02  0.46415639835E+02 -0.11642096740E+04  0.11717264429E+04  0.12000000000E+03 0.  0.
<mgrwt>
<rscale>  0 0.27510686E+03</rscale>
<asrwt>0</asrwt>
<pdfrwt beam="1">  1        2 0.28334656E+00 0.27510686E+03</pdfrwt>
<pdfrwt beam="2">  1       -2 0.15805134E-02 0.27510686E+03</pdfrwt>
<totfact> 0.98326365E+03</totfact>
</mgrwt>
</event>
<event>
 5    1  0.1107336E+001  0.2746165E+03  0.7818608E-02  0.1098666E+00
         -2   -1    0    0    0  501 -0.00000000000E+00  0.00000000000E+00  0.98394708762E+02  0.98394708762E+02  0.00000000000E+00 0. -1.
          2   -1    0    0  501    0  0.00000000000E+00 -0.00000000000E+00 -0.19161151690E+03  0.19161151690E+03  0.00000000000E+00 0. -1.
         35    2    1    2    0    0  0.00000000000E+00  0.00000000000E+00 -0.93216808142E+02  0.29000622567E+03  0.27461652828E+03 0.  0.
         25    1    3    3    0    0 -0.58276838788E+01 -0.25606651736E+02  0.18180331974E+02  0.12417804550E+03  0.12000000000E+03 0.  0.
         25    1    3    3    0    0  0.58276838788E+01  0.25606651736E+02 -0.11139714012E+03  0.16582818017E+03  0.12000000000E+03 0.  0.
<mgrwt>
<rscale>  0 0.27461653E+03</rscale>
<asrwt>0</asrwt>
<pdfrwt beam="1">  1        2 0.29478694E-01 0.27461653E+03</pdfrwt>
<pdfrwt beam="2">  1       -2 0.15137648E-01 0.27461653E+03</pdfrwt>
<totfact> 0.59833610E+03</totfact>
</mgrwt>
</event>
<event>
 5    1  0.1107336E+001  0.2745798E+03  0.7818608E-02  0.1098687E+00
         -1   -1    0    0    0  501 -0.00000000000E+00  0.00000000000E+00  0.15946499843E+02  0.15946499843E+02  0.00000000000E+00 0.  1.
          1   -1    0    0  501    0  0.00000000000E+00 -0.00000000000E+00 -0.11819843564E+04  0.11819843564E+04  0.00000000000E+00 0.  1.
         35    2    1    2    0    0  0.00000000000E+00  0.00000000000E+00 -0.11660378566E+04  0.11979308563E+04  0.27457977605E+03 0.  0.
         25    1    3    3    0    0  0.50910511059E+01  0.57441030317E+02 -0.72922883031E+03  0.74128272455E+03  0.12000000000E+03 0.  0.
         25    1    3    3    0    0 -0.50910511059E+01 -0.57441030317E+02 -0.43680902626E+03  0.45664813171E+03  0.12000000000E+03 0.  0.
<mgrwt>
<rscale>  0 0.27457978E+03</rscale>
<asrwt>0</asrwt>
<pdfrwt beam="1">  1        1 0.18184387E+00 0.27457978E+03</pdfrwt>
<pdfrwt beam="2">  1       -1 0.24533060E-02 0.27457978E+03</pdfrwt>
<totfact> 0.59849464E+03</totfact>
</mgrwt>
</event>
<event>
 5    1  0.1107336E+001  0.2748466E+03  0.7818608E-02  0.1098537E+00
         -1   -1    0    0    0  501 -0.00000000000E+00  0.00000000000E+00  0.84656687512E+02  0.84656687512E+02  0.00000000000E+00 0. -1.
          1   -1    0    0  501    0  0.00000000000E+00 -0.00000000000E+00 -0.22307945703E+03  0.22307945703E+03  0.00000000000E+00 0. -1.
         35    2    1    2    0    0  0.00000000000E+00  0.00000000000E+00 -0.13842276952E+03  0.30773614454E+03  0.27484663275E+03 0.  0.
         25    1    3    3    0    0 -0.35579422278E+02 -0.26738256438E+01 -0.13266906447E+03  0.18241196589E+03  0.12000000000E+03 0.  0.
         25    1    3    3    0    0  0.35579422278E+02  0.26738256438E+01 -0.57537050523E+01  0.12532417865E+03  0.12000000000E+03 0.  0.
<mgrwt>
<rscale>  0 0.27484663E+03</rscale>
<asrwt>0</asrwt>
<pdfrwt beam="1">  1        1 0.34319916E-01 0.27484663E+03</pdfrwt>
<pdfrwt beam="2">  1       -1 0.13024106E-01 0.27484663E+03</pdfrwt>
<totfact> 0.51016932E+03</totfact>
</mgrwt>
</event>
<event>
 5    1  0.1107336E+001  0.2752318E+03  0.7818608E-02  0.1098322E+00
         -1   -1    0    0    0  501 -0.00000000000E+00  0.00000000000E+00  0.10284129805E+02  0.10284129805E+02  0.00000000000E+00 0. -1.
          1   -1    0    0  501    0  0.00000000000E+00 -0.00000000000E+00 -0.18414907196E+04  0.18414907196E+04  0.00000000000E+00 0. -1.
         35    2    1    2    0    0  0.00000000000E+00  0.00000000000E+00 -0.18312065898E+04  0.18517748494E+04  0.27523175394E+03 0.  0.
         25    1    3    3    0    0 -0.54978384724E+02 -0.37619443559E+02 -0.84822716516E+03  0.85925966334E+03  0.12000000000E+03 0.  0.
         25    1    3    3    0    0  0.54978384724E+02  0.37619443559E+02 -0.98297942464E+03  0.99251518608E+03  0.12000000000E+03 0.  0.
<mgrwt>
<rscale>  0 0.27523175E+03</rscale>
<asrwt>0</asrwt>
<pdfrwt beam="1">  1        1 0.28330610E+00 0.27523175E+03</pdfrwt>
<pdfrwt beam="2">  1       -1 0.15821747E-02 0.27523175E+03</pdfrwt>
<totfact> 0.41294309E+03</totfact>
</mgrwt>
</event>
<event>
 5    1  0.1107336E+001  0.2744896E+03  0.7818608E-02  0.1098737E+00
          1   -1    0    0  501    0  0.00000000000E+00  0.00000000000E+00  0.40537861499E+02  0.40537861499E+02  0.00000000000E+00 0.  1.
         -1   -1    0    0    0  501 -0.00000000000E+00 -0.00000000000E+00 -0.46465544242E+03  0.46465544242E+03  0.00000000000E+00 0.  1.
         35    2    1    2    0    0  0.00000000000E+00  0.00000000000E+00 -0.42411758092E+03  0.50519330392E+03  0.27448962071E+03 0.  0.
         25    1    3    3    0    0  0.49209319824E+02 -0.29066106249E+02 -0.27500603909E+03  0.30544183935E+03  0.12000000000E+03 0.  0.
         25    1    3    3    0    0 -0.49209319824E+02  0.29066106249E+02 -0.14911154183E+03  0.19975146457E+03  0.12000000000E+03 0.  0.
<mgrwt>
<rscale>  0 0.27448962E+03</rscale>
<asrwt>0</asrwt>
<pdfrwt beam="1">  1        1 0.62365941E-02 0.27448962E+03</pdfrwt>
<pdfrwt beam="2">  1       -1 0.71485453E-01 0.27448962E+03</pdfrwt>
<totfact> 0.25112219E+03</totfact>
</mgrwt>
</event>
<event>
 5    1  0.1107336E+001  0.2768395E+03  0.7818608E-02  0.1097428E+00
          2   -1    0    0  501    0  0.00000000000E+00  0.00000000000E+00  0.12047734603E+04  0.12047734603E+04  0.00000000000E+00 0. -1.
         -2   -1    0    0    0  501 -0.00000000000E+00 -0.00000000000E+00 -0.15903421647E+02  0.15903421647E+02  0.00000000000E+00 0. -1.
         35    2    1    2    0    0  0.00000000000E+00  0.00000000000E+00  0.11888700387E+04  0.12206768820E+04  0.27683945043E+03 0.  0.
         25    1    3    3    0    0 -0.59060934739E+02 -0.24582348003E+02  0.70835754215E+03  0.72129251581E+03  0.12000000000E+03 0.  0.
         25    1    3    3    0    0  0.59060934739E+02  0.24582348003E+02  0.48051249655E+03  0.49938436618E+03  0.12000000000E+03 0.  0.
<mgrwt>
<rscale>  0 0.27683945E+03</rscale>
<asrwt>0</asrwt>
<pdfrwt beam="1">  1        2 0.18534969E+00 0.27683945E+03</pdfrwt>
<pdfrwt beam="2">  1       -2 0.24466812E-02 0.27683945E+03</pdfrwt>
<totfact> 0.11381383E+04</totfact>
</mgrwt>
</event>
<event>
 5    1  0.1107336E+001  0.2744671E+03  0.7818608E-02  0.1098750E+00
          1   -1    0    0  501    0  0.00000000000E+00  0.00000000000E+00  0.15342971065E+04  0.15342971065E+04  0.00000000000E+00 0.  1.
         -1   -1    0    0    0  501 -0.00000000000E+00 -0.00000000000E+00 -0.12274703235E+02  0.12274703235E+02  0.00000000000E+00 0.  1.
         35    2    1    2    0    0  0.00000000000E+00  0.00000000000E+00  0.15220224033E+04  0.15465718098E+04  0.27446705928E+03 0.  0.
         25    1    3    3    0    0  0.59467199362E+01  0.30733476596E+02  0.10921319731E+04  0.10991506524E+04  0.12000000000E+03 0.  0.
         25    1    3    3    0    0 -0.59467199362E+01 -0.30733476596E+02  0.42989043022E+03  0.44742115736E+03  0.12000000000E+03 0.  0.
<mgrwt>
<rscale>  0 0.27446706E+03</rscale>
<asrwt>0</asrwt>
<pdfrwt beam="1">  1        1 0.23604556E+00 0.27446706E+03</pdfrwt>
<pdfrwt beam="2">  1       -1 0.18884171E-02 0.27446706E+03</pdfrwt>
<totfact> 0.50651142E+03</totfact>
</mgrwt>
</event>
<event>
 5    1  0.1107336E+001  0.2749254E+03  0.7818608E-02  0.1098493E+00
          2   -1    0    0  501    0  0.00000000000E+00  0.00000000000E+00  0.93400302906E+03  0.93400302906E+03  0.00000000000E+00 0.  1.
         -2   -1    0    0    0  501 -0.00000000000E+00 -0.00000000000E+00 -0.20231192615E+02  0.20231192615E+02  0.00000000000E+00 0.  1.
         35    2    1    2    0    0  0.00000000000E+00  0.00000000000E+00  0.91377183644E+03  0.95423422167E+03  0.27492540941E+03 0.  0.
         25    1    3    3    0    0 -0.36331812163E+01 -0.44625320608E+02  0.63013053156E+03  0.64301563438E+03  0.12000000000E+03 0.  0.
         25    1    3    3    0    0  0.36331812163E+01  0.44625320608E+02  0.28364130488E+03  0.31121858730E+03  0.12000000000E+03 0.  0.
<mgrwt>
<rscale>  0 0.27492541E+03</rscale>
<asrwt>0</asrwt>
<pdfrwt beam="1">  1        2 0.14369274E+00 0.27492541E+03</pdfrwt>
<pdfrwt beam="2">  1       -2 0.31124919E-02 0.27492541E+03</pdfrwt>
<totfact> 0.11546187E+04</totfact>
</mgrwt>
</event>
<event>
 5    1  0.1107336E+001  0.2760394E+03  0.7818608E-02  0.1097872E+00
         -2   -1    0    0    0  501 -0.00000000000E+00  0.00000000000E+00  0.22405723988E+03  0.22405723988E+03  0.00000000000E+00 0.  1.
          2   -1    0    0  501    0  0.00000000000E+00 -0.00000000000E+00 -0.85020386893E+02  0.85020386893E+02  0.00000000000E+00 0.  1.
         35    2    1    2    0    0  0.00000000000E+00  0.00000000000E+00  0.13903685299E+03  0.30907762677E+03  0.27603936836E+03 0.  0.
         25    1    3    3    0    0 -0.15074931127E+02 -0.65384973369E+02  0.55943641839E+02  0.14843227194E+03  0.12000000000E+03 0.  0.
         25    1    3    3    0    0  0.15074931127E+02  0.65384973369E+02  0.83093211148E+02  0.16064535483E+03  0.12000000000E+03 0.  0.
<mgrwt>
<rscale>  0 0.27603937E+03</rscale>
<asrwt>0</asrwt>
<pdfrwt beam="1">  1        2 0.13080060E-01 0.27603937E+03</pdfrwt>
<pdfrwt beam="2">  1       -2 0.34470344E-01 0.27603937E+03</pdfrwt>
<totfact> 0.36172137E+03</totfact>
</mgrwt>
</event>
<event>
 5    1  0.1107336E+001  0.2762200E+03  0.7818608E-02  0.1097772E+00
          1   -1    0    0  501    0  0.00000000000E+00  0.00000000000E+00  0.84007858892E+03  0.84007858892E+03  0.00000000000E+00 0. -1.
         -1   -1    0    0    0  501 -0.00000000000E+00 -0.00000000000E+00 -0.22705459362E+02  0.22705459362E+02  0.00000000000E+00 0. -1.
         35    2    1    2    0    0  0.00000000000E+00  0.00000000000E+00  0.81737312956E+03  0.86278404828E+03  0.27621998669E+03 0.  0.
         25    1    3    3    0    0  0.32302108267E+02  0.32336435741E+01  0.22074166714E+03  0.25333923159E+03  0.12000000000E+03 0.  0.
         25    1    3    3    0    0 -0.32302108267E+02 -0.32336435741E+01  0.59663146241E+03  0.60944481669E+03  0.12000000000E+03 0.  0.
<mgrwt>
<rscale>  0 0.27621999E+03</rscale>
<asrwt>0</asrwt>
<pdfrwt beam="1">  1        1 0.12924284E+00 0.27621999E+03</pdfrwt>
<pdfrwt beam="2">  1       -1 0.34931482E-02 0.27621999E+03</pdfrwt>
<totfact> 0.64130982E+03</totfact>
</mgrwt>
</event>
<event>
 5    1  0.1107336E+001  0.2756273E+03  0.7818608E-02  0.1098101E+00
         -2   -1    0    0    0  501 -0.00000000000E+00  0.00000000000E+00  0.17672005996E+03  0.17672005996E+03  0.00000000000E+00 0.  1.
          2   -1    0    0  501    0  0.00000000000E+00 -0.00000000000E+00 -0.10747280753E+03  0.10747280753E+03  0.00000000000E+00 0.  1.
         35    2    1    2    0    0  0.00000000000E+00  0.00000000000E+00  0.69247252435E+02  0.28419286749E+03  0.27562729176E+03 0.  0.
         25    1    3    3    0    0  0.35133151925E+02 -0.34801582276E+02 -0.13153316572E+02  0.13045496629E+03  0.12000000000E+03 0.  0.
         25    1    3    3    0    0 -0.35133151925E+02  0.34801582276E+02  0.82400569007E+02  0.15373790120E+03  0.12000000000E+03 0.  0.
<mgrwt>
<rscale>  0 0.27562729E+03</rscale>
<asrwt>0</asrwt>
<pdfrwt beam="1">  1        2 0.16534278E-01 0.27562729E+03</pdfrwt>
<pdfrwt beam="2">  1       -2 0.27187702E-01 0.27562729E+03</pdfrwt>
<totfact> 0.42197622E+03</totfact>
</mgrwt>
</event>
<event>
 5    1  0.1107336E+001  0.2746230E+03  0.7818608E-02  0.1098663E+00
         -1   -1    0    0    0  501 -0.00000000000E+00  0.00000000000E+00  0.14577944020E+02  0.14577944020E+02  0.00000000000E+00 0.  1.
          1   -1    0    0  501    0  0.00000000000E+00 -0.00000000000E+00 -0.12933540817E+04  0.12933540817E+04  0.00000000000E+00 0.  1.
         35    2    1    2    0    0  0.00000000000E+00  0.00000000000E+00 -0.12787761376E+04  0.13079320257E+04  0.27462296627E+03 0.  0.
         25    1    3    3    0    0  0.41160756866E+02  0.25337635653E+02 -0.85858570846E+03  0.86827738797E+03  0.12000000000E+03 0.  0.
         25    1    3    3    0    0 -0.41160756866E+02 -0.25337635653E+02 -0.42019042918E+03  0.43965463771E+03  0.12000000000E+03 0.  0.
<mgrwt>
<rscale>  0 0.27462297E+03</rscale>
<asrwt>0</asrwt>
<pdfrwt beam="1">  1        1 0.19897755E+00 0.27462297E+03</pdfrwt>
<pdfrwt beam="2">  1       -1 0.22427606E-02 0.27462297E+03</pdfrwt>
<totfact> 0.57149085E+03</totfact>
</mgrwt>
</event>
<event>
 5    1  0.1107336E+001  0.2740234E+03  0.7818608E-02  0.1098999E+00
          2   -1    0    0  501    0  0.00000000000E+00  0.00000000000E+00  0.10421157603E+04  0.10421157603E+04  0.00000000000E+00 0.  1.
         -2   -1    0    0    0  501 -0.00000000000E+00 -0.00000000000E+00 -0.18013549326E+02  0.18013549326E+02  0.00000000000E+00 0.  1.
         35    2    1    2    0    0  0.00000000000E+00  0.00000000000E+00  0.10241022110E+04  0.10601293096E+04  0.27402338332E+03 0.  0.
         25    1    3    3    0    0 -0.35214740303E+02 -0.50793197033E+02  0.42114138642E+03  0.44224438284E+03  0.12000000000E+03 0.  0.
         25    1    3    3    0    0  0.35214740303E+02  0.50793197033E+02  0.60296082457E+03  0.61788492680E+03  0.12000000000E+03 0.  0.
<mgrwt>
<rscale>  0 0.27402338E+03</rscale>
<asrwt>0</asrwt>
<pdfrwt beam="1">  1        2 0.16032545E+00 0.27402338E+03</pdfrwt>
<pdfrwt beam="2">  1       -2 0.27713161E-02 0.27402338E+03</pdfrwt>
<totfact> 0.11768852E+04</totfact>
</mgrwt>
</event>
<event>
 5    1  0.1107336E+001  0.2758136E+03  0.7818608E-02  0.1097998E+00
         -1   -1    0    0    0  501 -0.00000000000E+00  0.00000000000E+00  0.23530482391E+02  0.23530482391E+02  0.00000000000E+00 0.  1.
          1   -1    0    0  501    0  0.00000000000E+00 -0.00000000000E+00 -0.80824064124E+03  0.80824064124E+03  0.00000000000E+00 0.  1.
         35    2    1    2    0    0  0.00000000000E+00  0.00000000000E+00 -0.78471015885E+03  0.83177112363E+03  0.27581364851E+03 0.  0.
         25    1    3    3    0    0  0.57667456446E+02  0.33379698926E+02 -0.35205825130E+03  0.37786869696E+03  0.12000000000E+03 0.  0.
         25    1    3    3    0    0 -0.57667456446E+02 -0.33379698926E+02 -0.43265190755E+03  0.45390242668E+03  0.12000000000E+03 0.  0.
<mgrwt>
<rscale>  0 0.27581365E+03</rscale>
<asrwt>0</asrwt>
<pdfrwt beam="1">  1        1 0.12434469E+00 0.27581365E+03</pdfrwt>
<pdfrwt beam="2">  1       -1 0.36200748E-02 0.27581365E+03</pdfrwt>
<totfact> 0.64604515E+03</totfact>
</mgrwt>
</event>
<event>
 5    1  0.1107336E+001  0.2750539E+03  0.7818608E-02  0.1098421E+00
         -2   -1    0    0    0  501 -0.00000000000E+00  0.00000000000E+00  0.67386236533E+01  0.67386236533E+01  0.00000000000E+00 0. -1.
          2   -1    0    0  501    0  0.00000000000E+00 -0.00000000000E+00 -0.28067541980E+04  0.28067541980E+04  0.00000000000E+00 0. -1.
         35    2    1    2    0    0  0.00000000000E+00  0.00000000000E+00 -0.28000155743E+04  0.28134928216E+04  0.27505388728E+03 0.  0.
         25    1    3    3    0    0 -0.23337255518E+02  0.62589045743E+02 -0.14735164154E+04  0.14799029166E+04  0.12000000000E+03 0.  0.
         25    1    3    3    0    0  0.23337255518E+02 -0.62589045743E+02 -0.13264991589E+04  0.13335899050E+04  0.12000000000E+03 0.  0.
<mgrwt>
<rscale>  0 0.27505389E+03</rscale>
<asrwt>0</asrwt>
<pdfrwt beam="1">  1        2 0.43180821E+00 0.27505389E+03</pdfrwt>
<pdfrwt beam="2">  1       -2 0.10367116E-02 0.27505389E+03</pdfrwt>
<totfact> 0.54633143E+03</totfact>
</mgrwt>
</event>
<event>
 5    1  0.1107336E+001  0.2753305E+03  0.7818608E-02  0.1098267E+00
         -2   -1    0    0    0  501 -0.00000000000E+00  0.00000000000E+00  0.26791720109E+02  0.26791720109E+02  0.00000000000E+00 0.  1.
          2   -1    0    0  501    0  0.00000000000E+00 -0.00000000000E+00 -0.70737243452E+03  0.70737243452E+03  0.00000000000E+00 0.  1.
         35    2    1    2    0    0  0.00000000000E+00  0.00000000000E+00 -0.68058071441E+03  0.73416415462E+03  0.27533052339E+03 0.  0.
         25    1    3    3    0    0 -0.64317056987E+02 -0.16719910047E+02 -0.30925301456E+03  0.33831001496E+03  0.12000000000E+03 0.  0.
         25    1    3    3    0    0  0.64317056987E+02  0.16719910047E+02 -0.37132769985E+03  0.39585413966E+03  0.12000000000E+03 0.  0.
<mgrwt>
<rscale>  0 0.27533052E+03</rscale>
<asrwt>0</asrwt>
<pdfrwt beam="1">  1        2 0.10882652E+00 0.27533052E+03</pdfrwt>
<pdfrwt beam="2">  1       -2 0.41218035E-02 0.27533052E+03</pdfrwt>
<totfact> 0.10832735E+04</totfact>
</mgrwt>
</event>
<event>
 5    1  0.1107336E+001  0.2738467E+03  0.7818608E-02  0.1099098E+00
         -3   -1    0    0    0  501 -0.00000000000E+00  0.00000000000E+00  0.63284626861E+03  0.63284626861E+03  0.00000000000E+00 0.  1.
          3   -1    0    0  501    0  0.00000000000E+00 -0.00000000000E+00 -0.29624897979E+02  0.29624897979E+02  0.00000000000E+00 0.  1.
         35    2    1    2    0    0  0.00000000000E+00  0.00000000000E+00  0.60322137063E+03  0.66247116659E+03  0.27384671730E+03 0.  0.
         25    1    3    3    0    0 -0.27295280263E+02  0.57266282082E+02  0.34512458100E+03  0.37085770290E+03  0.12000000000E+03 0.  0.
         25    1    3    3    0    0  0.27295280263E+02 -0.57266282082E+02  0.25809678963E+03  0.29161346369E+03  0.12000000000E+03 0.  0.
<mgrwt>
<rscale>  0 0.27384672E+03</rscale>
<asrwt>0</asrwt>
<pdfrwt beam="1">  1        3 0.45576771E-02 0.27384672E+03</pdfrwt>
<pdfrwt beam="2">  1       -3 0.97360955E-01 0.27384672E+03</pdfrwt>
<totfact> 0.64465526E+02</totfact>
</mgrwt>
</event>
<event>
 5    1  0.1107336E+001  0.2743333E+03  0.7818608E-02  0.1098825E+00
          1   -1    0    0  501    0  0.00000000000E+00  0.00000000000E+00  0.12119883392E+04  0.12119883392E+04  0.00000000000E+00 0. -1.
         -1   -1    0    0    0  501 -0.00000000000E+00 -0.00000000000E+00 -0.15523817968E+02  0.15523817968E+02  0.00000000000E+00 0. -1.
         35    2    1    2    0    0  0.00000000000E+00  0.00000000000E+00  0.11964645213E+04  0.12275121572E+04  0.27433327437E+03 0.  0.
         25    1    3    3    0    0 -0.28579150435E+02  0.51077999536E+02  0.73894580595E+03  0.75091053662E+03  0.12000000000E+03 0.  0.
         25    1    3    3    0    0  0.28579150435E+02 -0.51077999536E+02  0.45751871531E+03  0.47660162057E+03  0.12000000000E+03 0.  0.
<mgrwt>
<rscale>  0 0.27433327E+03</rscale>
<asrwt>0</asrwt>
<pdfrwt beam="1">  1        1 0.18645967E+00 0.27433327E+03</pdfrwt>
<pdfrwt beam="2">  1       -1 0.23882806E-02 0.27433327E+03</pdfrwt>
<totfact> 0.59315828E+03</totfact>
</mgrwt>
</event>
<event>
 5    1  0.1107336E+001  0.2767389E+03  0.7818608E-02  0.1097484E+00
          2   -1    0    0  501    0  0.00000000000E+00  0.00000000000E+00  0.16555841264E+03  0.16555841264E+03  0.00000000000E+00 0. -1.
         -2   -1    0    0    0  501 -0.00000000000E+00 -0.00000000000E+00 -0.11564557749E+03  0.11564557749E+03  0.00000000000E+00 0. -1.
         35    2    1    2    0    0  0.00000000000E+00  0.00000000000E+00  0.49912835157E+02  0.28120399013E+03  0.27673885334E+03 0.  0.
         25    1    3    3    0    0 -0.44757629100E+02 -0.45508965977E+02  0.51293466110E+02  0.14527673941E+03  0.12000000000E+03 0.  0.
         25    1    3    3    0    0  0.44757629100E+02  0.45508965977E+02 -0.13806309537E+01  0.13592725072E+03  0.12000000000E+03 0.  0.
<mgrwt>
<rscale>  0 0.27673885E+03</rscale>
<asrwt>0</asrwt>
<pdfrwt beam="1">  1        2 0.25470525E-01 0.27673885E+03</pdfrwt>
<pdfrwt beam="2">  1       -2 0.17791627E-01 0.27673885E+03</pdfrwt>
<totfact> 0.53732511E+03</totfact>
</mgrwt>
</event>
<event>
 5    1  0.1107336E+001  0.2660142E+03  0.7818608E-02  0.1103583E+00
         -1   -1    0    0    0  501 -0.00000000000E+00  0.00000000000E+00  0.16342579877E+03  0.16342579877E+03  0.00000000000E+00 0. -1.
          1   -1    0    0  501    0  0.00000000000E+00 -0.00000000000E+00 -0.10825024837E+03  0.10825024837E+03  0.00000000000E+00 0. -1.
         35    2    1    2    0    0  0.00000000000E+00  0.00000000000E+00  0.55175550403E+02  0.27167604714E+03  0.26601415982E+03 0.  0.
         25    1    3    3    0    0  0.47344908873E+02  0.55175730118E+01 -0.50118214482E+01  0.12921726805E+03  0.12000000000E+03 0.  0.
         25    1    3    3    0    0 -0.47344908873E+02 -0.55175730118E+01  0.60187371851E+02  0.14245877909E+03  0.12000000000E+03 0.  0.
<mgrwt>
<rscale>  0 0.26601416E+03</rscale>
<asrwt>0</asrwt>
<pdfrwt beam="1">  1        1 0.16653884E-01 0.26601416E+03</pdfrwt>
<pdfrwt beam="2">  1       -1 0.25142430E-01 0.26601416E+03</pdfrwt>
<totfact> 0.44409436E+03</totfact>
</mgrwt>
</event>
<event>
 5    1  0.1107336E+001  0.2766499E+03  0.7818608E-02  0.1097533E+00
          1   -1    0    0  501    0  0.00000000000E+00  0.00000000000E+00  0.52234029237E+03  0.52234029237E+03  0.00000000000E+00 0.  1.
         -1   -1    0    0    0  501 -0.00000000000E+00 -0.00000000000E+00 -0.36630906627E+02  0.36630906627E+02  0.00000000000E+00 0.  1.
         35    2    1    2    0    0  0.00000000000E+00  0.00000000000E+00  0.48570938574E+03  0.55897119900E+03  0.27664994833E+03 0.  0.
         25    1    3    3    0    0 -0.11868124230E+02 -0.28486886848E+02  0.11860719855E+03  0.17152265927E+03  0.12000000000E+03 0.  0.
         25    1    3    3    0    0  0.11868124230E+02  0.28486886848E+02  0.36710218719E+03  0.38744853973E+03  0.12000000000E+03 0.  0.
<mgrwt>
<rscale>  0 0.27664995E+03</rscale>
<asrwt>0</asrwt>
<pdfrwt beam="1">  1        1 0.80360040E-01 0.27664995E+03</pdfrwt>
<pdfrwt beam="2">  1       -1 0.56355244E-02 0.27664995E+03</pdfrwt>
<totfact> 0.62280595E+03</totfact>
</mgrwt>
</event>
<event>
 5    1  0.1107336E+001  0.2752730E+03  0.7818608E-02  0.1098299E+00
         -2   -1    0    0    0  501 -0.00000000000E+00  0.00000000000E+00  0.47612890519E+03  0.47612890519E+03  0.00000000000E+00 0. -1.
          2   -1    0    0  501    0  0.00000000000E+00 -0.00000000000E+00 -0.39787140332E+02  0.39787140332E+02  0.00000000000E+00 0. -1.
         35    2    1    2    0    0  0.00000000000E+00  0.00000000000E+00  0.43634176485E+03  0.51591604552E+03  0.27527301042E+03 0.  0.
         25    1    3    3    0    0 -0.31788302773E+02  0.21570771556E+02  0.11435972964E+03  0.17015857940E+03  0.12000000000E+03 0.  0.
         25    1    3    3    0    0  0.31788302773E+02 -0.21570771556E+02  0.32198203521E+03  0.34575746612E+03  0.12000000000E+03 0.  0.
<mgrwt>
<rscale>  0 0.27527301E+03</rscale>
<asrwt>0</asrwt>
<pdfrwt beam="1">  1        2 0.61210989E-02 0.27527301E+03</pdfrwt>
<pdfrwt beam="2">  1       -2 0.73250597E-01 0.27527301E+03</pdfrwt>
<totfact> 0.20761083E+03</totfact>
</mgrwt>
</event>
<event>
 5    1  0.1107336E+001  0.2740421E+03  0.7818608E-02  0.1098988E+00
         -1   -1    0    0    0  501 -0.00000000000E+00  0.00000000000E+00  0.22313511542E+02  0.22313511542E+02  0.00000000000E+00 0.  1.
          1   -1    0    0  501    0  0.00000000000E+00 -0.00000000000E+00 -0.84140822272E+03  0.84140822272E+03  0.00000000000E+00 0.  1.
         35    2    1    2    0    0  0.00000000000E+00  0.00000000000E+00 -0.81909471117E+03  0.86372173426E+03  0.27404212880E+03 0.  0.
         25    1    3    3    0    0  0.93454560984E+01  0.47184838004E+02 -0.55263370673E+03  0.56755419151E+03  0.12000000000E+03 0.  0.
         25    1    3    3    0    0 -0.93454560984E+01 -0.47184838004E+02 -0.26646100444E+03  0.29616754275E+03  0.12000000000E+03 0.  0.
<mgrwt>
<rscale>  0 0.27404213E+03</rscale>
<asrwt>0</asrwt>
<pdfrwt beam="1">  1        1 0.12944743E+00 0.27404213E+03</pdfrwt>
<pdfrwt beam="2">  1       -1 0.34328477E-02 0.27404213E+03</pdfrwt>
<totfact> 0.65630097E+03</totfact>
</mgrwt>
</event>
<event>
 5    1  0.1107336E+001  0.2748788E+03  0.7818608E-02  0.1098519E+00
         -2   -1    0    0    0  501 -0.00000000000E+00  0.00000000000E+00  0.86094136838E+01  0.86094136838E+01  0.00000000000E+00 0.  1.
          2   -1    0    0  501    0  0.00000000000E+00 -0.00000000000E+00 -0.21940624192E+04  0.21940624192E+04  0.00000000000E+00 0.  1.
         35    2    1    2    0    0  0.00000000000E+00  0.00000000000E+00 -0.21854530055E+04  0.22026718328E+04  0.27487881704E+03 0.  0.
         25    1    3    3    0    0  0.18815270483E+02  0.63908337445E+02 -0.11501211656E+04  0.11582819111E+04  0.12000000000E+03 0.  0.
         25    1    3    3    0    0 -0.18815270483E+02 -0.63908337445E+02 -0.10353318399E+04  0.10443899218E+04  0.12000000000E+03 0.  0.
<mgrwt>
<rscale>  0 0.27487882E+03</rscale>
<asrwt>0</asrwt>
<pdfrwt beam="1">  1        2 0.33754793E+00 0.27487882E+03</pdfrwt>
<pdfrwt beam="2">  1       -2 0.13245257E-02 0.27487882E+03</pdfrwt>
<totfact> 0.83014323E+03</totfact>
</mgrwt>
</event>
<event>
 5    1  0.1107336E+001  0.2747746E+03  0.7818608E-02  0.1098578E+00
          1   -1    0    0  501    0  0.00000000000E+00  0.00000000000E+00  0.70915117129E+03  0.70915117129E+03  0.00000000000E+00 0.  1.
         -1   -1    0    0    0  501 -0.00000000000E+00 -0.00000000000E+00 -0.26616703034E+02  0.26616703034E+02  0.00000000000E+00 0.  1.
         35    2    1    2    0    0  0.00000000000E+00  0.00000000000E+00  0.68253446826E+03  0.73576787433E+03  0.27477457038E+03 0.  0.
         25    1    3    3    0    0 -0.58928392330E+02 -0.18298803624E+02  0.27206685686E+03  0.30369026366E+03  0.12000000000E+03 0.  0.
         25    1    3    3    0    0  0.58928392330E+02  0.18298803624E+02  0.41046761140E+03  0.43207761067E+03  0.12000000000E+03 0.  0.
<mgrwt>
<rscale>  0 0.27477457E+03</rscale>
<asrwt>0</asrwt>
<pdfrwt beam="1">  1        1 0.10910017E+00 0.27477457E+03</pdfrwt>
<pdfrwt beam="2">  1       -1 0.40948779E-02 0.27477457E+03</pdfrwt>
<totfact> 0.65492143E+03</totfact>
</mgrwt>
</event>
<event>
 5    1  0.1107336E+001  0.2749699E+03  0.7818608E-02  0.1098468E+00
         -1   -1    0    0    0  501 -0.00000000000E+00  0.00000000000E+00  0.44028267275E+02  0.44028267275E+02  0.00000000000E+00 0. -1.
          1   -1    0    0  501    0  0.00000000000E+00 -0.00000000000E+00 -0.42931773543E+03  0.42931773543E+03  0.00000000000E+00 0. -1.
         35    2    1    2    0    0  0.00000000000E+00  0.00000000000E+00 -0.38528946815E+03  0.47334600270E+03  0.27496993291E+03 0.  0.
         25    1    3    3    0    0  0.10437772109E+02  0.19287102804E+02 -0.83483087341E+02  0.14781869061E+03  0.12000000000E+03 0.  0.
         25    1    3    3    0    0 -0.10437772109E+02 -0.19287102804E+02 -0.30180638081E+03  0.32552731209E+03  0.12000000000E+03 0.  0.
<mgrwt>
<rscale>  0 0.27496993E+03</rscale>
<asrwt>0</asrwt>
<pdfrwt beam="1">  1        1 0.66048886E-01 0.27496993E+03</pdfrwt>
<pdfrwt beam="2">  1       -1 0.67735793E-02 0.27496993E+03</pdfrwt>
<totfact> 0.61053695E+03</totfact>
</mgrwt>
</event>
<event>
 5    1  0.1107336E+001  0.2751981E+03  0.7818608E-02  0.1098341E+00
          2   -1    0    0  501    0  0.00000000000E+00  0.00000000000E+00  0.33480184951E+03  0.33480184951E+03  0.00000000000E+00 0.  1.
         -2   -1    0    0    0  501 -0.00000000000E+00 -0.00000000000E+00 -0.56551346817E+02  0.56551346817E+02  0.00000000000E+00 0.  1.
         35    2    1    2    0    0  0.00000000000E+00  0.00000000000E+00  0.27825050270E+03  0.39135319633E+03  0.27519807781E+03 0.  0.
         25    1    3    3    0    0  0.16146942200E+02 -0.52194253504E+02  0.19508600238E+03  0.23546446052E+03  0.12000000000E+03 0.  0.
         25    1    3    3    0    0 -0.16146942200E+02  0.52194253504E+02  0.83164500315E+02  0.15588873581E+03  0.12000000000E+03 0.  0.
<mgrwt>
<rscale>  0 0.27519808E+03</rscale>
<asrwt>0</asrwt>
<pdfrwt beam="1">  1        2 0.51507976E-01 0.27519808E+03</pdfrwt>
<pdfrwt beam="2">  1       -2 0.87002074E-02 0.27519808E+03</pdfrwt>
<totfact> 0.79772436E+03</totfact>
</mgrwt>
</event>
<event>
 5    1  0.1107336E+001  0.2746143E+03  0.7818608E-02  0.1098667E+00
         -1   -1    0    0    0  501 -0.00000000000E+00  0.00000000000E+00  0.22257842549E+03  0.22257842549E+03  0.00000000000E+00 0. -1.
          1   -1    0    0  501    0  0.00000000000E+00 -0.00000000000E+00 -0.84703894723E+02  0.84703894723E+02  0.00000000000E+00 0. -1.
         35    2    1    2    0    0  0.00000000000E+00  0.00000000000E+00  0.13787453077E+03  0.30728232022E+03  0.27461434428E+03 0.  0.
         25    1    3    3    0    0 -0.34109418501E+02 -0.56928987044E+02  0.76761786930E+02  0.15715194536E+03  0.12000000000E+03 0.  0.
         25    1    3    3    0    0  0.34109418501E+02  0.56928987044E+02  0.61112743841E+02  0.15013037486E+03  0.12000000000E+03 0.  0.
<mgrwt>
<rscale>  0 0.27461434E+03</rscale>
<asrwt>0</asrwt>
<pdfrwt beam="1">  1        1 0.13031369E-01 0.27461434E+03</pdfrwt>
<pdfrwt beam="2">  1       -1 0.34242834E-01 0.27461434E+03</pdfrwt>
<totfact> 0.36323916E+03</totfact>
</mgrwt>
</event>
<event>
 5    1  0.1107336E+001  0.2753868E+03  0.7818608E-02  0.1098236E+00
          2   -1    0    0  501    0  0.00000000000E+00  0.00000000000E+00  0.17853960853E+03  0.17853960853E+03  0.00000000000E+00 0.  1.
         -2   -1    0    0    0  501 -0.00000000000E+00 -0.00000000000E+00 -0.10619194909E+03  0.10619194909E+03  0.00000000000E+00 0.  1.
         35    2    1    2    0    0  0.00000000000E+00  0.00000000000E+00  0.72347659437E+02  0.28473155762E+03  0.27538677542E+03 0.  0.
         25    1    3    3    0    0  0.10653956603E+02 -0.37437484585E+02 -0.20874530284E+02  0.12787031735E+03  0.12000000000E+03 0.  0.
         25    1    3    3    0    0 -0.10653956603E+02  0.37437484585E+02  0.93222189721E+02  0.15686124027E+03  0.12000000000E+03 0.  0.
<mgrwt>
<rscale>  0 0.27538678E+03</rscale>
<asrwt>0</asrwt>
<pdfrwt beam="1">  1        2 0.27467632E-01 0.27538678E+03</pdfrwt>
<pdfrwt beam="2">  1       -2 0.16337223E-01 0.27538678E+03</pdfrwt>
<totfact> 0.56992556E+03</totfact>
</mgrwt>
</event>
<event>
 5    1  0.1107336E+001  0.2758329E+03  0.7818608E-02  0.1097987E+00
          4   -1    0    0  501    0  0.00000000000E+00  0.00000000000E+00  0.17188945110E+03  0.17188945110E+03  0.00000000000E+00 0.  1.
         -4   -1    0    0    0  501 -0.00000000000E+00 -0.00000000000E+00 -0.11065801612E+03  0.11065801612E+03  0.00000000000E+00 0.  1.
         35    2    1    2    0    0  0.00000000000E+00  0.00000000000E+00  0.61231434981E+02  0.28254746722E+03  0.27583288891E+03 0.  0.
         25    1    3    3    0    0  0.26664664094E+02  0.13111814202E+02  0.93243390857E+02  0.15484590379E+03  0.12000000000E+03 0.  0.
         25    1    3    3    0    0 -0.26664664094E+02 -0.13111814202E+02 -0.32011955877E+02  0.12770156343E+03  0.12000000000E+03 0.  0.
<mgrwt>
<rscale>  0 0.27583289E+03</rscale>
<asrwt>0</asrwt>
<pdfrwt beam="1">  1        4 0.26444531E-01 0.27583289E+03</pdfrwt>
<pdfrwt beam="2">  1       -4 0.17024310E-01 0.27583289E+03</pdfrwt>
<totfact> 0.76263981E+02</totfact>
</mgrwt>
</event>
<event>
 5    1  0.1107336E+001  0.2754195E+03  0.7818608E-02  0.1098217E+00
          2   -1    0    0  501    0  0.00000000000E+00  0.00000000000E+00  0.14704763605E+04  0.14704763605E+04  0.00000000000E+00 0. -1.
         -2   -1    0    0    0  501 -0.00000000000E+00 -0.00000000000E+00 -0.12896483066E+02  0.12896483066E+02  0.00000000000E+00 0. -1.
         35    2    1    2    0    0  0.00000000000E+00  0.00000000000E+00  0.14575798774E+04  0.14833728436E+04  0.27541948720E+03 0.  0.
         25    1    3    3    0    0  0.13281809479E+02  0.61021715488E+02  0.86756538664E+03  0.87804883481E+03  0.12000000000E+03 0.  0.
         25    1    3    3    0    0 -0.13281809479E+02 -0.61021715488E+02  0.59001449081E+03  0.60532400876E+03  0.12000000000E+03 0.  0.
<mgrwt>
<rscale>  0 0.27541949E+03</rscale>
<asrwt>0</asrwt>
<pdfrwt beam="1">  1        2 0.22622700E+00 0.27541949E+03</pdfrwt>
<pdfrwt beam="2">  1       -2 0.19840755E-02 0.27541949E+03</pdfrwt>
<totfact> 0.11069818E+04</totfact>
</mgrwt>
</event>
<event>
 5    1  0.1107336E+001  0.2764341E+03  0.7818608E-02  0.1097653E+00
          2   -1    0    0  501    0  0.00000000000E+00  0.00000000000E+00  0.68439490333E+03  0.68439490333E+03  0.00000000000E+00 0.  1.
         -2   -1    0    0    0  501 -0.00000000000E+00 -0.00000000000E+00 -0.27913633884E+02  0.27913633884E+02  0.00000000000E+00 0.  1.
         35    2    1    2    0    0  0.00000000000E+00  0.00000000000E+00  0.65648126944E+03  0.71230853721E+03  0.27643406999E+03 0.  0.
         25    1    3    3    0    0 -0.54751826498E+02 -0.16187534031E+02  0.42616318911E+03  0.44640213095E+03  0.12000000000E+03 0.  0.
         25    1    3    3    0    0  0.54751826498E+02  0.16187534031E+02  0.23031808033E+03  0.26590640626E+03  0.12000000000E+03 0.  0.
<mgrwt>
<rscale>  0 0.27643407E+03</rscale>
<asrwt>0</asrwt>
<pdfrwt beam="1">  1        2 0.10529151E+00 0.27643407E+03</pdfrwt>
<pdfrwt beam="2">  1       -2 0.42944057E-02 0.27643407E+03</pdfrwt>
<totfact> 0.10600222E+04</totfact>
</mgrwt>
</event>
<event>
 5    1  0.1107336E+001  0.2766367E+03  0.7818608E-02  0.1097540E+00
         -4   -1    0    0    0  501 -0.00000000000E+00  0.00000000000E+00  0.37294936047E+02  0.37294936047E+02  0.00000000000E+00 0. -1.
          4   -1    0    0  501    0  0.00000000000E+00 -0.00000000000E+00 -0.51299091930E+03  0.51299091930E+03  0.00000000000E+00 0. -1.
         35    2    1    2    0    0  0.00000000000E+00  0.00000000000E+00 -0.47569598325E+03  0.55028585535E+03  0.27663668251E+03 0.  0.
         25    1    3    3    0    0 -0.37292415599E+02 -0.49069586032E+02 -0.29862173228E+03  0.32767893971E+03  0.12000000000E+03 0.  0.
         25    1    3    3    0    0  0.37292415599E+02  0.49069586032E+02 -0.17707425097E+03  0.22260691564E+03  0.12000000000E+03 0.  0.
<mgrwt>
<rscale>  0 0.27663668E+03</rscale>
<asrwt>0</asrwt>
<pdfrwt beam="1">  1        4 0.78921671E-01 0.27663668E+03</pdfrwt>
<pdfrwt beam="2">  1       -4 0.57376831E-02 0.27663668E+03</pdfrwt>
<totfact> 0.52414143E+02</totfact>
</mgrwt>
</event>
<event>
 5    1  0.1107336E+001  0.2751181E+03  0.7818608E-02  0.1098386E+00
         -2   -1    0    0    0  501 -0.00000000000E+00  0.00000000000E+00  0.28692419824E+02  0.28692419824E+02  0.00000000000E+00 0.  1.
          2   -1    0    0  501    0  0.00000000000E+00 -0.00000000000E+00 -0.65949440632E+03  0.65949440632E+03  0.00000000000E+00 0.  1.
         35    2    1    2    0    0  0.00000000000E+00  0.00000000000E+00 -0.63080198649E+03  0.68818682614E+03  0.27511808649E+03 0.  0.
         25    1    3    3    0    0  0.16122580831E+02 -0.65279285080E+02 -0.31269794545E+03  0.34161576042E+03  0.12000000000E+03 0.  0.
         25    1    3    3    0    0 -0.16122580831E+02  0.65279285080E+02 -0.31810404104E+03  0.34657106572E+03  0.12000000000E+03 0.  0.
<mgrwt>
<rscale>  0 0.27511809E+03</rscale>
<asrwt>0</asrwt>
<pdfrwt beam="1">  1        2 0.10146068E+00 0.27511809E+03</pdfrwt>
<pdfrwt beam="2">  1       -2 0.44142182E-02 0.27511809E+03</pdfrwt>
<totfact> 0.10628719E+04</totfact>
</mgrwt>
</event>
<event>
 5    1  0.1107336E+001  0.2751999E+03  0.7818608E-02  0.1098340E+00
          2   -1    0    0  501    0  0.00000000000E+00  0.00000000000E+00  0.64437888989E+03  0.64437888989E+03  0.00000000000E+00 0.  1.
         -2   -1    0    0    0  501 -0.00000000000E+00 -0.00000000000E+00 -0.29382929799E+02  0.29382929799E+02  0.00000000000E+00 0.  1.
         35    2    1    2    0    0  0.00000000000E+00  0.00000000000E+00  0.61499596009E+03  0.67376181968E+03  0.27519985236E+03 0.  0.
         25    1    3    3    0    0  0.62930268245E+01 -0.17334590256E+02  0.14895235434E+03  0.19216371684E+03  0.12000000000E+03 0.  0.
         25    1    3    3    0    0 -0.62930268245E+01  0.17334590256E+02  0.46604360575E+03  0.48159810285E+03  0.12000000000E+03 0.  0.
<mgrwt>
<rscale>  0 0.27519985E+03</rscale>
<asrwt>0</asrwt>
<pdfrwt beam="1">  1        2 0.99135204E-01 0.27519985E+03</pdfrwt>
<pdfrwt beam="2">  1       -2 0.45204512E-02 0.27519985E+03</pdfrwt>
<totfact> 0.10539814E+04</totfact>
</mgrwt>
</event>
<event>
 5    1  0.1107336E+001  0.2735266E+03  0.7818608E-02  0.1099278E+00
          2   -1    0    0  501    0  0.00000000000E+00  0.00000000000E+00  0.11196373953E+04  0.11196373953E+04  0.00000000000E+00 0.  1.
         -2   -1    0    0    0  501 -0.00000000000E+00 -0.00000000000E+00 -0.16705586900E+02  0.16705586900E+02  0.00000000000E+00 0.  1.
         35    2    1    2    0    0  0.00000000000E+00  0.00000000000E+00  0.11029318084E+04  0.11363429822E+04  0.27352659691E+03 0.  0.
         25    1    3    3    0    0  0.44523390819E+02 -0.45585059503E+02  0.48658918123E+03  0.50520229737E+03  0.12000000000E+03 0.  0.
         25    1    3    3    0    0 -0.44523390819E+02  0.45585059503E+02  0.61634262720E+03  0.63114068486E+03  0.12000000000E+03 0.  0.
<mgrwt>
<rscale>  0 0.27352660E+03</rscale>
<asrwt>0</asrwt>
<pdfrwt beam="1">  1        2 0.17225185E+00 0.27352660E+03</pdfrwt>
<pdfrwt beam="2">  1       -2 0.25700912E-02 0.27352660E+03</pdfrwt>
<totfact> 0.11840572E+04</totfact>
</mgrwt>
</event>
<event>
 5    1  0.1107336E+001  0.2764870E+03  0.7818608E-02  0.1097623E+00
         -2   -1    0    0    0  501 -0.00000000000E+00  0.00000000000E+00  0.13052127993E+03  0.13052127993E+03  0.00000000000E+00 0. -1.
          2   -1    0    0  501    0  0.00000000000E+00 -0.00000000000E+00 -0.14642256010E+03  0.14642256010E+03  0.00000000000E+00 0. -1.
         35    2    1    2    0    0  0.00000000000E+00  0.00000000000E+00 -0.15901280164E+02  0.27694384003E+03  0.27648696139E+03 0.  0.
         25    1    3    3    0    0 -0.65512655529E+02  0.15010981683E+01  0.12506100271E+02  0.13729735567E+03  0.12000000000E+03 0.  0.
         25    1    3    3    0    0  0.65512655529E+02 -0.15010981683E+01 -0.28407380435E+02  0.13964648436E+03  0.12000000000E+03 0.  0.
<mgrwt>
<rscale>  0 0.27648696E+03</rscale>
<asrwt>0</asrwt>
<pdfrwt beam="1">  1        2 0.22526548E-01 0.27648696E+03</pdfrwt>
<pdfrwt beam="2">  1       -2 0.20080197E-01 0.27648696E+03</pdfrwt>
<totfact> 0.50219097E+03</totfact>
</mgrwt>
</event>
<event>
 5    1  0.1107336E+001  0.2744001E+03  0.7818608E-02  0.1098787E+00
         -2   -1    0    0    0  501 -0.00000000000E+00  0.00000000000E+00  0.38446867745E+02  0.38446867745E+02  0.00000000000E+00 0. -1.
          2   -1    0    0  501    0  0.00000000000E+00 -0.00000000000E+00 -0.48960685054E+03  0.48960685054E+03  0.00000000000E+00 0. -1.
         35    2    1    2    0    0  0.00000000000E+00  0.00000000000E+00 -0.45115998279E+03  0.52805371828E+03  0.27440007165E+03 0.  0.
         25    1    3    3    0    0  0.48689132551E+02 -0.66722678712E+01 -0.31182844576E+03  0.33771604992E+03  0.12000000000E+03 0.  0.
         25    1    3    3    0    0 -0.48689132551E+02  0.66722678712E+01 -0.13933153704E+03  0.19033766837E+03  0.12000000000E+03 0.  0.
<mgrwt>
<rscale>  0 0.27440007E+03</rscale>
<asrwt>0</asrwt>
<pdfrwt beam="1">  1        2 0.75324128E-01 0.27440007E+03</pdfrwt>
<pdfrwt beam="2">  1       -2 0.59149030E-02 0.27440007E+03</pdfrwt>
<totfact> 0.95874719E+03</totfact>
</mgrwt>
</event>
<event>
 5    1  0.1107336E+001  0.2710123E+03  0.7818608E-02  0.1100702E+00
          1   -1    0    0  501    0  0.00000000000E+00  0.00000000000E+00  0.45436961333E+03  0.45436961333E+03  0.00000000000E+00 0. -1.
         -1   -1    0    0    0  501 -0.00000000000E+00 -0.00000000000E+00 -0.40411850208E+02  0.40411850208E+02  0.00000000000E+00 0. -1.
         35    2    1    2    0    0  0.00000000000E+00  0.00000000000E+00  0.41395776312E+03  0.49478146354E+03  0.27101230048E+03 0.  0.
         25    1    3    3    0    0 -0.24523700578E+00 -0.36188415312E+02  0.11295632115E+03  0.16872697482E+03  0.12000000000E+03 0.  0.
         25    1    3    3    0    0  0.24523700578E+00  0.36188415312E+02  0.30100144197E+03  0.32605448872E+03  0.12000000000E+03 0.  0.
<mgrwt>
<rscale>  0 0.27101230E+03</rscale>
<asrwt>0</asrwt>
<pdfrwt beam="1">  1        1 0.69903014E-01 0.27101230E+03</pdfrwt>
<pdfrwt beam="2">  1       -1 0.62172081E-02 0.27101230E+03</pdfrwt>
<totfact> 0.64538675E+03</totfact>
</mgrwt>
</event>
<event>
 5    1  0.1107336E+001  0.2748139E+03  0.7818608E-02  0.1098556E+00
         -1   -1    0    0    0  501 -0.00000000000E+00  0.00000000000E+00  0.30455303492E+02  0.30455303492E+02  0.00000000000E+00 0.  1.
          1   -1    0    0  501    0  0.00000000000E+00 -0.00000000000E+00 -0.61994673100E+03  0.61994673100E+03  0.00000000000E+00 0.  1.
         35    2    1    2    0    0  0.00000000000E+00  0.00000000000E+00 -0.58949142751E+03  0.65040203449E+03  0.27481387040E+03 0.  0.
         25    1    3    3    0    0 -0.54581631824E+02  0.25555402476E+02 -0.22580878276E+03  0.26272007822E+03  0.12000000000E+03 0.  0.
         25    1    3    3    0    0  0.54581631824E+02 -0.25555402476E+02 -0.36368264475E+03  0.38768195627E+03  0.12000000000E+03 0.  0.
<mgrwt>
<rscale>  0 0.27481387E+03</rscale>
<asrwt>0</asrwt>
<pdfrwt beam="1">  1        1 0.95376418E-01 0.27481387E+03</pdfrwt>
<pdfrwt beam="2">  1       -1 0.46854314E-02 0.27481387E+03</pdfrwt>
<totfact> 0.64951999E+03</totfact>
</mgrwt>
</event>
<event>
 5    1  0.1107336E+001  0.2755148E+03  0.7818608E-02  0.1098164E+00
          1   -1    0    0  501    0  0.00000000000E+00  0.00000000000E+00  0.20069515672E+04  0.20069515672E+04  0.00000000000E+00 0.  1.
         -1   -1    0    0    0  501 -0.00000000000E+00 -0.00000000000E+00 -0.94556867206E+01  0.94556867206E+01  0.00000000000E+00 0.  1.
         35    2    1    2    0    0  0.00000000000E+00  0.00000000000E+00  0.19974958805E+04  0.20164072540E+04  0.27551482924E+03 0.  0.
         25    1    3    3    0    0 -0.12724944715E+02 -0.66423584727E+02  0.10116098088E+04  0.10209448673E+04  0.12000000000E+03 0.  0.
         25    1    3    3    0    0  0.12724944715E+02  0.66423584727E+02  0.98588607169E+03  0.99546238662E+03  0.12000000000E+03 0.  0.
<mgrwt>
<rscale>  0 0.27551483E+03</rscale>
<asrwt>0</asrwt>
<pdfrwt beam="1">  1        1 0.30876144E+00 0.27551483E+03</pdfrwt>
<pdfrwt beam="2">  1       -1 0.14547226E-02 0.27551483E+03</pdfrwt>
<totfact> 0.36439549E+03</totfact>
</mgrwt>
</event>
<event>
 5    1  0.1107336E+001  0.2746583E+03  0.7818608E-02  0.1098643E+00
          2   -1    0    0  501    0  0.00000000000E+00  0.00000000000E+00  0.30474360924E+03  0.30474360924E+03  0.00000000000E+00 0.  1.
         -2   -1    0    0    0  501 -0.00000000000E+00 -0.00000000000E+00 -0.61885774900E+02  0.61885774900E+02  0.00000000000E+00 0.  1.
         35    2    1    2    0    0  0.00000000000E+00  0.00000000000E+00  0.24285783434E+03  0.36662938414E+03  0.27465829245E+03 0.  0.
         25    1    3    3    0    0  0.52363259477E+02  0.39356925071E+02  0.10410579728E+03  0.17183973790E+03  0.12000000000E+03 0.  0.
         25    1    3    3    0    0 -0.52363259477E+02 -0.39356925071E+02  0.13875203705E+03  0.19478964624E+03  0.12000000000E+03 0.  0.
<mgrwt>
<rscale>  0 0.27465829E+03</rscale>
<asrwt>0</asrwt>
<pdfrwt beam="1">  1        2 0.46883632E-01 0.27465829E+03</pdfrwt>
<pdfrwt beam="2">  1       -2 0.95208886E-02 0.27465829E+03</pdfrwt>
<totfact> 0.76565737E+03</totfact>
</mgrwt>
</event>
<event>
 5    1  0.1107336E+001  0.2750598E+03  0.7818608E-02  0.1098418E+00
          2   -1    0    0  501    0  0.00000000000E+00  0.00000000000E+00  0.37289832227E+02  0.37289832227E+02  0.00000000000E+00 0.  1.
         -2   -1    0    0    0  501 -0.00000000000E+00 -0.00000000000E+00 -0.50722883413E+03  0.50722883413E+03  0.00000000000E+00 0.  1.
         35    2    1    2    0    0  0.00000000000E+00  0.00000000000E+00 -0.46993900190E+03  0.54451866636E+03  0.27505983440E+03 0.  0.
         25    1    3    3    0    0  0.43569989808E+02  0.25503471033E+01 -0.33609834663E+03  0.35953712867E+03  0.12000000000E+03 0.  0.
         25    1    3    3    0    0 -0.43569989808E+02 -0.25503471033E+01 -0.13384065527E+03  0.18498153769E+03  0.12000000000E+03 0.  0.
<mgrwt>
<rscale>  0 0.27505983E+03</rscale>
<asrwt>0</asrwt>
<pdfrwt beam="1">  1        2 0.57368975E-02 0.27505983E+03</pdfrwt>
<pdfrwt beam="2">  1       -2 0.78035202E-01 0.27505983E+03</pdfrwt>
<totfact> 0.19684465E+03</totfact>
</mgrwt>
</event>
<event>
 5    1  0.1107336E+001  0.2750147E+03  0.7818608E-02  0.1098443E+00
          1   -1    0    0  501    0  0.00000000000E+00  0.00000000000E+00  0.94019303130E+02  0.94019303130E+02  0.00000000000E+00 0.  1.
         -1   -1    0    0    0  501 -0.00000000000E+00 -0.00000000000E+00 -0.20111058865E+03  0.20111058865E+03  0.00000000000E+00 0.  1.
         35    2    1    2    0    0  0.00000000000E+00  0.00000000000E+00 -0.10709128552E+03  0.29512989178E+03  0.27501474431E+03 0.  0.
         25    1    3    3    0    0  0.30050961539E+02 -0.39166880338E+02 -0.10238448561E+03  0.16528668337E+03  0.12000000000E+03 0.  0.
         25    1    3    3    0    0 -0.30050961539E+02  0.39166880338E+02 -0.47067999063E+01  0.12984320841E+03  0.12000000000E+03 0.  0.
<mgrwt>
<rscale>  0 0.27501474E+03</rscale>
<asrwt>0</asrwt>
<pdfrwt beam="1">  1        1 0.14464508E-01 0.27501474E+03</pdfrwt>
<pdfrwt beam="2">  1       -1 0.30940091E-01 0.27501474E+03</pdfrwt>
<totfact> 0.37686958E+03</totfact>
</mgrwt>
</event>
<event>
 5    1  0.1107336E+001  0.2744940E+03  0.7818608E-02  0.1098735E+00
          1   -1    0    0  501    0  0.00000000000E+00  0.00000000000E+00  0.57889116821E+02  0.57889116821E+02  0.00000000000E+00 0.  1.
         -1   -1    0    0    0  501 -0.00000000000E+00 -0.00000000000E+00 -0.32539342145E+03  0.32539342145E+03  0.00000000000E+00 0.  1.
         35    2    1    2    0    0  0.00000000000E+00  0.00000000000E+00 -0.26750430463E+03  0.38328253827E+03  0.27449399110E+03 0.  0.
         25    1    3    3    0    0  0.30425261941E+02  0.26355094021E+02 -0.59648906058E+02  0.13992240542E+03  0.12000000000E+03 0.  0.
         25    1    3    3    0    0 -0.30425261941E+02 -0.26355094021E+02 -0.20785539857E+03  0.24336013285E+03  0.12000000000E+03 0.  0.
<mgrwt>
<rscale>  0 0.27449399E+03</rscale>
<asrwt>0</asrwt>
<pdfrwt beam="1">  1        1 0.89060180E-02 0.27449399E+03</pdfrwt>
<pdfrwt beam="2">  1       -1 0.50060526E-01 0.27449399E+03</pdfrwt>
<totfact> 0.30665314E+03</totfact>
</mgrwt>
</event>
<event>
 5    1  0.1107336E+001  0.2743174E+03  0.7818608E-02  0.1098834E+00
          2   -1    0    0  501    0  0.00000000000E+00  0.00000000000E+00  0.45335267277E+03  0.45335267277E+03  0.00000000000E+00 0. -1.
         -2   -1    0    0    0  501 -0.00000000000E+00 -0.00000000000E+00 -0.41496423622E+02  0.41496423622E+02  0.00000000000E+00 0. -1.
         35    2    1    2    0    0  0.00000000000E+00  0.00000000000E+00  0.41185624915E+03  0.49484909639E+03  0.27431744064E+03 0.  0.
         25    1    3    3    0    0 -0.52978005803E+02  0.68458206636E+01  0.13470194323E+03  0.18814395517E+03  0.12000000000E+03 0.  0.
         25    1    3    3    0    0  0.52978005803E+02 -0.68458206636E+01  0.27715430592E+03  0.30670514122E+03  0.12000000000E+03 0.  0.
<mgrwt>
<rscale>  0 0.27431744E+03</rscale>
<asrwt>0</asrwt>
<pdfrwt beam="1">  1        2 0.69746561E-01 0.27431744E+03</pdfrwt>
<pdfrwt beam="2">  1       -2 0.63840655E-02 0.27431744E+03</pdfrwt>
<totfact> 0.92853603E+03</totfact>
</mgrwt>
</event>
<event>
 5    1  0.1107336E+001  0.2754558E+03  0.7818608E-02  0.1098197E+00
          2   -1    0    0  501    0  0.00000000000E+00  0.00000000000E+00  0.81142285496E+03  0.81142285496E+03  0.00000000000E+00 0.  1.
         -2   -1    0    0    0  501 -0.00000000000E+00 -0.00000000000E+00 -0.23377422409E+02  0.23377422409E+02  0.00000000000E+00 0.  1.
         35    2    1    2    0    0  0.00000000000E+00  0.00000000000E+00  0.78804543255E+03  0.83480027736E+03  0.27545580286E+03 0.  0.
         25    1    3    3    0    0 -0.58023307992E+02 -0.14470608662E+02  0.29852844898E+03  0.32725424006E+03  0.12000000000E+03 0.  0.
         25    1    3    3    0    0  0.58023307992E+02  0.14470608662E+02  0.48951698356E+03  0.50754603730E+03  0.12000000000E+03 0.  0.
<mgrwt>
<rscale>  0 0.27545580E+03</rscale>
<asrwt>0</asrwt>
<pdfrwt beam="1">  1        2 0.12483426E+00 0.27545580E+03</pdfrwt>
<pdfrwt beam="2">  1       -2 0.35965271E-02 0.27545580E+03</pdfrwt>
<totfact> 0.11202421E+04</totfact>
</mgrwt>
</event>
<event>
 5    1  0.1107336E+001  0.2747444E+03  0.7818608E-02  0.1098595E+00
          2   -1    0    0  501    0  0.00000000000E+00  0.00000000000E+00  0.18560284961E+04  0.18560284961E+04  0.00000000000E+00 0.  1.
         -2   -1    0    0    0  501 -0.00000000000E+00 -0.00000000000E+00 -0.10167473475E+02  0.10167473475E+02  0.00000000000E+00 0.  1.
         35    2    1    2    0    0  0.00000000000E+00  0.00000000000E+00  0.18458610226E+04  0.18661959696E+04  0.27474439396E+03 0.  0.
         25    1    3    3    0    0 -0.42078826574E+02 -0.42992273313E+02  0.11212147937E+04  0.11292216686E+04  0.12000000000E+03 0.  0.
         25    1    3    3    0    0  0.42078826574E+02  0.42992273313E+02  0.72464622891E+03  0.73697430097E+03  0.12000000000E+03 0.  0.
<mgrwt>
<rscale>  0 0.27474439E+03</rscale>
<asrwt>0</asrwt>
<pdfrwt beam="1">  1        2 0.28554258E+00 0.27474439E+03</pdfrwt>
<pdfrwt beam="2">  1       -2 0.15642282E-02 0.27474439E+03</pdfrwt>
<totfact> 0.98119854E+03</totfact>
</mgrwt>
</event>
<event>
 5    1  0.1107336E+001  0.2736980E+03  0.7818608E-02  0.1099182E+00
         -2   -1    0    0    0  501 -0.00000000000E+00  0.00000000000E+00  0.35615907981E+02  0.35615907981E+02  0.00000000000E+00 0. -1.
          2   -1    0    0  501    0  0.00000000000E+00 -0.00000000000E+00 -0.52582251727E+03  0.52582251727E+03  0.00000000000E+00 0. -1.
         35    2    1    2    0    0  0.00000000000E+00  0.00000000000E+00 -0.49020660929E+03  0.56143842525E+03  0.27369798238E+03 0.  0.
         25    1    3    3    0    0  0.62443918315E+02 -0.86313228364E+01 -0.20651345368E+03  0.24702540197E+03  0.12000000000E+03 0.  0.
         25    1    3    3    0    0 -0.62443918315E+02  0.86313228364E+01 -0.28369315560E+03  0.31441302327E+03  0.12000000000E+03 0.  0.
<mgrwt>
<rscale>  0 0.27369798E+03</rscale>
<asrwt>0</asrwt>
<pdfrwt beam="1">  1        2 0.80895766E-01 0.27369798E+03</pdfrwt>
<pdfrwt beam="2">  1       -2 0.54793708E-02 0.27369798E+03</pdfrwt>
<totfact> 0.99473849E+03</totfact>
</mgrwt>
</event>
<event>
 5    1  0.1107336E+001  0.2744442E+03  0.7818608E-02  0.1098763E+00
          2   -1    0    0  501    0  0.00000000000E+00  0.00000000000E+00  0.15575381993E+04  0.15575381993E+04  0.00000000000E+00 0.  1.
         -2   -1    0    0    0  501 -0.00000000000E+00 -0.00000000000E+00 -0.12089530055E+02  0.12089530055E+02  0.00000000000E+00 0.  1.
         35    2    1    2    0    0  0.00000000000E+00  0.00000000000E+00  0.15454486692E+04  0.15696277293E+04  0.27444420105E+03 0.  0.
         25    1    3    3    0    0  0.61926997992E+02  0.25832837260E+01  0.63400593536E+03  0.64823232911E+03  0.12000000000E+03 0.  0.
         25    1    3    3    0    0 -0.61926997992E+02 -0.25832837260E+01  0.91144273388E+03  0.92139540023E+03  0.12000000000E+03 0.  0.
<mgrwt>
<rscale>  0 0.27444420E+03</rscale>
<asrwt>0</asrwt>
<pdfrwt beam="1">  1        2 0.23962110E+00 0.27444420E+03</pdfrwt>
<pdfrwt beam="2">  1       -2 0.18599289E-02 0.27444420E+03</pdfrwt>
<totfact> 0.10935104E+04</totfact>
</mgrwt>
</event>
<event>
 5    1  0.1107336E+001  0.2747633E+03  0.7818608E-02  0.1098584E+00
          1   -1    0    0  501    0  0.00000000000E+00  0.00000000000E+00  0.55219533599E+03  0.55219533599E+03  0.00000000000E+00 0.  1.
         -1   -1    0    0    0  501 -0.00000000000E+00 -0.00000000000E+00 -0.34179427249E+02  0.34179427249E+02  0.00000000000E+00 0.  1.
         35    2    1    2    0    0  0.00000000000E+00  0.00000000000E+00  0.51801590874E+03  0.58637476324E+03  0.27476331861E+03 0.  0.
         25    1    3    3    0    0 -0.44531492546E+02 -0.17930956398E+02  0.35840215345E+03  0.38099432624E+03  0.12000000000E+03 0.  0.
         25    1    3    3    0    0  0.44531492546E+02  0.17930956398E+02  0.15961375529E+03  0.20538043700E+03  0.12000000000E+03 0.  0.
<mgrwt>
<rscale>  0 0.27476332E+03</rscale>
<asrwt>0</asrwt>
<pdfrwt beam="1">  1        1 0.84953122E-01 0.27476332E+03</pdfrwt>
<pdfrwt beam="2">  1       -1 0.52583738E-02 0.27476332E+03</pdfrwt>
<totfact> 0.64104534E+03</totfact>
</mgrwt>
</event>
<event>
 5    1  0.1107336E+001  0.2768656E+03  0.7818608E-02  0.1097413E+00
         -2   -1    0    0    0  501 -0.00000000000E+00  0.00000000000E+00  0.25855883118E+02  0.25855883118E+02  0.00000000000E+00 0. -1.
          2   -1    0    0  501    0  0.00000000000E+00 -0.00000000000E+00 -0.74117147898E+03  0.74117147898E+03  0.00000000000E+00 0. -1.
         35    2    1    2    0    0  0.00000000000E+00  0.00000000000E+00 -0.71531559586E+03  0.76702736209E+03  0.27686562178E+03 0.  0.
         25    1    3    3    0    0  0.32321975579E+02 -0.41270010547E+02 -0.23327599550E+03  0.26751750215E+03  0.12000000000E+03 0.  0.
         25    1    3    3    0    0 -0.32321975579E+02  0.41270010547E+02 -0.48203960035E+03  0.49950985995E+03  0.12000000000E+03 0.  0.
<mgrwt>
<rscale>  0 0.27686562E+03</rscale>
<asrwt>0</asrwt>
<pdfrwt beam="1">  1        2 0.11402638E+00 0.27686562E+03</pdfrwt>
<pdfrwt beam="2">  1       -2 0.39778283E-02 0.27686562E+03</pdfrwt>
<totfact> 0.10794087E+04</totfact>
</mgrwt>
</event>
<event>
 5    1  0.1107336E+001  0.2759423E+03  0.7818608E-02  0.1097926E+00
         -2   -1    0    0    0  501 -0.00000000000E+00  0.00000000000E+00  0.11157527079E+02  0.11157527079E+02  0.00000000000E+00 0.  1.
          2   -1    0    0  501    0  0.00000000000E+00 -0.00000000000E+00 -0.17061157622E+04  0.17061157622E+04  0.00000000000E+00 0.  1.
         35    2    1    2    0    0  0.00000000000E+00  0.00000000000E+00 -0.16949582352E+04  0.17172732893E+04  0.27594226076E+03 0.  0.
         25    1    3    3    0    0  0.62141725211E+02 -0.24874010157E+02 -0.92513900829E+03  0.93528738634E+03  0.12000000000E+03 0.  0.
         25    1    3    3    0    0 -0.62141725211E+02  0.24874010157E+02 -0.76981922688E+03  0.78198590298E+03  0.12000000000E+03 0.  0.
<mgrwt>
<rscale>  0 0.27594226E+03</rscale>
<asrwt>0</asrwt>
<pdfrwt beam="1">  1        2 0.26247939E+00 0.27594226E+03</pdfrwt>
<pdfrwt beam="2">  1       -2 0.17165423E-02 0.27594226E+03</pdfrwt>
<totfact> 0.10266413E+04</totfact>
</mgrwt>
</event>
<event>
 5    1  0.1107336E+001  0.2762460E+03  0.7818608E-02  0.1097757E+00
          3   -1    0    0  501    0  0.00000000000E+00  0.00000000000E+00  0.12115417699E+03  0.12115417699E+03  0.00000000000E+00 0. -1.
         -3   -1    0    0    0  501 -0.00000000000E+00 -0.00000000000E+00 -0.15746843718E+03  0.15746843718E+03  0.00000000000E+00 0. -1.
         35    2    1    2    0    0  0.00000000000E+00  0.00000000000E+00 -0.36314260186E+02  0.27862261417E+03  0.27624596945E+03 0.  0.
         25    1    3    3    0    0  0.27769678766E+02 -0.15444534415E+02  0.42930189825E+02  0.13134949524E+03  0.12000000000E+03 0.  0.
         25    1    3    3    0    0 -0.27769678766E+02  0.15444534415E+02 -0.79244450011E+02  0.14727311893E+03  0.12000000000E+03 0.  0.
<mgrwt>
<rscale>  0 0.27624597E+03</rscale>
<asrwt>0</asrwt>
<pdfrwt beam="1">  1        3 0.18639104E-01 0.27624597E+03</pdfrwt>
<pdfrwt beam="2">  1       -3 0.24225913E-01 0.27624597E+03</pdfrwt>
<totfact> 0.10289850E+03</totfact>
</mgrwt>
</event>
<event>
 5    1  0.1107336E+001  0.2744083E+03  0.7818608E-02  0.1098783E+00
         -1   -1    0    0    0  501 -0.00000000000E+00  0.00000000000E+00  0.16380473545E+03  0.16380473545E+03  0.00000000000E+00 0. -1.
          1   -1    0    0  501    0  0.00000000000E+00 -0.00000000000E+00 -0.11492328216E+03  0.11492328216E+03  0.00000000000E+00 0. -1.
         35    2    1    2    0    0  0.00000000000E+00  0.00000000000E+00  0.48881453294E+02  0.27872801761E+03  0.27440829311E+03 0.  0.
         25    1    3    3    0    0  0.22276791015E+01  0.19193166193E+02 -0.40213763701E+02  0.12802533723E+03  0.12000000000E+03 0.  0.
         25    1    3    3    0    0 -0.22276791015E+01 -0.19193166193E+02  0.89095216995E+02  0.15070268038E+03  0.12000000000E+03 0.  0.
<mgrwt>
<rscale>  0 0.27440829E+03</rscale>
<asrwt>0</asrwt>
<pdfrwt beam="1">  1        1 0.17680505E-01 0.27440829E+03</pdfrwt>
<pdfrwt beam="2">  1       -1 0.25200729E-01 0.27440829E+03</pdfrwt>
<totfact> 0.40966945E+03</totfact>
</mgrwt>
</event>
<event>
 5    1  0.1107336E+001  0.2753994E+03  0.7818608E-02  0.1098229E+00
         -1   -1    0    0    0  501 -0.00000000000E+00  0.00000000000E+00  0.59632843370E+02  0.59632843370E+02  0.00000000000E+00 0. -1.
          1   -1    0    0  501    0  0.00000000000E+00 -0.00000000000E+00 -0.31796580869E+03  0.31796580869E+03  0.00000000000E+00 0. -1.
         35    2    1    2    0    0  0.00000000000E+00  0.00000000000E+00 -0.25833296532E+03  0.37759865206E+03  0.27539938465E+03 0.  0.
         25    1    3    3    0    0 -0.23772947906E+02 -0.40847513180E+02 -0.19531427926E+03  0.23405413918E+03  0.12000000000E+03 0.  0.
         25    1    3    3    0    0  0.23772947906E+02  0.40847513180E+02 -0.63018686061E+02  0.14354451288E+03  0.12000000000E+03 0.  0.
<mgrwt>
<rscale>  0 0.27539938E+03</rscale>
<asrwt>0</asrwt>
<pdfrwt beam="1">  1        1 0.48917817E-01 0.27539938E+03</pdfrwt>
<pdfrwt beam="2">  1       -1 0.91742835E-02 0.27539938E+03</pdfrwt>
<totfact> 0.56339074E+03</totfact>
</mgrwt>
</event>
<event>
 5    1  0.1107336E+001  0.2751527E+03  0.7818608E-02  0.1098366E+00
         -1   -1    0    0    0  501 -0.00000000000E+00  0.00000000000E+00  0.19820280919E+02  0.19820280919E+02  0.00000000000E+00 0.  1.
          1   -1    0    0  501    0  0.00000000000E+00 -0.00000000000E+00 -0.95494397692E+03  0.95494397692E+03  0.00000000000E+00 0.  1.
         35    2    1    2    0    0  0.00000000000E+00  0.00000000000E+00 -0.93512369601E+03  0.97476425784E+03  0.27515274220E+03 0.  0.
         25    1    3    3    0    0  0.54208507433E+02  0.36137448513E+02 -0.40798871787E+03  0.43023164850E+03  0.12000000000E+03 0.  0.
         25    1    3    3    0    0 -0.54208507433E+02 -0.36137448513E+02 -0.52713497813E+03  0.54453260934E+03  0.12000000000E+03 0.  0.
<mgrwt>
<rscale>  0 0.27515274E+03</rscale>
<asrwt>0</asrwt>
<pdfrwt beam="1">  1        1 0.14691446E+00 0.27515274E+03</pdfrwt>
<pdfrwt beam="2">  1       -1 0.30492740E-02 0.27515274E+03</pdfrwt>
<totfact> 0.63658024E+03</totfact>
</mgrwt>
</event>
<event>
 5    1  0.1107336E+001  0.2751844E+03  0.7818608E-02  0.1098349E+00
         -2   -1    0    0    0  501 -0.00000000000E+00  0.00000000000E+00  0.10940772814E+03  0.10940772814E+03  0.00000000000E+00 0. -1.
          2   -1    0    0  501    0  0.00000000000E+00 -0.00000000000E+00 -0.17303725177E+03  0.17303725177E+03  0.00000000000E+00 0. -1.
         35    2    1    2    0    0  0.00000000000E+00  0.00000000000E+00 -0.63629523628E+02  0.28244497990E+03  0.27518439345E+03 0.  0.
         25    1    3    3    0    0  0.44269650081E+02 -0.48962447624E+02 -0.18256794304E+02  0.13816813574E+03  0.12000000000E+03 0.  0.
         25    1    3    3    0    0 -0.44269650081E+02  0.48962447624E+02 -0.45372729324E+02  0.14427684416E+03  0.12000000000E+03 0.  0.
<mgrwt>
<rscale>  0 0.27518439E+03</rscale>
<asrwt>0</asrwt>
<pdfrwt beam="1">  1        2 0.26621116E-01 0.27518439E+03</pdfrwt>
<pdfrwt beam="2">  1       -2 0.16831958E-01 0.27518439E+03</pdfrwt>
<totfact> 0.56134506E+03</totfact>
</mgrwt>
</event>
<event>
 5    1  0.1107336E+001  0.2747210E+03  0.7818608E-02  0.1098608E+00
         -1   -1    0    0    0  501 -0.00000000000E+00  0.00000000000E+00  0.19514432056E+03  0.19514432056E+03  0.00000000000E+00 0.  1.
          1   -1    0    0  501    0  0.00000000000E+00 -0.00000000000E+00 -0.96686903514E+02  0.96686903514E+02  0.00000000000E+00 0.  1.
         35    2    1    2    0    0  0.00000000000E+00  0.00000000000E+00  0.98457417045E+02  0.29183122407E+03  0.27472095001E+03 0.  0.
         25    1    3    3    0    0  0.10032005480E+02 -0.65073126107E+02  0.36989518122E+02  0.14178637920E+03  0.12000000000E+03 0.  0.
         25    1    3    3    0    0 -0.10032005480E+02  0.65073126107E+02  0.61467898923E+02  0.15004484487E+03  0.12000000000E+03 0.  0.
<mgrwt>
<rscale>  0 0.27472095E+03</rscale>
<asrwt>0</asrwt>
<pdfrwt beam="1">  1        1 0.14874908E-01 0.27472095E+03</pdfrwt>
<pdfrwt beam="2">  1       -1 0.30022203E-01 0.27472095E+03</pdfrwt>
<totfact> 0.38239117E+03</totfact>
</mgrwt>
</event>
<event>
 5    1  0.1107336E+001  0.2758360E+03  0.7818608E-02  0.1097985E+00
          1   -1    0    0  501    0  0.00000000000E+00  0.00000000000E+00  0.31157972302E+03  0.31157972302E+03  0.00000000000E+00 0. -1.
         -1   -1    0    0    0  501 -0.00000000000E+00 -0.00000000000E+00 -0.61048175728E+02  0.61048175728E+02  0.00000000000E+00 0. -1.
         35    2    1    2    0    0  0.00000000000E+00  0.00000000000E+00  0.25053154729E+03  0.37262789874E+03  0.27583599246E+03 0.  0.
         25    1    3    3    0    0  0.84146561091E+01  0.32689239589E+02  0.45551219213E+02  0.13271889991E+03  0.12000000000E+03 0.  0.
         25    1    3    3    0    0 -0.84146561091E+01 -0.32689239589E+02  0.20498032808E+03  0.23990899883E+03  0.12000000000E+03 0.  0.
<mgrwt>
<rscale>  0 0.27583599E+03</rscale>
<asrwt>0</asrwt>
<pdfrwt beam="1">  1        1 0.47935341E-01 0.27583599E+03</pdfrwt>
<pdfrwt beam="2">  1       -1 0.93920272E-02 0.27583599E+03</pdfrwt>
<totfact> 0.55751297E+03</totfact>
</mgrwt>
</event>
<event>
 5    1  0.1107336E+001  0.2757380E+03  0.7818608E-02  0.1098040E+00
         -1   -1    0    0    0  501 -0.00000000000E+00  0.00000000000E+00  0.88415219218E+02  0.88415219218E+02  0.00000000000E+00 0. -1.
          1   -1    0    0  501    0  0.00000000000E+00 -0.00000000000E+00 -0.21498405999E+03  0.21498405999E+03  0.00000000000E+00 0. -1.
         35    2    1    2    0    0  0.00000000000E+00  0.00000000000E+00 -0.12656884077E+03  0.30339927921E+03  0.27573801184E+03 0.  0.
         25    1    3    3    0    0  0.66752584179E+02  0.15731064514E+01 -0.49831692093E+02  0.14608757543E+03  0.12000000000E+03 0.  0.
         25    1    3    3    0    0 -0.66752584179E+02 -0.15731064514E+01 -0.76737148681E+02  0.15731170378E+03  0.12000000000E+03 0.  0.
<mgrwt>
<rscale>  0 0.27573801E+03</rscale>
<asrwt>0</asrwt>
<pdfrwt beam="1">  1        1 0.33074470E-01 0.27573801E+03</pdfrwt>
<pdfrwt beam="2">  1       -1 0.13602342E-01 0.27573801E+03</pdfrwt>
<totfact> 0.49919368E+03</totfact>
</mgrwt>
</event>
<event>
 5    1  0.1107336E+001  0.2784087E+03  0.7818608E-02  0.1096561E+00
          2   -1    0    0  501    0  0.00000000000E+00  0.00000000000E+00  0.43512500631E+03  0.43512500631E+03  0.00000000000E+00 0.  1.
         -2   -1    0    0    0  501 -0.00000000000E+00 -0.00000000000E+00 -0.44533993930E+02  0.44533993930E+02  0.00000000000E+00 0.  1.
         35    2    1    2    0    0  0.00000000000E+00  0.00000000000E+00  0.39059101238E+03  0.47965900024E+03  0.27840872393E+03 0.  0.
         25    1    3    3    0    0  0.22130749621E+02  0.64191345626E+02  0.22832570564E+03  0.26672631439E+03  0.12000000000E+03 0.  0.
         25    1    3    3    0    0 -0.22130749621E+02 -0.64191345626E+02  0.16226530674E+03  0.21293268585E+03  0.12000000000E+03 0.  0.
<mgrwt>
<rscale>  0 0.27840872E+03</rscale>
<asrwt>0</asrwt>
<pdfrwt beam="1">  1        2 0.66942306E-01 0.27840872E+03</pdfrwt>
<pdfrwt beam="2">  1       -2 0.68513840E-02 0.27840872E+03</pdfrwt>
<totfact> 0.87154005E+03</totfact>
</mgrwt>
</event>
<event>
 5    1  0.1107336E+001  0.2758565E+03  0.7818608E-02  0.1097974E+00
         -1   -1    0    0    0  501 -0.00000000000E+00  0.00000000000E+00  0.52735492655E+02  0.52735492655E+02  0.00000000000E+00 0.  1.
          1   -1    0    0  501    0  0.00000000000E+00 -0.00000000000E+00 -0.36074756879E+03  0.36074756879E+03  0.00000000000E+00 0.  1.
         35    2    1    2    0    0  0.00000000000E+00  0.00000000000E+00 -0.30801207614E+03  0.41348306145E+03  0.27585648997E+03 0.  0.
         25    1    3    3    0    0 -0.65571414781E+02  0.16121119375E+02 -0.16606267309E+03  0.21572276727E+03  0.12000000000E+03 0.  0.
         25    1    3    3    0    0  0.65571414781E+02 -0.16121119375E+02 -0.14194940305E+03  0.19776029418E+03  0.12000000000E+03 0.  0.
<mgrwt>
<rscale>  0 0.27585649E+03</rscale>
<asrwt>0</asrwt>
<pdfrwt beam="1">  1        1 0.55499625E-01 0.27585649E+03</pdfrwt>
<pdfrwt beam="2">  1       -1 0.81131528E-02 0.27585649E+03</pdfrwt>
<totfact> 0.57983018E+03</totfact>
</mgrwt>
</event>
<event>
 5    1  0.1107336E+001  0.2757573E+03  0.7818608E-02  0.1098029E+00
         -2   -1    0    0    0  501 -0.00000000000E+00  0.00000000000E+00  0.26035482131E+02  0.26035482131E+02  0.00000000000E+00 0.  1.
          2   -1    0    0  501    0  0.00000000000E+00 -0.00000000000E+00 -0.73017733700E+03  0.73017733700E+03  0.00000000000E+00 0.  1.
         35    2    1    2    0    0  0.00000000000E+00  0.00000000000E+00 -0.70414185487E+03  0.75621281913E+03  0.27575727740E+03 0.  0.
         25    1    3    3    0    0  0.35105249287E+02  0.53216620315E+02 -0.41615731431E+03  0.43777996466E+03  0.12000000000E+03 0.  0.
         25    1    3    3    0    0 -0.35105249287E+02 -0.53216620315E+02 -0.28798454056E+03  0.31843285447E+03  0.12000000000E+03 0.  0.
<mgrwt>
<rscale>  0 0.27575728E+03</rscale>
<asrwt>0</asrwt>
<pdfrwt beam="1">  1        2 0.11233496E+00 0.27575728E+03</pdfrwt>
<pdfrwt beam="2">  1       -2 0.40054593E-02 0.27575728E+03</pdfrwt>
<totfact> 0.10879547E+04</totfact>
</mgrwt>
</event>
<event>
 5    1  0.1107336E+001  0.2750228E+03  0.7818608E-02  0.1098439E+00
          2   -1    0    0  501    0  0.00000000000E+00  0.00000000000E+00  0.43861651886E+04  0.43861651886E+04  0.00000000000E+00 0.  1.
         -2   -1    0    0    0  501 -0.00000000000E+00 -0.00000000000E+00 -0.43111442248E+01  0.43111442248E+01  0.00000000000E+00 0.  1.
         35    2    1    2    0    0  0.00000000000E+00  0.00000000000E+00  0.43818540444E+04  0.43904763329E+04  0.27502284067E+03 0.  0.
         25    1    3    3    0    0 -0.15586733395E+02 -0.64819012966E+02  0.23195738532E+04  0.23236323529E+04  0.12000000000E+03 0.  0.
         25    1    3    3    0    0  0.15586733395E+02  0.64819012966E+02  0.20622801912E+04  0.20668439800E+04  0.12000000000E+03 0.  0.
<mgrwt>
<rscale>  0 0.27502284E+03</rscale>
<asrwt>0</asrwt>
<pdfrwt beam="1">  1        2 0.67479108E+00 0.27502284E+03</pdfrwt>
<pdfrwt beam="2">  1       -2 0.66325647E-03 0.27502284E+03</pdfrwt>
<totfact> 0.83226027E+02</totfact>
</mgrwt>
</event>
<event>
 5    1  0.1107336E+001  0.2746009E+03  0.7818608E-02  0.1098675E+00
          3   -1    0    0  501    0  0.00000000000E+00  0.00000000000E+00  0.33086198639E+02  0.33086198639E+02  0.00000000000E+00 0.  1.
         -3   -1    0    0    0  501 -0.00000000000E+00 -0.00000000000E+00 -0.56976663667E+03  0.56976663667E+03  0.00000000000E+00 0.  1.
         35    2    1    2    0    0  0.00000000000E+00  0.00000000000E+00 -0.53668043803E+03  0.60285283531E+03  0.27460088943E+03 0.  0.
         25    1    3    3    0    0  0.63338872198E+02 -0.19164266969E+02 -0.24966914162E+03  0.28480477899E+03  0.12000000000E+03 0.  0.
         25    1    3    3    0    0 -0.63338872198E+02  0.19164266969E+02 -0.28701129641E+03  0.31804805632E+03  0.12000000000E+03 0.  0.
<mgrwt>
<rscale>  0 0.27460089E+03</rscale>
<asrwt>0</asrwt>
<pdfrwt beam="1">  1        3 0.50901848E-02 0.27460089E+03</pdfrwt>
<pdfrwt beam="2">  1       -3 0.87656398E-01 0.27460089E+03</pdfrwt>
<totfact> 0.68532777E+02</totfact>
</mgrwt>
</event>
<event>
 5    1  0.1107336E+001  0.2712020E+03  0.7818608E-02  0.1100594E+00
          1   -1    0    0  501    0  0.00000000000E+00  0.00000000000E+00  0.31453194218E+03  0.31453194218E+03  0.00000000000E+00 0. -1.
         -1   -1    0    0    0  501 -0.00000000000E+00 -0.00000000000E+00 -0.58460286822E+02  0.58460286822E+02  0.00000000000E+00 0. -1.
         35    2    1    2    0    0  0.00000000000E+00  0.00000000000E+00  0.25607165536E+03  0.37299222901E+03  0.27120197311E+03 0.  0.
         25    1    3    3    0    0 -0.28120878737E+02 -0.46610369382E+02  0.84018449449E+02  0.15627671037E+03  0.12000000000E+03 0.  0.
         25    1    3    3    0    0  0.28120878737E+02  0.46610369382E+02  0.17205320591E+03  0.21671551864E+03  0.12000000000E+03 0.  0.
<mgrwt>
<rscale>  0 0.27120197E+03</rscale>
<asrwt>0</asrwt>
<pdfrwt beam="1">  1        1 0.48389529E-01 0.27120197E+03</pdfrwt>
<pdfrwt beam="2">  1       -1 0.89938905E-02 0.27120197E+03</pdfrwt>
<totfact> 0.58855868E+03</totfact>
</mgrwt>
</event>
<event>
 5    1  0.1107336E+001  0.2751051E+03  0.7818608E-02  0.1098393E+00
         -1   -1    0    0    0  501 -0.00000000000E+00  0.00000000000E+00  0.45562280844E+02  0.45562280844E+02  0.00000000000E+00 0.  1.
          1   -1    0    0  501    0  0.00000000000E+00 -0.00000000000E+00 -0.41527137065E+03  0.41527137065E+03  0.00000000000E+00 0.  1.
         35    2    1    2    0    0  0.00000000000E+00  0.00000000000E+00 -0.36970908981E+03  0.46083365150E+03  0.27510514947E+03 0.  0.
         25    1    3    3    0    0  0.14299833117E+02  0.40794487626E+02 -0.27111964315E+03  0.29962399161E+03  0.12000000000E+03 0.  0.
         25    1    3    3    0    0 -0.14299833117E+02 -0.40794487626E+02 -0.98589446661E+02  0.16120965989E+03  0.12000000000E+03 0.  0.
<mgrwt>
<rscale>  0 0.27510515E+03</rscale>
<asrwt>0</asrwt>
<pdfrwt beam="1">  1        1 0.63887901E-01 0.27510515E+03</pdfrwt>
<pdfrwt beam="2">  1       -1 0.70095819E-02 0.27510515E+03</pdfrwt>
<totfact> 0.60507882E+03</totfact>
</mgrwt>
</event>
<event>
 5    1  0.1107336E+001  0.2756431E+03  0.7818608E-02  0.1098093E+00
         -2   -1    0    0    0  501 -0.00000000000E+00  0.00000000000E+00  0.96260142255E+02  0.96260142255E+02  0.00000000000E+00 0. -1.
          2   -1    0    0  501    0  0.00000000000E+00 -0.00000000000E+00 -0.19732762894E+03  0.19732762894E+03  0.00000000000E+00 0. -1.
         35    2    1    2    0    0  0.00000000000E+00  0.00000000000E+00 -0.10106748668E+03  0.29358777119E+03  0.27564314345E+03 0.  0.
         25    1    3    3    0    0 -0.56578902094E+02  0.17977445060E+02 -0.15686463941E+02  0.13479772195E+03  0.12000000000E+03 0.  0.
         25    1    3    3    0    0  0.56578902094E+02 -0.17977445060E+02 -0.85381022741E+02  0.15879004924E+03  0.12000000000E+03 0.  0.
<mgrwt>
<rscale>  0 0.27564314E+03</rscale>
<asrwt>0</asrwt>
<pdfrwt beam="1">  1        2 0.30358097E-01 0.27564314E+03</pdfrwt>
<pdfrwt beam="2">  1       -2 0.14809253E-01 0.27564314E+03</pdfrwt>
<totfact> 0.60079080E+03</totfact>
</mgrwt>
</event>
<event>
 5    1  0.1107336E+001  0.2743415E+03  0.7818608E-02  0.1098820E+00
          4   -1    0    0  501    0  0.00000000000E+00  0.00000000000E+00  0.17877331409E+03  0.17877331409E+03  0.00000000000E+00 0. -1.
         -4   -1    0    0    0  501 -0.00000000000E+00 -0.00000000000E+00 -0.10524959647E+03  0.10524959647E+03  0.00000000000E+00 0. -1.
         35    2    1    2    0    0  0.00000000000E+00  0.00000000000E+00  0.73523717626E+02  0.28402291056E+03  0.27434153289E+03 0.  0.
         25    1    3    3    0    0 -0.12208041732E+02  0.44509594713E+02 -0.12734063201E+02  0.12919867132E+03  0.12000000000E+03 0.  0.
         25    1    3    3    0    0  0.12208041732E+02 -0.44509594713E+02  0.86257780827E+02  0.15482423924E+03  0.12000000000E+03 0.  0.
<mgrwt>
<rscale>  0 0.27434153E+03</rscale>
<asrwt>0</asrwt>
<pdfrwt beam="1">  1        4 0.27503587E-01 0.27434153E+03</pdfrwt>
<pdfrwt beam="2">  1       -4 0.16192246E-01 0.27434153E+03</pdfrwt>
<totfact> 0.77381526E+02</totfact>
</mgrwt>
</event>
<event>
 5    1  0.1107336E+001  0.2830756E+03  0.7818608E-02  0.1094021E+00
          1   -1    0    0  501    0  0.00000000000E+00  0.00000000000E+00  0.84066323141E+02  0.84066323141E+02  0.00000000000E+00 0.  1.
         -1   -1    0    0    0  501 -0.00000000000E+00 -0.00000000000E+00 -0.23829926343E+03  0.23829926343E+03  0.00000000000E+00 0.  1.
         35    2    1    2    0    0  0.00000000000E+00  0.00000000000E+00 -0.15423294029E+03  0.32236558657E+03  0.28307555799E+03 0.  0.
         25    1    3    3    0    0 -0.72162035722E+02 -0.18838101339E+02 -0.86692487942E+02  0.16576435361E+03  0.12000000000E+03 0.  0.
         25    1    3    3    0    0  0.72162035722E+02  0.18838101339E+02 -0.67540452343E+02  0.15660123296E+03  0.12000000000E+03 0.  0.
<mgrwt>
<rscale>  0 0.28307556E+03</rscale>
<asrwt>0</asrwt>
<pdfrwt beam="1">  1        1 0.12933280E-01 0.28307556E+03</pdfrwt>
<pdfrwt beam="2">  1       -1 0.36661425E-01 0.28307556E+03</pdfrwt>
<totfact> 0.32604083E+03</totfact>
</mgrwt>
</event>
<event>
 5    1  0.1107336E+001  0.2746391E+03  0.7818608E-02  0.1098653E+00
          2   -1    0    0  501    0  0.00000000000E+00  0.00000000000E+00  0.24476302520E+04  0.24476302520E+04  0.00000000000E+00 0. -1.
         -2   -1    0    0    0  501 -0.00000000000E+00 -0.00000000000E+00 -0.77040476947E+01  0.77040476947E+01  0.00000000000E+00 0. -1.
         35    2    1    2    0    0  0.00000000000E+00  0.00000000000E+00  0.24399262043E+04  0.24553342997E+04  0.27463911011E+03 0.  0.
         25    1    3    3    0    0  0.24832732825E+02  0.34324708061E+02  0.16812135209E+04  0.16860230583E+04  0.12000000000E+03 0.  0.
         25    1    3    3    0    0 -0.24832732825E+02 -0.34324708061E+02  0.75871268340E+03  0.76931124141E+03  0.12000000000E+03 0.  0.
<mgrwt>
<rscale>  0 0.27463911E+03</rscale>
<asrwt>0</asrwt>
<pdfrwt beam="1">  1        2 0.37655788E+00 0.27463911E+03</pdfrwt>
<pdfrwt beam="2">  1       -2 0.11852401E-02 0.27463911E+03</pdfrwt>
<totfact> 0.71313757E+03</totfact>
</mgrwt>
</event>
<event>
 5    1  0.1107336E+001  0.2750874E+03  0.7818608E-02  0.1098403E+00
          2   -1    0    0  501    0  0.00000000000E+00  0.00000000000E+00  0.71151410869E+03  0.71151410869E+03  0.00000000000E+00 0. -1.
         -2   -1    0    0    0  501 -0.00000000000E+00 -0.00000000000E+00 -0.26588744795E+02  0.26588744795E+02  0.00000000000E+00 0. -1.
         35    2    1    2    0    0  0.00000000000E+00  0.00000000000E+00  0.68492536389E+03  0.73810285349E+03  0.27508738287E+03 0.  0.
         25    1    3    3    0    0  0.63615478476E+01 -0.63742922089E+02  0.28782647036E+03  0.31835154538E+03  0.12000000000E+03 0.  0.
         25    1    3    3    0    0 -0.63615478476E+01  0.63742922089E+02  0.39709889353E+03  0.41975130810E+03  0.12000000000E+03 0.  0.
<mgrwt>
<rscale>  0 0.27508738E+03</rscale>
<asrwt>0</asrwt>
<pdfrwt beam="1">  1        2 0.10946369E+00 0.27508738E+03</pdfrwt>
<pdfrwt beam="2">  1       -2 0.40905767E-02 0.27508738E+03</pdfrwt>
<totfact> 0.10879461E+04</totfact>
</mgrwt>
</event>
<event>
 5    1  0.1107336E+001  0.2746069E+03  0.7818608E-02  0.1098672E+00
          3   -1    0    0  501    0  0.00000000000E+00  0.00000000000E+00  0.19716331607E+03  0.19716331607E+03  0.00000000000E+00 0. -1.
         -3   -1    0    0    0  501 -0.00000000000E+00 -0.00000000000E+00 -0.95617333947E+02  0.95617333947E+02  0.00000000000E+00 0. -1.
         35    2    1    2    0    0  0.00000000000E+00  0.00000000000E+00  0.10154598212E+03  0.29278065002E+03  0.27460685086E+03 0.  0.
         25    1    3    3    0    0  0.57094017225E+02 -0.33253393394E+02  0.60701402562E+02  0.14983382545E+03  0.12000000000E+03 0.  0.
         25    1    3    3    0    0 -0.57094017225E+02  0.33253393394E+02  0.40844579561E+02  0.14294682457E+03  0.12000000000E+03 0.  0.
<mgrwt>
<rscale>  0 0.27460685E+03</rscale>
<asrwt>0</asrwt>
<pdfrwt beam="1">  1        3 0.30332818E-01 0.27460685E+03</pdfrwt>
<pdfrwt beam="2">  1       -3 0.14710359E-01 0.27460685E+03</pdfrwt>
<totfact> 0.10267326E+03</totfact>
</mgrwt>
</event>
<event>
 5    1  0.1107336E+001  0.2745009E+03  0.7818608E-02  0.1098731E+00
         -2   -1    0    0    0  501 -0.00000000000E+00  0.00000000000E+00  0.43397300583E+02  0.43397300583E+02  0.00000000000E+00 0.  1.
          2   -1    0    0  501    0  0.00000000000E+00 -0.00000000000E+00 -0.43407506037E+03  0.43407506037E+03  0.00000000000E+00 0.  1.
         35    2    1    2    0    0  0.00000000000E+00  0.00000000000E+00 -0.39067775978E+03  0.47747236095E+03  0.27450089887E+03 0.  0.
         25    1    3    3    0    0 -0.29242435833E+02  0.10643134234E+02 -0.29779189353E+03  0.32256535494E+03  0.12000000000E+03 0.  0.
         25    1    3    3    0    0  0.29242435833E+02 -0.10643134234E+02 -0.92885866258E+02  0.15490700601E+03  0.12000000000E+03 0.  0.
<mgrwt>
<rscale>  0 0.27450090E+03</rscale>
<asrwt>0</asrwt>
<pdfrwt beam="1">  1        2 0.66780777E-01 0.27450090E+03</pdfrwt>
<pdfrwt beam="2">  1       -2 0.66765079E-02 0.27450090E+03</pdfrwt>
<totfact> 0.90898541E+03</totfact>
</mgrwt>
</event>
<event>
 5    1  0.1107336E+001  0.2749675E+03  0.7818608E-02  0.1098470E+00
         -1   -1    0    0    0  501 -0.00000000000E+00  0.00000000000E+00  0.13259080890E+03  0.13259080890E+03  0.00000000000E+00 0.  1.
          1   -1    0    0  501    0  0.00000000000E+00 -0.00000000000E+00 -0.14255725498E+03  0.14255725498E+03  0.00000000000E+00 0.  1.
         35    2    1    2    0    0  0.00000000000E+00  0.00000000000E+00 -0.99664460794E+01  0.27514806389E+03  0.27496750174E+03 0.  0.
         25    1    3    3    0    0 -0.33637515393E+02  0.36348763023E+02 -0.50279566508E+02  0.13921476151E+03  0.12000000000E+03 0.  0.
         25    1    3    3    0    0  0.33637515393E+02 -0.36348763023E+02  0.40313120429E+02  0.13593330237E+03  0.12000000000E+03 0.  0.
<mgrwt>
<rscale>  0 0.27496750E+03</rscale>
<asrwt>0</asrwt>
<pdfrwt beam="1">  1        1 0.21931885E-01 0.27496750E+03</pdfrwt>
<pdfrwt beam="2">  1       -1 0.20398586E-01 0.27496750E+03</pdfrwt>
<totfact> 0.43942818E+03</totfact>
</mgrwt>
</event>
<event>
 5    1  0.1107336E+001  0.2751655E+03  0.7818608E-02  0.1098359E+00
          1   -1    0    0  501    0  0.00000000000E+00  0.00000000000E+00  0.14002193101E+03  0.14002193101E+03  0.00000000000E+00 0. -1.
         -1   -1    0    0    0  501 -0.00000000000E+00 -0.00000000000E+00 -0.13518610256E+03  0.13518610256E+03  0.00000000000E+00 0. -1.
         35    2    1    2    0    0  0.00000000000E+00  0.00000000000E+00  0.48358284447E+01  0.27520803357E+03  0.27516554382E+03 0.  0.
         25    1    3    3    0    0 -0.70135519693E+01  0.66507195647E+02 -0.51080163223E+01  0.13747177461E+03  0.12000000000E+03 0.  0.
         25    1    3    3    0    0  0.70135519693E+01 -0.66507195647E+02  0.99438447669E+01  0.13773625896E+03  0.12000000000E+03 0.  0.
<mgrwt>
<rscale>  0 0.27516554E+03</rscale>
<asrwt>0</asrwt>
<pdfrwt beam="1">  1        1 0.21541836E-01 0.27516554E+03</pdfrwt>
<pdfrwt beam="2">  1       -1 0.20797862E-01 0.27516554E+03</pdfrwt>
<totfact> 0.43567843E+03</totfact>
</mgrwt>
</event>
<event>
 5    1  0.1107336E+001  0.2747709E+03  0.7818608E-02  0.1098580E+00
         -1   -1    0    0    0  501 -0.00000000000E+00  0.00000000000E+00  0.31831489431E+02  0.31831489431E+02  0.00000000000E+00 0. -1.
          1   -1    0    0  501    0  0.00000000000E+00 -0.00000000000E+00 -0.59295883669E+03  0.59295883669E+03  0.00000000000E+00 0. -1.
         35    2    1    2    0    0  0.00000000000E+00  0.00000000000E+00 -0.56112734726E+03  0.62479032612E+03  0.27477090780E+03 0.  0.
         25    1    3    3    0    0 -0.38018747478E+02  0.42844055618E+02 -0.35912623508E+03  0.38295259626E+03  0.12000000000E+03 0.  0.
         25    1    3    3    0    0  0.38018747478E+02 -0.42844055618E+02 -0.20200111218E+03  0.24183772986E+03  0.12000000000E+03 0.  0.
<mgrwt>
<rscale>  0 0.27477091E+03</rscale>
<asrwt>0</asrwt>
<pdfrwt beam="1">  1        1 0.91224438E-01 0.27477091E+03</pdfrwt>
<pdfrwt beam="2">  1       -1 0.48971521E-02 0.27477091E+03</pdfrwt>
<totfact> 0.64684954E+03</totfact>
</mgrwt>
</event>
<event>
 5    1  0.1107336E+001  0.2759835E+03  0.7818608E-02  0.1097903E+00
          3   -1    0    0  501    0  0.00000000000E+00  0.00000000000E+00  0.29083363553E+03  0.29083363553E+03  0.00000000000E+00 0.  1.
         -3   -1    0    0    0  501 -0.00000000000E+00 -0.00000000000E+00 -0.65472918706E+02  0.65472918706E+02  0.00000000000E+00 0.  1.
         35    2    1    2    0    0  0.00000000000E+00  0.00000000000E+00  0.22536071683E+03  0.35630655424E+03  0.27598352832E+03 0.  0.
         25    1    3    3    0    0 -0.64839159856E+02 -0.47088076341E+01  0.86365958306E+02  0.16150965381E+03  0.12000000000E+03 0.  0.
         25    1    3    3    0    0  0.64839159856E+02  0.47088076341E+01  0.13899475852E+03  0.19479690043E+03  0.12000000000E+03 0.  0.
<mgrwt>
<rscale>  0 0.27598353E+03</rscale>
<asrwt>0</asrwt>
<pdfrwt beam="1">  1        3 0.44743635E-01 0.27598353E+03</pdfrwt>
<pdfrwt beam="2">  1       -3 0.10072757E-01 0.27598353E+03</pdfrwt>
<totfact> 0.92472709E+02</totfact>
</mgrwt>
</event>
<event>
 5    1  0.1107336E+001  0.2735408E+03  0.7818608E-02  0.1099270E+00
         -2   -1    0    0    0  501 -0.00000000000E+00  0.00000000000E+00  0.76713593547E+01  0.76713593547E+01  0.00000000000E+00 0.  1.
          2   -1    0    0  501    0  0.00000000000E+00 -0.00000000000E+00 -0.24384397021E+04  0.24384397021E+04  0.00000000000E+00 0.  1.
         35    2    1    2    0    0  0.00000000000E+00  0.00000000000E+00 -0.24307683427E+04  0.24461110615E+04  0.27354083585E+03 0.  0.
         25    1    3    3    0    0  0.27629297087E+02  0.15715827909E+02 -0.17287574209E+04  0.17332087542E+04  0.12000000000E+03 0.  0.
         25    1    3    3    0    0 -0.27629297087E+02 -0.15715827909E+02 -0.70201092182E+03  0.71290230724E+03  0.12000000000E+03 0.  0.
<mgrwt>
<rscale>  0 0.27354084E+03</rscale>
<asrwt>0</asrwt>
<pdfrwt beam="1">  1        2 0.37514498E+00 0.27354084E+03</pdfrwt>
<pdfrwt beam="2">  1       -2 0.11802078E-02 0.27354084E+03</pdfrwt>
<totfact> 0.72588665E+03</totfact>
</mgrwt>
</event>
<event>
 5    1  0.1107336E+001  0.2751644E+03  0.7818608E-02  0.1098360E+00
         -2   -1    0    0    0  501 -0.00000000000E+00  0.00000000000E+00  0.23095285917E+02  0.23095285917E+02  0.00000000000E+00 0. -1.
          2   -1    0    0  501    0  0.00000000000E+00 -0.00000000000E+00 -0.81959836255E+03  0.81959836255E+03  0.00000000000E+00 0. -1.
         35    2    1    2    0    0  0.00000000000E+00  0.00000000000E+00 -0.79650307663E+03  0.84269364847E+03  0.27516437648E+03 0.  0.
         25    1    3    3    0    0  0.13163742092E+02  0.86373306575E+01 -0.19787417764E+03  0.23195274899E+03  0.12000000000E+03 0.  0.
         25    1    3    3    0    0 -0.13163742092E+02 -0.86373306575E+01 -0.59862889899E+03  0.61074089948E+03  0.12000000000E+03 0.  0.
<mgrwt>
<rscale>  0 0.27516438E+03</rscale>
<asrwt>0</asrwt>
<pdfrwt beam="1">  1        2 0.12609207E+00 0.27516438E+03</pdfrwt>
<pdfrwt beam="2">  1       -2 0.35531205E-02 0.27516438E+03</pdfrwt>
<totfact> 0.11261807E+04</totfact>
</mgrwt>
</event>
<event>
 5    1  0.1107336E+001  0.2749993E+03  0.7818608E-02  0.1098452E+00
         -1   -1    0    0    0  501 -0.00000000000E+00  0.00000000000E+00  0.91125592464E+02  0.91125592464E+02  0.00000000000E+00 0. -1.
          1   -1    0    0  501    0  0.00000000000E+00 -0.00000000000E+00 -0.20747361709E+03  0.20747361709E+03  0.00000000000E+00 0. -1.
         35    2    1    2    0    0  0.00000000000E+00  0.00000000000E+00 -0.11634802463E+03  0.29859920956E+03  0.27499931839E+03 0.  0.
         25    1    3    3    0    0  0.10947937712E+02 -0.19422020246E+02 -0.12692510706E+03  0.17608820236E+03  0.12000000000E+03 0.  0.
         25    1    3    3    0    0 -0.10947937712E+02  0.19422020246E+02  0.10577082427E+02  0.12251100719E+03  0.12000000000E+03 0.  0.
<mgrwt>
<rscale>  0 0.27499932E+03</rscale>
<asrwt>0</asrwt>
<pdfrwt beam="1">  1        1 0.31919018E-01 0.27499932E+03</pdfrwt>
<pdfrwt beam="2">  1       -1 0.14019322E-01 0.27499932E+03</pdfrwt>
<totfact> 0.49772304E+03</totfact>
</mgrwt>
</event>
<event>
 5    1  0.1107336E+001  0.2751517E+03  0.7818608E-02  0.1098367E+00
         -3   -1    0    0    0  501 -0.00000000000E+00  0.00000000000E+00  0.10244918126E+04  0.10244918126E+04  0.00000000000E+00 0. -1.
          3   -1    0    0  501    0  0.00000000000E+00 -0.00000000000E+00 -0.18474633206E+02  0.18474633206E+02  0.00000000000E+00 0. -1.
         35    2    1    2    0    0  0.00000000000E+00  0.00000000000E+00  0.10060171794E+04  0.10429664458E+04  0.27515167062E+03 0.  0.
         25    1    3    3    0    0  0.35587340361E+02 -0.47794105243E+02  0.62145081167E+03  0.63572938159E+03  0.12000000000E+03 0.  0.
         25    1    3    3    0    0 -0.35587340361E+02  0.47794105243E+02  0.38456636777E+03  0.40723706426E+03  0.12000000000E+03 0.  0.
<mgrwt>
<rscale>  0 0.27515167E+03</rscale>
<asrwt>0</asrwt>
<pdfrwt beam="1">  1        3 0.28422521E-02 0.27515167E+03</pdfrwt>
<pdfrwt beam="2">  1       -3 0.15761408E+00 0.27515167E+03</pdfrwt>
<totfact> 0.42352111E+02</totfact>
</mgrwt>
</event>
<event>
 5    1  0.1107336E+001  0.2753963E+03  0.7818608E-02  0.1098230E+00
         -2   -1    0    0    0  501 -0.00000000000E+00  0.00000000000E+00  0.15359153841E+02  0.15359153841E+02  0.00000000000E+00 0. -1.
          2   -1    0    0  501    0  0.00000000000E+00 -0.00000000000E+00 -0.12344934639E+04  0.12344934639E+04  0.00000000000E+00 0. -1.
         35    2    1    2    0    0  0.00000000000E+00  0.00000000000E+00 -0.12191343100E+04  0.12498526177E+04  0.27539626016E+03 0.  0.
         25    1    3    3    0    0  0.10892538127E+02 -0.50726643460E+02 -0.80576665551E+03  0.81630370750E+03  0.12000000000E+03 0.  0.
         25    1    3    3    0    0 -0.10892538127E+02  0.50726643460E+02 -0.41336765450E+03  0.43354891019E+03  0.12000000000E+03 0.  0.
<mgrwt>
<rscale>  0 0.27539626E+03</rscale>
<asrwt>0</asrwt>
<pdfrwt beam="1">  1        2 0.18992210E+00 0.27539626E+03</pdfrwt>
<pdfrwt beam="2">  1       -2 0.23629463E-02 0.27539626E+03</pdfrwt>
<totfact> 0.11526430E+04</totfact>
</mgrwt>
</event>
<event>
 5    1  0.1107336E+001  0.2729870E+03  0.7818608E-02  0.1099582E+00
         -2   -1    0    0    0  501 -0.00000000000E+00  0.00000000000E+00  0.10219598287E+02  0.10219598287E+02  0.00000000000E+00 0.  1.
          2   -1    0    0  501    0  0.00000000000E+00 -0.00000000000E+00 -0.18230139402E+04  0.18230139402E+04  0.00000000000E+00 0.  1.
         35    2    1    2    0    0  0.00000000000E+00  0.00000000000E+00 -0.18127943419E+04  0.18332335385E+04  0.27298696042E+03 0.  0.
         25    1    3    3    0    0 -0.59924819781E+02  0.23567769080E+02 -0.96796238355E+03  0.97749557530E+03  0.12000000000E+03 0.  0.
         25    1    3    3    0    0  0.59924819781E+02 -0.23567769080E+02 -0.84483195833E+03  0.85573796316E+03  0.12000000000E+03 0.  0.
<mgrwt>
<rscale>  0 0.27298696E+03</rscale>
<asrwt>0</asrwt>
<pdfrwt beam="1">  1        2 0.28046347E+00 0.27298696E+03</pdfrwt>
<pdfrwt beam="2">  1       -2 0.15722471E-02 0.27298696E+03</pdfrwt>
<totfact> 0.10134283E+04</totfact>
</mgrwt>
</event>
<event>
 5    1  0.1107336E+001  0.2761055E+03  0.7818608E-02  0.1097835E+00
          2   -1    0    0  501    0  0.00000000000E+00  0.00000000000E+00  0.88144884342E+02  0.88144884342E+02  0.00000000000E+00 0. -1.
         -2   -1    0    0    0  501 -0.00000000000E+00 -0.00000000000E+00 -0.21621859220E+03  0.21621859220E+03  0.00000000000E+00 0. -1.
         35    2    1    2    0    0  0.00000000000E+00  0.00000000000E+00 -0.12807370786E+03  0.30436347654E+03  0.27610550739E+03 0.  0.
         25    1    3    3    0    0 -0.39076815620E+02  0.28262338057E+02 -0.10794562923E+02  0.12977780958E+03  0.12000000000E+03 0.  0.
         25    1    3    3    0    0  0.39076815620E+02 -0.28262338057E+02 -0.11727914494E+03  0.17458566696E+03  0.12000000000E+03 0.  0.
<mgrwt>
<rscale>  0 0.27610551E+03</rscale>
<asrwt>0</asrwt>
<pdfrwt beam="1">  1        2 0.13560752E-01 0.27610551E+03</pdfrwt>
<pdfrwt beam="2">  1       -2 0.33264398E-01 0.27610551E+03</pdfrwt>
<totfact> 0.36999849E+03</totfact>
</mgrwt>
</event>
<event>
 5    1  0.1107336E+001  0.2742235E+03  0.7818608E-02  0.1098886E+00
         -2   -1    0    0    0  501 -0.00000000000E+00  0.00000000000E+00  0.11760835310E+02  0.11760835310E+02  0.00000000000E+00 0. -1.
          2   -1    0    0  501    0  0.00000000000E+00 -0.00000000000E+00 -0.15984941967E+04  0.15984941967E+04  0.00000000000E+00 0. -1.
         35    2    1    2    0    0  0.00000000000E+00  0.00000000000E+00 -0.15867333614E+04  0.16102550320E+04  0.27422346356E+03 0.  0.
         25    1    3    3    0    0 -0.18436179961E+02 -0.14583248966E+02 -0.42915429678E+03  0.44623533514E+03  0.12000000000E+03 0.  0.
         25    1    3    3    0    0  0.18436179961E+02  0.14583248966E+02 -0.11575790646E+04  0.11640196969E+04  0.12000000000E+03 0.  0.
<mgrwt>
<rscale>  0 0.27422346E+03</rscale>
<asrwt>0</asrwt>
<pdfrwt beam="1">  1        2 0.24592227E+00 0.27422346E+03</pdfrwt>
<pdfrwt beam="2">  1       -2 0.18093587E-02 0.27422346E+03</pdfrwt>
<totfact> 0.10830510E+04</totfact>
</mgrwt>
</event>
<event>
 4    1  0.1107336E+001  0.3642448E+03  0.7818608E-02  0.1056916E+00
          2   -1    0    0  501    0  0.00000000000E+00  0.00000000000E+00  0.23885190693E+03  0.23885190693E+03  0.00000000000E+00 0. -1.
         -2   -1    0    0    0  501 -0.00000000000E+00 -0.00000000000E+00 -0.13886670311E+03  0.13886670311E+03  0.00000000000E+00 0. -1.
         25    1    1    2    0    0  0.88916067261E+02  0.32952396901E+02 -0.52541891074E+02  0.16171758654E+03  0.12000000000E+03 0.  0.
         25    1    1    2    0    0 -0.88916067261E+02 -0.32952396901E+02  0.15252709490E+03  0.21600102351E+03  0.12000000000E+03 0.  0.
<mgrwt>
<rscale>  0 0.36424485E+03</rscale>
<asrwt>0</asrwt>
<pdfrwt beam="1">  1        2 0.36746447E-01 0.36424485E+03</pdfrwt>
<pdfrwt beam="2">  1       -2 0.21364108E-01 0.36424485E+03</pdfrwt>
<totfact> 0.26413870E+03</totfact>
</mgrwt>
</event>
<event>
 5    1  0.1107336E+001  0.2748874E+03  0.7818608E-02  0.1098515E+00
         -1   -1    0    0    0  501 -0.00000000000E+00  0.00000000000E+00  0.15864819258E+02  0.15864819258E+02  0.00000000000E+00 0.  1.
          1   -1    0    0  501    0  0.00000000000E+00 -0.00000000000E+00 -0.11907335556E+04  0.11907335556E+04  0.00000000000E+00 0.  1.
         35    2    1    2    0    0  0.00000000000E+00  0.00000000000E+00 -0.11748687363E+04  0.12065983748E+04  0.27488741436E+03 0.  0.
         25    1    3    3    0    0  0.26818997578E+02  0.60300674641E+02 -0.53636914699E+03  0.55357681656E+03  0.12000000000E+03 0.  0.
         25    1    3    3    0    0 -0.26818997578E+02 -0.60300674641E+02 -0.63849958932E+03  0.65302155826E+03  0.12000000000E+03 0.  0.
<mgrwt>
<rscale>  0 0.27488741E+03</rscale>
<asrwt>0</asrwt>
<pdfrwt beam="1">  1        1 0.18318982E+00 0.27488741E+03</pdfrwt>
<pdfrwt beam="2">  1       -1 0.24407409E-02 0.27488741E+03</pdfrwt>
<totfact> 0.59456458E+03</totfact>
</mgrwt>
</event>
<event>
 5    1  0.1107336E+001  0.2741615E+03  0.7818608E-02  0.1098921E+00
          2   -1    0    0  501    0  0.00000000000E+00  0.00000000000E+00  0.16045304751E+04  0.16045304751E+04  0.00000000000E+00 0.  1.
         -2   -1    0    0    0  501 -0.00000000000E+00 -0.00000000000E+00 -0.11711296782E+02  0.11711296782E+02  0.00000000000E+00 0.  1.
         35    2    1    2    0    0  0.00000000000E+00  0.00000000000E+00  0.15928191783E+04  0.16162417719E+04  0.27416150416E+03 0.  0.
         25    1    3    3    0    0 -0.18886874238E+02  0.50782444378E+02  0.57149625970E+03  0.58646700293E+03  0.12000000000E+03 0.  0.
         25    1    3    3    0    0  0.18886874238E+02 -0.50782444378E+02  0.10213229186E+04  0.10297747689E+04  0.12000000000E+03 0.  0.
<mgrwt>
<rscale>  0 0.27416150E+03</rscale>
<asrwt>0</asrwt>
<pdfrwt beam="1">  1        2 0.24685067E+00 0.27416150E+03</pdfrwt>
<pdfrwt beam="2">  1       -2 0.18017392E-02 0.27416150E+03</pdfrwt>
<totfact> 0.10817818E+04</totfact>
</mgrwt>
</event>
<event>
 5    1  0.1107336E+001  0.2761122E+03  0.7818608E-02  0.1097832E+00
          2   -1    0    0  501    0  0.00000000000E+00  0.00000000000E+00  0.38598187348E+03  0.38598187348E+03  0.00000000000E+00 0.  1.
         -2   -1    0    0    0  501 -0.00000000000E+00 -0.00000000000E+00 -0.49379213085E+02  0.49379213085E+02  0.00000000000E+00 0.  1.
         35    2    1    2    0    0  0.00000000000E+00  0.00000000000E+00  0.33660266039E+03  0.43536108656E+03  0.27611215966E+03 0.  0.
         25    1    3    3    0    0  0.56961844344E+02  0.37444408696E+02  0.17393052561E+03  0.22203279756E+03  0.12000000000E+03 0.  0.
         25    1    3    3    0    0 -0.56961844344E+02 -0.37444408696E+02  0.16267213478E+03  0.21332828900E+03  0.12000000000E+03 0.  0.
<mgrwt>
<rscale>  0 0.27611216E+03</rscale>
<asrwt>0</asrwt>
<pdfrwt beam="1">  1        2 0.59381825E-01 0.27611216E+03</pdfrwt>
<pdfrwt beam="2">  1       -2 0.75968023E-02 0.27611216E+03</pdfrwt>
<totfact> 0.84581210E+03</totfact>
</mgrwt>
</event>
<event>
 5    1  0.1107336E+001  0.2752277E+03  0.7818608E-02  0.1098324E+00
         -2   -1    0    0    0  501 -0.00000000000E+00  0.00000000000E+00  0.16086504229E+02  0.16086504229E+02  0.00000000000E+00 0.  1.
          2   -1    0    0  501    0  0.00000000000E+00 -0.00000000000E+00 -0.11772335256E+04  0.11772335256E+04  0.00000000000E+00 0.  1.
         35    2    1    2    0    0  0.00000000000E+00  0.00000000000E+00 -0.11611470214E+04  0.11933200299E+04  0.27522770274E+03 0.  0.
         25    1    3    3    0    0 -0.24810203985E+02  0.56597551143E+02 -0.46433457608E+03  0.48355498918E+03  0.12000000000E+03 0.  0.
         25    1    3    3    0    0  0.24810203985E+02 -0.56597551143E+02 -0.69681244532E+03  0.70976504068E+03  0.12000000000E+03 0.  0.
<mgrwt>
<rscale>  0 0.27522770E+03</rscale>
<asrwt>0</asrwt>
<pdfrwt beam="1">  1        2 0.18111282E+00 0.27522770E+03</pdfrwt>
<pdfrwt beam="2">  1       -2 0.24748472E-02 0.27522770E+03</pdfrwt>
<totfact> 0.11600202E+04</totfact>
</mgrwt>
</event>
<event>
 5    1  0.1107336E+001  0.2759992E+03  0.7818608E-02  0.1097894E+00
         -2   -1    0    0    0  501 -0.00000000000E+00  0.00000000000E+00  0.12328727427E+02  0.12328727427E+02  0.00000000000E+00 0. -1.
          2   -1    0    0  501    0  0.00000000000E+00 -0.00000000000E+00 -0.15446754894E+04  0.15446754894E+04  0.00000000000E+00 0. -1.
         35    2    1    2    0    0  0.00000000000E+00  0.00000000000E+00 -0.15323467620E+04  0.15570042168E+04  0.27599915269E+03 0.  0.
         25    1    3    3    0    0 -0.77588760095E+01 -0.64403156539E+02 -0.64839010880E+03  0.66258410780E+03  0.12000000000E+03 0.  0.
         25    1    3    3    0    0  0.77588760095E+01  0.64403156539E+02 -0.88395665317E+03  0.89442010901E+03  0.12000000000E+03 0.  0.
<mgrwt>
<rscale>  0 0.27599915E+03</rscale>
<asrwt>0</asrwt>
<pdfrwt beam="1">  1        2 0.23764239E+00 0.27599915E+03</pdfrwt>
<pdfrwt beam="2">  1       -2 0.18967272E-02 0.27599915E+03</pdfrwt>
<totfact> 0.10794868E+04</totfact>
</mgrwt>
</event>
<event>
 5    1  0.1107336E+001  0.2751620E+03  0.7818608E-02  0.1098361E+00
          2   -1    0    0  501    0  0.00000000000E+00  0.00000000000E+00  0.47958414268E+03  0.47958414268E+03  0.00000000000E+00 0.  1.
         -2   -1    0    0    0  501 -0.00000000000E+00 -0.00000000000E+00 -0.39468637604E+02  0.39468637604E+02  0.00000000000E+00 0.  1.
         35    2    1    2    0    0  0.00000000000E+00  0.00000000000E+00  0.44011550508E+03  0.51905278029E+03  0.27516200848E+03 0.  0.
         25    1    3    3    0    0  0.15435792230E+02  0.60099253495E+02  0.17092743471E+03  0.21786778534E+03  0.12000000000E+03 0.  0.
         25    1    3    3    0    0 -0.15435792230E+02 -0.60099253495E+02  0.26918807037E+03  0.30118499494E+03  0.12000000000E+03 0.  0.
<mgrwt>
<rscale>  0 0.27516201E+03</rscale>
<asrwt>0</asrwt>
<pdfrwt beam="1">  1        2 0.73782171E-01 0.27516201E+03</pdfrwt>
<pdfrwt beam="2">  1       -2 0.60720985E-02 0.27516201E+03</pdfrwt>
<totfact> 0.94248545E+03</totfact>
</mgrwt>
</event>
<event>
 5    1  0.1107336E+001  0.2751682E+03  0.7818608E-02  0.1098358E+00
         -1   -1    0    0    0  501 -0.00000000000E+00  0.00000000000E+00  0.91096513745E+01  0.91096513745E+01  0.00000000000E+00 0. -1.
          1   -1    0    0  501    0  0.00000000000E+00 -0.00000000000E+00 -0.20779481903E+04  0.20779481903E+04  0.00000000000E+00 0. -1.
         35    2    1    2    0    0  0.00000000000E+00  0.00000000000E+00 -0.20688385390E+04  0.20870578417E+04  0.27516819284E+03 0.  0.
         25    1    3    3    0    0 -0.10310402065E+02 -0.67127797606E+01 -0.15362705245E+04  0.15409991857E+04  0.12000000000E+03 0.  0.
         25    1    3    3    0    0  0.10310402065E+02  0.67127797606E+01 -0.53256801442E+03  0.54605865599E+03  0.12000000000E+03 0.  0.
<mgrwt>
<rscale>  0 0.27516819E+03</rscale>
<asrwt>0</asrwt>
<pdfrwt beam="1">  1        1 0.31968492E+00 0.27516819E+03</pdfrwt>
<pdfrwt beam="2">  1       -1 0.14014823E-02 0.27516819E+03</pdfrwt>
<totfact> 0.34592942E+03</totfact>
</mgrwt>
</event>
<event>
 5    1  0.1107336E+001  0.2751558E+03  0.7818608E-02  0.1098365E+00
         -1   -1    0    0    0  501 -0.00000000000E+00  0.00000000000E+00  0.20151880436E+02  0.20151880436E+02  0.00000000000E+00 0.  1.
          1   -1    0    0  501    0  0.00000000000E+00 -0.00000000000E+00 -0.93925146038E+03  0.93925146038E+03  0.00000000000E+00 0.  1.
         35    2    1    2    0    0  0.00000000000E+00  0.00000000000E+00 -0.91909957995E+03  0.95940334082E+03  0.27515583315E+03 0.  0.
         25    1    3    3    0    0 -0.20074900540E+02 -0.30604574762E+02 -0.65642203125E+03  0.66830346755E+03  0.12000000000E+03 0.  0.
         25    1    3    3    0    0  0.20074900540E+02  0.30604574762E+02 -0.26267754870E+03  0.29109987327E+03  0.12000000000E+03 0.  0.
<mgrwt>
<rscale>  0 0.27515583E+03</rscale>
<asrwt>0</asrwt>
<pdfrwt beam="1">  1        1 0.14450023E+00 0.27515583E+03</pdfrwt>
<pdfrwt beam="2">  1       -1 0.31002891E-02 0.27515583E+03</pdfrwt>
<totfact> 0.63862858E+03</totfact>
</mgrwt>
</event>
<event>
 5    1  0.1107336E+001  0.2747739E+03  0.7818608E-02  0.1098578E+00
         -1   -1    0    0    0  501 -0.00000000000E+00  0.00000000000E+00  0.14955493990E+03  0.14955493990E+03  0.00000000000E+00 0.  1.
          1   -1    0    0  501    0  0.00000000000E+00 -0.00000000000E+00 -0.12620900262E+03  0.12620900262E+03  0.00000000000E+00 0.  1.
         35    2    1    2    0    0  0.00000000000E+00  0.00000000000E+00  0.23345937277E+02  0.27576394252E+03  0.27477394201E+03 0.  0.
         25    1    3    3    0    0  0.43366262793E+02  0.36062456706E+02 -0.24429494863E+02  0.13482556787E+03  0.12000000000E+03 0.  0.
         25    1    3    3    0    0 -0.43366262793E+02 -0.36062456706E+02  0.47775432140E+02  0.14093837465E+03  0.12000000000E+03 0.  0.
<mgrwt>
<rscale>  0 0.27477394E+03</rscale>
<asrwt>0</asrwt>
<pdfrwt beam="1">  1        1 0.19416770E-01 0.27477394E+03</pdfrwt>
<pdfrwt beam="2">  1       -1 0.23008452E-01 0.27477394E+03</pdfrwt>
<totfact> 0.42193674E+03</totfact>
</mgrwt>
</event>
<event>
 5    1  0.1107336E+001  0.2752458E+03  0.7818608E-02  0.1098314E+00
         -2   -1    0    0    0  501 -0.00000000000E+00  0.00000000000E+00  0.56646339129E+02  0.56646339129E+02  0.00000000000E+00 0.  1.
          2   -1    0    0  501    0  0.00000000000E+00 -0.00000000000E+00 -0.33435631670E+03  0.33435631670E+03  0.00000000000E+00 0.  1.
         35    2    1    2    0    0  0.00000000000E+00  0.00000000000E+00 -0.27770997757E+03  0.39100265583E+03  0.27524579057E+03 0.  0.
         25    1    3    3    0    0  0.19883204636E+01 -0.67191032958E+02 -0.13227227216E+03  0.19082594769E+03  0.12000000000E+03 0.  0.
         25    1    3    3    0    0 -0.19883204636E+01  0.67191032958E+02 -0.14543770542E+03  0.20017670815E+03  0.12000000000E+03 0.  0.
<mgrwt>
<rscale>  0 0.27524579E+03</rscale>
<asrwt>0</asrwt>
<pdfrwt beam="1">  1        2 0.51439432E-01 0.27524579E+03</pdfrwt>
<pdfrwt beam="2">  1       -2 0.87148217E-02 0.27524579E+03</pdfrwt>
<totfact> 0.79677044E+03</totfact>
</mgrwt>
</event>
<event>
 5    1  0.1107336E+001  0.2753482E+03  0.7818608E-02  0.1098257E+00
          3   -1    0    0  501    0  0.00000000000E+00  0.00000000000E+00  0.30431510582E+02  0.30431510582E+02  0.00000000000E+00 0. -1.
         -3   -1    0    0    0  501 -0.00000000000E+00 -0.00000000000E+00 -0.62284660915E+03  0.62284660915E+03  0.00000000000E+00 0. -1.
         35    2    1    2    0    0  0.00000000000E+00  0.00000000000E+00 -0.59241509856E+03  0.65327811973E+03  0.27534823898E+03 0.  0.
         25    1    3    3    0    0 -0.59448393067E+02 -0.11876238011E+02 -0.22586600405E+03  0.26285092401E+03  0.12000000000E+03 0.  0.
         25    1    3    3    0    0  0.59448393067E+02  0.11876238011E+02 -0.36654909452E+03  0.39042719572E+03  0.12000000000E+03 0.  0.
<mgrwt>
<rscale>  0 0.27534824E+03</rscale>
<asrwt>0</asrwt>
<pdfrwt beam="1">  1        3 0.46817716E-02 0.27534824E+03</pdfrwt>
<pdfrwt beam="2">  1       -3 0.95822540E-01 0.27534824E+03</pdfrwt>
<totfact> 0.64086164E+02</totfact>
</mgrwt>
</event>
<event>
 5    1  0.1107336E+001  0.2744203E+03  0.7818608E-02  0.1098776E+00
          2   -1    0    0  501    0  0.00000000000E+00  0.00000000000E+00  0.30000386259E+04  0.30000386259E+04  0.00000000000E+00 0. -1.
         -2   -1    0    0    0  501 -0.00000000000E+00 -0.00000000000E+00 -0.62754596315E+01  0.62754596315E+01  0.00000000000E+00 0. -1.
         35    2    1    2    0    0  0.00000000000E+00  0.00000000000E+00  0.29937631663E+04  0.30063140856E+04  0.27442027104E+03 0.  0.
         25    1    3    3    0    0  0.64070923280E+02  0.27707195198E+00  0.13004630251E+04  0.13075585033E+04  0.12000000000E+03 0.  0.
         25    1    3    3    0    0 -0.64070923280E+02 -0.27707195198E+00  0.16933001412E+04  0.16987555823E+04  0.12000000000E+03 0.  0.
<mgrwt>
<rscale>  0 0.27442027E+03</rscale>
<asrwt>0</asrwt>
<pdfrwt beam="1">  1        2 0.46154326E+00 0.27442027E+03</pdfrwt>
<pdfrwt beam="2">  1       -2 0.96545772E-03 0.27442027E+03</pdfrwt>
<totfact> 0.46752666E+03</totfact>
</mgrwt>
</event>
<event>
 5    1  0.1107336E+001  0.2751771E+03  0.7818608E-02  0.1098353E+00
          2   -1    0    0  501    0  0.00000000000E+00  0.00000000000E+00  0.25816079855E+03  0.25816079855E+03  0.00000000000E+00 0. -1.
         -2   -1    0    0    0  501 -0.00000000000E+00 -0.00000000000E+00 -0.73328731920E+02  0.73328731920E+02  0.00000000000E+00 0. -1.
         35    2    1    2    0    0  0.00000000000E+00  0.00000000000E+00  0.18483206663E+03  0.33148953047E+03  0.27517706292E+03 0.  0.
         25    1    3    3    0    0 -0.99884964420E+01  0.13514874661E+02  0.13899855941E+02  0.12196568326E+03  0.12000000000E+03 0.  0.
         25    1    3    3    0    0  0.99884964420E+01 -0.13514874661E+02  0.17093221069E+03  0.20952384721E+03  0.12000000000E+03 0.  0.
<mgrwt>
<rscale>  0 0.27517706E+03</rscale>
<asrwt>0</asrwt>
<pdfrwt beam="1">  1        2 0.39717045E-01 0.27517706E+03</pdfrwt>
<pdfrwt beam="2">  1       -2 0.11281344E-01 0.27517706E+03</pdfrwt>
<totfact> 0.69842698E+03</totfact>
</mgrwt>
</event>
<event>
 5    1  0.1107336E+001  0.2774734E+03  0.7818608E-02  0.1097077E+00
         -1   -1    0    0    0  501 -0.00000000000E+00  0.00000000000E+00  0.33902831068E+02  0.33902831068E+02  0.00000000000E+00 0.  1.
          1   -1    0    0  501    0  0.00000000000E+00 -0.00000000000E+00 -0.56773643945E+03  0.56773643945E+03  0.00000000000E+00 0.  1.
         35    2    1    2    0    0  0.00000000000E+00  0.00000000000E+00 -0.53383360838E+03  0.60163927052E+03  0.27747340484E+03 0.  0.
         25    1    3    3    0    0 -0.59618826209E+02  0.30558479013E+02 -0.22579678132E+03  0.26433390159E+03  0.12000000000E+03 0.  0.
         25    1    3    3    0    0  0.59618826209E+02 -0.30558479013E+02 -0.30803682707E+03  0.33730536893E+03  0.12000000000E+03 0.  0.
<mgrwt>
<rscale>  0 0.27747340E+03</rscale>
<asrwt>0</asrwt>
<pdfrwt beam="1">  1        1 0.87344065E-01 0.27747340E+03</pdfrwt>
<pdfrwt beam="2">  1       -1 0.52158203E-02 0.27747340E+03</pdfrwt>
<totfact> 0.62498793E+03</totfact>
</mgrwt>
</event>
<event>
 5    1  0.1107336E+001  0.2798221E+03  0.7818608E-02  0.1095786E+00
          1   -1    0    0  501    0  0.00000000000E+00  0.00000000000E+00  0.16062747588E+02  0.16062747588E+02  0.00000000000E+00 0. -1.
         -1   -1    0    0    0  501 -0.00000000000E+00 -0.00000000000E+00 -0.12186642173E+04  0.12186642173E+04  0.00000000000E+00 0. -1.
         35    2    1    2    0    0  0.00000000000E+00  0.00000000000E+00 -0.12026014697E+04  0.12347269649E+04  0.27982205572E+03 0.  0.
         25    1    3    3    0    0  0.52982157493E+02  0.26360850025E+02 -0.78178898683E+03  0.79315573714E+03  0.12000000000E+03 0.  0.
         25    1    3    3    0    0 -0.52982157493E+02 -0.26360850025E+02 -0.42081248286E+03  0.44157122773E+03  0.12000000000E+03 0.  0.
<mgrwt>
<rscale>  0 0.27982206E+03</rscale>
<asrwt>0</asrwt>
<pdfrwt beam="1">  1        1 0.24711926E-02 0.27982206E+03</pdfrwt>
<pdfrwt beam="2">  1       -1 0.18748675E+00 0.27982206E+03</pdfrwt>
<totfact> 0.91006605E+02</totfact>
</mgrwt>
</event>
<event>
 5    1  0.1107336E+001  0.2751453E+03  0.7818608E-02  0.1098370E+00
         -2   -1    0    0    0  501 -0.00000000000E+00  0.00000000000E+00  0.10129503384E+02  0.10129503384E+02  0.00000000000E+00 0. -1.
          2   -1    0    0  501    0  0.00000000000E+00 -0.00000000000E+00 -0.18684264524E+04  0.18684264524E+04  0.00000000000E+00 0. -1.
         35    2    1    2    0    0  0.00000000000E+00  0.00000000000E+00 -0.18582969490E+04  0.18785559558E+04  0.27514528578E+03 0.  0.
         25    1    3    3    0    0  0.39420519764E+02  0.47265072210E+02 -0.11146591798E+04  0.11227880706E+04  0.12000000000E+03 0.  0.
         25    1    3    3    0    0 -0.39420519764E+02 -0.47265072210E+02 -0.74363776918E+03  0.75576788512E+03  0.12000000000E+03 0.  0.
<mgrwt>
<rscale>  0 0.27514529E+03</rscale>
<asrwt>0</asrwt>
<pdfrwt beam="1">  1        2 0.28745019E+00 0.27514529E+03</pdfrwt>
<pdfrwt beam="2">  1       -2 0.15583853E-02 0.27514529E+03</pdfrwt>
<totfact> 0.97193429E+03</totfact>
</mgrwt>
</event>
<event>
 5    1  0.1107336E+001  0.2752855E+03  0.7818608E-02  0.1098292E+00
         -2   -1    0    0    0  501 -0.00000000000E+00  0.00000000000E+00  0.82120869175E+01  0.82120869175E+01  0.00000000000E+00 0. -1.
          2   -1    0    0  501    0  0.00000000000E+00 -0.00000000000E+00 -0.23070296036E+04  0.23070296036E+04  0.00000000000E+00 0. -1.
         35    2    1    2    0    0  0.00000000000E+00  0.00000000000E+00 -0.22988175166E+04  0.23152416905E+04  0.27528550725E+03 0.  0.
         25    1    3    3    0    0  0.65531878428E+02 -0.14698352228E+02 -0.11992068392E+04  0.12070656618E+04  0.12000000000E+03 0.  0.
         25    1    3    3    0    0 -0.65531878428E+02  0.14698352228E+02 -0.10996106774E+04  0.11081760287E+04  0.12000000000E+03 0.  0.
<mgrwt>
<rscale>  0 0.27528551E+03</rscale>
<asrwt>0</asrwt>
<pdfrwt beam="1">  1        2 0.35492785E+00 0.27528551E+03</pdfrwt>
<pdfrwt beam="2">  1       -2 0.12633972E-02 0.27528551E+03</pdfrwt>
<totfact> 0.77401611E+03</totfact>
</mgrwt>
</event>
<event>
 5    1  0.1107336E+001  0.2754998E+03  0.7818608E-02  0.1098173E+00
         -1   -1    0    0    0  501 -0.00000000000E+00  0.00000000000E+00  0.27380575120E+03  0.27380575120E+03  0.00000000000E+00 0.  1.
          1   -1    0    0  501    0  0.00000000000E+00 -0.00000000000E+00 -0.69301092414E+02  0.69301092414E+02  0.00000000000E+00 0.  1.
         35    2    1    2    0    0  0.00000000000E+00  0.00000000000E+00  0.20450465879E+03  0.34310684362E+03  0.27549981973E+03 0.  0.
         25    1    3    3    0    0 -0.92852078606E+01 -0.66990478606E+02  0.10355753874E+03  0.17233137596E+03  0.12000000000E+03 0.  0.
         25    1    3    3    0    0  0.92852078606E+01  0.66990478606E+02  0.10094712005E+03  0.17077546766E+03  0.12000000000E+03 0.  0.
<mgrwt>
<rscale>  0 0.27549982E+03</rscale>
<asrwt>0</asrwt>
<pdfrwt beam="1">  1        1 0.10661707E-01 0.27549982E+03</pdfrwt>
<pdfrwt beam="2">  1       -1 0.42123961E-01 0.27549982E+03</pdfrwt>
<totfact> 0.32954730E+03</totfact>
</mgrwt>
</event>
<event>
 5    1  0.1107336E+001  0.2761424E+03  0.7818608E-02  0.1097815E+00
          4   -1    0    0  501    0  0.00000000000E+00  0.00000000000E+00  0.11202196598E+03  0.11202196598E+03  0.00000000000E+00 0.  1.
         -4   -1    0    0    0  501 -0.00000000000E+00 -0.00000000000E+00 -0.17017789245E+03  0.17017789245E+03  0.00000000000E+00 0.  1.
         35    2    1    2    0    0  0.00000000000E+00  0.00000000000E+00 -0.58155926478E+02  0.28219985843E+03  0.27614244207E+03 0.  0.
         25    1    3    3    0    0 -0.49769099110E+02  0.10306043485E+02  0.17534907847E+02  0.13149391907E+03  0.12000000000E+03 0.  0.
         25    1    3    3    0    0  0.49769099110E+02 -0.10306043485E+02 -0.75690834325E+02  0.15070593936E+03  0.12000000000E+03 0.  0.
<mgrwt>
<rscale>  0 0.27614244E+03</rscale>
<asrwt>0</asrwt>
<pdfrwt beam="1">  1        4 0.17234149E-01 0.27614244E+03</pdfrwt>
<pdfrwt beam="2">  1       -4 0.26181214E-01 0.27614244E+03</pdfrwt>
<totfact> 0.76039475E+02</totfact>
</mgrwt>
</event>
<event>
 5    1  0.1107336E+001  0.2758938E+03  0.7818608E-02  0.1097953E+00
         -2   -1    0    0    0  501 -0.00000000000E+00  0.00000000000E+00  0.15078986912E+02  0.15078986912E+02  0.00000000000E+00 0.  1.
          2   -1    0    0  501    0  0.00000000000E+00 -0.00000000000E+00 -0.12619775558E+04  0.12619775558E+04  0.00000000000E+00 0.  1.
         35    2    1    2    0    0  0.00000000000E+00  0.00000000000E+00 -0.12468985689E+04  0.12770565427E+04  0.27589376975E+03 0.  0.
         25    1    3    3    0    0  0.46074293844E+02 -0.50059807466E+02 -0.62678128167E+03  0.64178158273E+03  0.12000000000E+03 0.  0.
         25    1    3    3    0    0 -0.46074293844E+02  0.50059807466E+02 -0.62011728719E+03  0.63527495996E+03  0.12000000000E+03 0.  0.
<mgrwt>
<rscale>  0 0.27589377E+03</rscale>
<asrwt>0</asrwt>
<pdfrwt beam="1">  1        2 0.19415031E+00 0.27589377E+03</pdfrwt>
<pdfrwt beam="2">  1       -2 0.23198451E-02 0.27589377E+03</pdfrwt>
<totfact> 0.11431746E+04</totfact>
</mgrwt>
</event>
<event>
 5    1  0.1107336E+001  0.2732971E+03  0.7818608E-02  0.1099407E+00
          1   -1    0    0  501    0  0.00000000000E+00  0.00000000000E+00  0.14787331503E+04  0.14787331503E+04  0.00000000000E+00 0. -1.
         -1   -1    0    0    0  501 -0.00000000000E+00 -0.00000000000E+00 -0.12627579492E+02  0.12627579492E+02  0.00000000000E+00 0. -1.
         35    2    1    2    0    0  0.00000000000E+00  0.00000000000E+00  0.14661055708E+04  0.14913607298E+04  0.27329705745E+03 0.  0.
         25    1    3    3    0    0 -0.25108297441E+02  0.18913547346E+02  0.42030537632E+03  0.43822911615E+03  0.12000000000E+03 0.  0.
         25    1    3    3    0    0  0.25108297441E+02 -0.18913547346E+02  0.10458001945E+04  0.10531316136E+04  0.12000000000E+03 0.  0.
<mgrwt>
<rscale>  0 0.27329706E+03</rscale>
<asrwt>0</asrwt>
<pdfrwt beam="1">  1        1 0.22749727E+00 0.27329706E+03</pdfrwt>
<pdfrwt beam="2">  1       -1 0.19427057E-02 0.27329706E+03</pdfrwt>
<totfact> 0.52892827E+03</totfact>
</mgrwt>
</event>
<event>
 5    1  0.1107336E+001  0.2757262E+03  0.7818608E-02  0.1098046E+00
         -2   -1    0    0    0  501 -0.00000000000E+00  0.00000000000E+00  0.57701418554E+02  0.57701418554E+02  0.00000000000E+00 0.  1.
          2   -1    0    0  501    0  0.00000000000E+00 -0.00000000000E+00 -0.32938934374E+03  0.32938934374E+03  0.00000000000E+00 0.  1.
         35    2    1    2    0    0  0.00000000000E+00  0.00000000000E+00 -0.27168792519E+03  0.38709076230E+03  0.27572618585E+03 0.  0.
         25    1    3    3    0    0  0.25946465366E+02 -0.40127313471E+02 -0.68182430396E+02  0.14605568858E+03  0.12000000000E+03 0.  0.
         25    1    3    3    0    0 -0.25946465366E+02  0.40127313471E+02 -0.20350549479E+03  0.24103507372E+03  0.12000000000E+03 0.  0.
<mgrwt>
<rscale>  0 0.27572619E+03</rscale>
<asrwt>0</asrwt>
<pdfrwt beam="1">  1        2 0.50675284E-01 0.27572619E+03</pdfrwt>
<pdfrwt beam="2">  1       -2 0.88771412E-02 0.27572619E+03</pdfrwt>
<totfact> 0.78660615E+03</totfact>
</mgrwt>
</event>
<event>
 5    1  0.1107336E+001  0.2730800E+03  0.7818608E-02  0.1099530E+00
          2   -1    0    0  501    0  0.00000000000E+00  0.00000000000E+00  0.19927570039E+03  0.19927570039E+03  0.00000000000E+00 0.  1.
         -2   -1    0    0    0  501 -0.00000000000E+00 -0.00000000000E+00 -0.93554687844E+02  0.93554687844E+02  0.00000000000E+00 0.  1.
         35    2    1    2    0    0  0.00000000000E+00  0.00000000000E+00  0.10572101254E+03  0.29283038823E+03  0.27308003182E+03 0.  0.
         25    1    3    3    0    0  0.38704960218E+02  0.34071498826E+02  0.95541644809E+02  0.16182443224E+03  0.12000000000E+03 0.  0.
         25    1    3    3    0    0 -0.38704960218E+02 -0.34071498826E+02  0.10179367736E+02  0.13100595599E+03  0.12000000000E+03 0.  0.
<mgrwt>
<rscale>  0 0.27308003E+03</rscale>
<asrwt>0</asrwt>
<pdfrwt beam="1">  1        2 0.30657800E-01 0.27308003E+03</pdfrwt>
<pdfrwt beam="2">  1       -2 0.14393029E-01 0.27308003E+03</pdfrwt>
<totfact> 0.62272050E+03</totfact>
</mgrwt>
</event>
<event>
 5    1  0.1107336E+001  0.2741765E+03  0.7818608E-02  0.1098913E+00
          2   -1    0    0  501    0  0.00000000000E+00  0.00000000000E+00  0.33150645162E+03  0.33150645162E+03  0.00000000000E+00 0.  1.
         -2   -1    0    0    0  501 -0.00000000000E+00 -0.00000000000E+00 -0.56690252786E+02  0.56690252786E+02  0.00000000000E+00 0.  1.
         35    2    1    2    0    0  0.00000000000E+00  0.00000000000E+00  0.27481619884E+03  0.38819670441E+03  0.27417647268E+03 0.  0.
         25    1    3    3    0    0  0.91238076310E+01 -0.62805725609E+02  0.11034391520E+03  0.17493879689E+03  0.12000000000E+03 0.  0.
         25    1    3    3    0    0 -0.91238076310E+01  0.62805725609E+02  0.16447228364E+03  0.21325790752E+03  0.12000000000E+03 0.  0.
<mgrwt>
<rscale>  0 0.27417647E+03</rscale>
<asrwt>0</asrwt>
<pdfrwt beam="1">  1        2 0.51000992E-01 0.27417647E+03</pdfrwt>
<pdfrwt beam="2">  1       -2 0.87215775E-02 0.27417647E+03</pdfrwt>
<totfact> 0.80305237E+03</totfact>
</mgrwt>
</event>
<event>
 5    1  0.1107336E+001  0.2746743E+03  0.7818608E-02  0.1098634E+00
          1   -1    0    0  501    0  0.00000000000E+00  0.00000000000E+00  0.11938573104E+03  0.11938573104E+03  0.00000000000E+00 0.  1.
         -1   -1    0    0    0  501 -0.00000000000E+00 -0.00000000000E+00 -0.15798783221E+03  0.15798783221E+03  0.00000000000E+00 0.  1.
         35    2    1    2    0    0  0.00000000000E+00  0.00000000000E+00 -0.38602101172E+02  0.27737356325E+03  0.27467430054E+03 0.  0.
         25    1    3    3    0    0  0.11892425461E+02 -0.19513851262E+02 -0.82681462869E+02  0.14750743872E+03  0.12000000000E+03 0.  0.
         25    1    3    3    0    0 -0.11892425461E+02  0.19513851262E+02  0.44079361697E+02  0.12986612454E+03  0.12000000000E+03 0.  0.
<mgrwt>
<rscale>  0 0.27467430E+03</rscale>
<asrwt>0</asrwt>
<pdfrwt beam="1">  1        1 0.18367036E-01 0.27467430E+03</pdfrwt>
<pdfrwt beam="2">  1       -1 0.24305820E-01 0.27467430E+03</pdfrwt>
<totfact> 0.41406946E+03</totfact>
</mgrwt>
</event>
<event>
 5    1  0.1107336E+001  0.2857434E+03  0.7818608E-02  0.1092593E+00
         -2   -1    0    0    0  501 -0.00000000000E+00  0.00000000000E+00  0.24478279835E+02  0.24478279835E+02  0.00000000000E+00 0. -1.
          2   -1    0    0  501    0  0.00000000000E+00 -0.00000000000E+00 -0.83389535998E+03  0.83389535998E+03  0.00000000000E+00 0. -1.
         35    2    1    2    0    0  0.00000000000E+00  0.00000000000E+00 -0.80941708015E+03  0.85837363982E+03  0.28574340919E+03 0.  0.
         25    1    3    3    0    0  0.63602438699E+02  0.41485700480E+02 -0.35759353429E+03  0.38475897561E+03  0.12000000000E+03 0.  0.
         25    1    3    3    0    0 -0.63602438699E+02 -0.41485700480E+02 -0.45182354586E+03  0.47361466420E+03  0.12000000000E+03 0.  0.
<mgrwt>
<rscale>  0 0.28574341E+03</rscale>
<asrwt>0</asrwt>
<pdfrwt beam="1">  1        2 0.12829162E+00 0.28574341E+03</pdfrwt>
<pdfrwt beam="2">  1       -2 0.37658884E-02 0.28574341E+03</pdfrwt>
<totfact> 0.10105733E+04</totfact>
</mgrwt>
</event>
<event>
 4    1  0.1107336E+001  0.2461375E+03  0.7818608E-02  0.1115770E+00
         -1   -1    0    0    0  501 -0.00000000000E+00  0.00000000000E+00  0.91706506225E+01  0.91706506225E+01  0.00000000000E+00 0.  1.
          1   -1    0    0  501    0  0.00000000000E+00 -0.00000000000E+00 -0.16515636924E+04  0.16515636924E+04  0.00000000000E+00 0.  1.
         25    1    1    2    0    0  0.27096712415E+02 -0.10121195625E+01 -0.84322314512E+03  0.85215053170E+03  0.12000000000E+03 0.  0.
         25    1    1    2    0    0 -0.27096712415E+02  0.10121195625E+01 -0.79916989664E+03  0.80858381131E+03  0.12000000000E+03 0.  0.
<mgrwt>
<rscale>  0 0.24613747E+03</rscale>
<asrwt>0</asrwt>
<pdfrwt beam="1">  1        1 0.25408654E+00 0.24613747E+03</pdfrwt>
<pdfrwt beam="2">  1       -1 0.14108703E-02 0.24613747E+03</pdfrwt>
<totfact> 0.64770169E+03</totfact>
</mgrwt>
</event>
<event>
 5    1  0.1107336E+001  0.2758386E+03  0.7818608E-02  0.1097984E+00
         -2   -1    0    0    0  501 -0.00000000000E+00  0.00000000000E+00  0.92530221346E+01  0.92530221346E+01  0.00000000000E+00 0. -1.
          2   -1    0    0  501    0  0.00000000000E+00 -0.00000000000E+00 -0.20557313535E+04  0.20557313535E+04  0.00000000000E+00 0. -1.
         35    2    1    2    0    0  0.00000000000E+00  0.00000000000E+00 -0.20464783313E+04  0.20649843756E+04  0.27583855942E+03 0.  0.
         25    1    3    3    0    0 -0.62075105549E+02 -0.67315571734E+00 -0.81578129303E+03  0.82689351788E+03  0.12000000000E+03 0.  0.
         25    1    3    3    0    0  0.62075105549E+02  0.67315571734E+00 -0.12306970383E+04  0.12380908577E+04  0.12000000000E+03 0.  0.
<mgrwt>
<rscale>  0 0.27583856E+03</rscale>
<asrwt>0</asrwt>
<pdfrwt beam="1">  1        2 0.31626645E+00 0.27583856E+03</pdfrwt>
<pdfrwt beam="2">  1       -2 0.14235415E-02 0.27583856E+03</pdfrwt>
<totfact> 0.88443030E+03</totfact>
</mgrwt>
</event>
<event>
 5    1  0.1107336E+001  0.2755620E+03  0.7818608E-02  0.1098138E+00
          1   -1    0    0  501    0  0.00000000000E+00  0.00000000000E+00  0.16470716871E+04  0.16470716871E+04  0.00000000000E+00 0. -1.
         -1   -1    0    0    0  501 -0.00000000000E+00 -0.00000000000E+00 -0.11525667898E+02  0.11525667898E+02  0.00000000000E+00 0. -1.
         35    2    1    2    0    0  0.00000000000E+00  0.00000000000E+00  0.16355460192E+04  0.16585973550E+04  0.27556198047E+03 0.  0.
         25    1    3    3    0    0 -0.30771304629E+02 -0.19748837410E+02  0.47481296979E+03  0.49110512729E+03  0.12000000000E+03 0.  0.
         25    1    3    3    0    0  0.30771304629E+02  0.19748837410E+02  0.11607330494E+04  0.11674922277E+04  0.12000000000E+03 0.  0.
<mgrwt>
<rscale>  0 0.27556198E+03</rscale>
<asrwt>0</asrwt>
<pdfrwt beam="1">  1        1 0.25339546E+00 0.27556198E+03</pdfrwt>
<pdfrwt beam="2">  1       -1 0.17731810E-02 0.27556198E+03</pdfrwt>
<totfact> 0.46816036E+03</totfact>
</mgrwt>
</event>
<event>
 5    1  0.1107336E+001  0.2751469E+03  0.7818608E-02  0.1098370E+00
          1   -1    0    0  501    0  0.00000000000E+00  0.00000000000E+00  0.78580285632E+02  0.78580285632E+02  0.00000000000E+00 0. -1.
         -1   -1    0    0    0  501 -0.00000000000E+00 -0.00000000000E+00 -0.24085501927E+03  0.24085501927E+03  0.00000000000E+00 0. -1.
         35    2    1    2    0    0  0.00000000000E+00  0.00000000000E+00 -0.16227473364E+03  0.31943530490E+03  0.27514691501E+03 0.  0.
         25    1    3    3    0    0 -0.20161491547E+02  0.56936744060E+02 -0.11554140767E+03  0.17719507739E+03  0.12000000000E+03 0.  0.
         25    1    3    3    0    0  0.20161491547E+02 -0.56936744060E+02 -0.46733325961E+02  0.14224022751E+03  0.12000000000E+03 0.  0.
<mgrwt>
<rscale>  0 0.27514692E+03</rscale>
<asrwt>0</asrwt>
<pdfrwt beam="1">  1        1 0.12089275E-01 0.27514692E+03</pdfrwt>
<pdfrwt beam="2">  1       -1 0.37054618E-01 0.27514692E+03</pdfrwt>
<totfact> 0.34973035E+03</totfact>
</mgrwt>
</event>
<event>
 5    1  0.1107336E+001  0.2754105E+03  0.7818608E-02  0.1098222E+00
          1   -1    0    0  501    0  0.00000000000E+00  0.00000000000E+00  0.14297194568E+04  0.14297194568E+04  0.00000000000E+00 0. -1.
         -1   -1    0    0    0  501 -0.00000000000E+00 -0.00000000000E+00 -0.13263254007E+02  0.13263254007E+02  0.00000000000E+00 0. -1.
         35    2    1    2    0    0  0.00000000000E+00  0.00000000000E+00  0.14164562028E+04  0.14429827108E+04  0.27541047413E+03 0.  0.
         25    1    3    3    0    0  0.21596627367E+02  0.32793687046E+02  0.99619878733E+03  0.10041682449E+04  0.12000000000E+03 0.  0.
         25    1    3    3    0    0 -0.21596627367E+02 -0.32793687046E+02  0.42025741550E+03  0.43881446592E+03  0.12000000000E+03 0.  0.
<mgrwt>
<rscale>  0 0.27541047E+03</rscale>
<asrwt>0</asrwt>
<pdfrwt beam="1">  1        1 0.21995672E+00 0.27541047E+03</pdfrwt>
<pdfrwt beam="2">  1       -1 0.20405017E-02 0.27541047E+03</pdfrwt>
<totfact> 0.53078253E+03</totfact>
</mgrwt>
</event>
<event>
 5    1  0.1107336E+001  0.2663585E+03  0.7818608E-02  0.1103382E+00
         -2   -1    0    0    0  501 -0.00000000000E+00  0.00000000000E+00  0.55943249345E+01  0.55943249345E+01  0.00000000000E+00 0.  1.
          2   -1    0    0  501    0  0.00000000000E+00 -0.00000000000E+00 -0.31704834744E+04  0.31704834744E+04  0.00000000000E+00 0.  1.
         35    2    1    2    0    0  0.00000000000E+00  0.00000000000E+00 -0.31648891495E+04  0.31760777993E+04  0.26635851595E+03 0.  0.
         25    1    3    3    0    0 -0.48290364473E+02 -0.22462502795E+02 -0.13157632121E+04  0.13222969990E+04  0.12000000000E+03 0.  0.
         25    1    3    3    0    0  0.48290364473E+02  0.22462502795E+02 -0.18491259373E+04  0.18537808003E+04  0.12000000000E+03 0.  0.
<mgrwt>
<rscale>  0 0.26635852E+03</rscale>
<asrwt>0</asrwt>
<pdfrwt beam="1">  1        2 0.48776652E+00 0.26635852E+03</pdfrwt>
<pdfrwt beam="2">  1       -2 0.86066568E-03 0.26635852E+03</pdfrwt>
<totfact> 0.43625692E+03</totfact>
</mgrwt>
</event>
<event>
 5    1  0.1107336E+001  0.2777441E+03  0.7818608E-02  0.1096927E+00
         -1   -1    0    0    0  501 -0.00000000000E+00  0.00000000000E+00  0.29136094187E+02  0.29136094187E+02  0.00000000000E+00 0. -1.
          1   -1    0    0  501    0  0.00000000000E+00 -0.00000000000E+00 -0.66190929597E+03  0.66190929597E+03  0.00000000000E+00 0. -1.
         35    2    1    2    0    0  0.00000000000E+00  0.00000000000E+00 -0.63277320179E+03  0.69104539016E+03  0.27774413830E+03 0.  0.
         25    1    3    3    0    0 -0.61748053797E+02  0.32729097633E+02 -0.31936772493E+03  0.34825243675E+03  0.12000000000E+03 0.  0.
         25    1    3    3    0    0  0.61748053797E+02 -0.32729097633E+02 -0.31340547686E+03  0.34279295341E+03  0.12000000000E+03 0.  0.
<mgrwt>
<rscale>  0 0.27774414E+03</rscale>
<asrwt>0</asrwt>
<pdfrwt beam="1">  1        1 0.10183219E+00 0.27774414E+03</pdfrwt>
<pdfrwt beam="2">  1       -1 0.44824763E-02 0.27774414E+03</pdfrwt>
<totfact> 0.63263564E+03</totfact>
</mgrwt>
</event>
<event>
 5    1  0.1107336E+001  0.2762480E+03  0.7818608E-02  0.1097756E+00
          3   -1    0    0  501    0  0.00000000000E+00  0.00000000000E+00  0.83509001235E+02  0.83509001235E+02  0.00000000000E+00 0.  1.
         -3   -1    0    0    0  501 -0.00000000000E+00 -0.00000000000E+00 -0.22845729110E+03  0.22845729110E+03  0.00000000000E+00 0.  1.
         35    2    1    2    0    0  0.00000000000E+00  0.00000000000E+00 -0.14494828986E+03  0.31196629233E+03  0.27624800600E+03 0.  0.
         25    1    3    3    0    0  0.83329365265E+01 -0.52149595362E+02 -0.12155928397E+03  0.17878947857E+03  0.12000000000E+03 0.  0.
         25    1    3    3    0    0 -0.83329365265E+01  0.52149595362E+02 -0.23389005893E+02  0.13317681376E+03  0.12000000000E+03 0.  0.
<mgrwt>
<rscale>  0 0.27624801E+03</rscale>
<asrwt>0</asrwt>
<pdfrwt beam="1">  1        3 0.12847539E-01 0.27624801E+03</pdfrwt>
<pdfrwt beam="2">  1       -3 0.35147276E-01 0.27624801E+03</pdfrwt>
<totfact> 0.98067395E+02</totfact>
</mgrwt>
</event>
<event>
 5    1  0.1107336E+001  0.2755883E+03  0.7818608E-02  0.1098123E+00
          2   -1    0    0  501    0  0.00000000000E+00  0.00000000000E+00  0.49664731778E+03  0.49664731778E+03  0.00000000000E+00 0. -1.
         -2   -1    0    0    0  501 -0.00000000000E+00 -0.00000000000E+00 -0.38230818744E+02  0.38230818744E+02  0.00000000000E+00 0. -1.
         35    2    1    2    0    0  0.00000000000E+00  0.00000000000E+00  0.45841649904E+03  0.53487813653E+03  0.27558834218E+03 0.  0.
         25    1    3    3    0    0  0.62001398196E+02 -0.26018681908E+02  0.24498641915E+03  0.28096172471E+03  0.12000000000E+03 0.  0.
         25    1    3    3    0    0 -0.62001398196E+02  0.26018681908E+02  0.21343007989E+03  0.25391641181E+03  0.12000000000E+03 0.  0.
<mgrwt>
<rscale>  0 0.27558834E+03</rscale>
<asrwt>0</asrwt>
<pdfrwt beam="1">  1        2 0.76407275E-01 0.27558834E+03</pdfrwt>
<pdfrwt beam="2">  1       -2 0.58816648E-02 0.27558834E+03</pdfrwt>
<totfact> 0.95193284E+03</totfact>
</mgrwt>
</event>
<event>
 5    1  0.1107336E+001  0.2763048E+03  0.7818608E-02  0.1097724E+00
          1   -1    0    0  501    0  0.00000000000E+00  0.00000000000E+00  0.35128857394E+03  0.35128857394E+03  0.00000000000E+00 0. -1.
         -1   -1    0    0    0  501 -0.00000000000E+00 -0.00000000000E+00 -0.54331656364E+02  0.54331656364E+02  0.00000000000E+00 0. -1.
         35    2    1    2    0    0  0.00000000000E+00  0.00000000000E+00  0.29695691758E+03  0.40562023030E+03  0.27630483227E+03 0.  0.
         25    1    3    3    0    0  0.38581888220E+02 -0.10574000879E+02  0.23002570098E+03  0.26251132301E+03  0.12000000000E+03 0.  0.
         25    1    3    3    0    0 -0.38581888220E+02  0.10574000879E+02  0.66931216591E+02  0.14310890730E+03  0.12000000000E+03 0.  0.
<mgrwt>
<rscale>  0 0.27630483E+03</rscale>
<asrwt>0</asrwt>
<pdfrwt beam="1">  1        1 0.54044394E-01 0.27630483E+03</pdfrwt>
<pdfrwt beam="2">  1       -1 0.83587166E-02 0.27630483E+03</pdfrwt>
<totfact> 0.57301821E+03</totfact>
</mgrwt>
</event>
<event>
 5    1  0.1107336E+001  0.2751648E+03  0.7818608E-02  0.1098360E+00
          2   -1    0    0  501    0  0.00000000000E+00  0.00000000000E+00  0.27335127191E+03  0.27335127191E+03  0.00000000000E+00 0.  1.
         -2   -1    0    0    0  501 -0.00000000000E+00 -0.00000000000E+00 -0.69247574348E+02  0.69247574348E+02  0.00000000000E+00 0.  1.
         35    2    1    2    0    0  0.00000000000E+00  0.00000000000E+00  0.20410369756E+03  0.34259884625E+03  0.27516476900E+03 0.  0.
         25    1    3    3    0    0  0.53571040107E+02 -0.36747264576E+02  0.12392733313E+03  0.18433177070E+03  0.12000000000E+03 0.  0.
         25    1    3    3    0    0 -0.53571040107E+02  0.36747264576E+02  0.80176364426E+02  0.15826707555E+03  0.12000000000E+03 0.  0.
<mgrwt>
<rscale>  0 0.27516477E+03</rscale>
<asrwt>0</asrwt>
<pdfrwt beam="1">  1        2 0.42054041E-01 0.27516477E+03</pdfrwt>
<pdfrwt beam="2">  1       -2 0.10653473E-01 0.27516477E+03</pdfrwt>
<totfact> 0.71980287E+03</totfact>
</mgrwt>
</event>
<event>
 5    1  0.1107336E+001  0.2743269E+03  0.7818608E-02  0.1098828E+00
         -2   -1    0    0    0  501 -0.00000000000E+00  0.00000000000E+00  0.20590822121E+02  0.20590822121E+02  0.00000000000E+00 0.  1.
          2   -1    0    0  501    0  0.00000000000E+00 -0.00000000000E+00 -0.91369910334E+03  0.91369910334E+03  0.00000000000E+00 0.  1.
         35    2    1    2    0    0  0.00000000000E+00  0.00000000000E+00 -0.89310828121E+03  0.93428992546E+03  0.27432692693E+03 0.  0.
         25    1    3    3    0    0 -0.62585523444E+02  0.21703448860E+02 -0.42924558202E+03  0.45059933102E+03  0.12000000000E+03 0.  0.
         25    1    3    3    0    0  0.62585523444E+02 -0.21703448860E+02 -0.46386269920E+03  0.48369059443E+03  0.12000000000E+03 0.  0.
<mgrwt>
<rscale>  0 0.27432693E+03</rscale>
<asrwt>0</asrwt>
<pdfrwt beam="1">  1        2 0.14056907E+00 0.27432693E+03</pdfrwt>
<pdfrwt beam="2">  1       -2 0.31678193E-02 0.27432693E+03</pdfrwt>
<totfact> 0.11586097E+04</totfact>
</mgrwt>
</event>
<event>
 5    1  0.1107336E+001  0.2766674E+03  0.7818608E-02  0.1097523E+00
          1   -1    0    0  501    0  0.00000000000E+00  0.00000000000E+00  0.39564317452E+02  0.39564317452E+02  0.00000000000E+00 0. -1.
         -1   -1    0    0    0  501 -0.00000000000E+00 -0.00000000000E+00 -0.48367339206E+03  0.48367339206E+03  0.00000000000E+00 0. -1.
         35    2    1    2    0    0  0.00000000000E+00  0.00000000000E+00 -0.44410907461E+03  0.52323770951E+03  0.27666736437E+03 0.  0.
         25    1    3    3    0    0 -0.41858686924E+02  0.54311274375E+02 -0.21097139409E+03  0.25221180250E+03  0.12000000000E+03 0.  0.
         25    1    3    3    0    0  0.41858686924E+02 -0.54311274375E+02 -0.23313768051E+03  0.27102590701E+03  0.12000000000E+03 0.  0.
<mgrwt>
<rscale>  0 0.27666736E+03</rscale>
<asrwt>0</asrwt>
<pdfrwt beam="1">  1        1 0.60868182E-02 0.27666736E+03</pdfrwt>
<pdfrwt beam="2">  1       -1 0.74411289E-01 0.27666736E+03</pdfrwt>
<totfact> 0.23948844E+03</totfact>
</mgrwt>
</event>
<event>
 5    1  0.1107336E+001  0.2748320E+03  0.7818608E-02  0.1098546E+00
          2   -1    0    0  501    0  0.00000000000E+00  0.00000000000E+00  0.14319734742E+03  0.14319734742E+03  0.00000000000E+00 0.  1.
         -2   -1    0    0    0  501 -0.00000000000E+00 -0.00000000000E+00 -0.13186804279E+03  0.13186804279E+03  0.00000000000E+00 0.  1.
         35    2    1    2    0    0  0.00000000000E+00  0.00000000000E+00  0.11329304632E+02  0.27506539021E+03  0.27483197730E+03 0.  0.
         25    1    3    3    0    0 -0.39471480592E+02 -0.16005703459E+02 -0.46041333998E+02  0.13540304561E+03  0.12000000000E+03 0.  0.
         25    1    3    3    0    0  0.39471480592E+02  0.16005703459E+02  0.57370638630E+02  0.13966234460E+03  0.12000000000E+03 0.  0.
<mgrwt>
<rscale>  0 0.27483198E+03</rscale>
<asrwt>0</asrwt>
<pdfrwt beam="1">  1        2 0.22030361E-01 0.27483198E+03</pdfrwt>
<pdfrwt beam="2">  1       -2 0.20287391E-01 0.27483198E+03</pdfrwt>
<totfact> 0.50592411E+03</totfact>
</mgrwt>
</event>
<event>
 5    1  0.1107336E+001  0.2762759E+03  0.7818608E-02  0.1097741E+00
          2   -1    0    0  501    0  0.00000000000E+00  0.00000000000E+00  0.22113202660E+03  0.22113202660E+03  0.00000000000E+00 0.  1.
         -2   -1    0    0    0  501 -0.00000000000E+00 -0.00000000000E+00 -0.86292781879E+02  0.86292781879E+02  0.00000000000E+00 0.  1.
         35    2    1    2    0    0  0.00000000000E+00  0.00000000000E+00  0.13483924472E+03  0.30742480847E+03  0.27627593263E+03 0.  0.
         25    1    3    3    0    0  0.45344581627E+02 -0.48648585917E+02  0.49501940296E+02  0.14585355014E+03  0.12000000000E+03 0.  0.
         25    1    3    3    0    0 -0.45344581627E+02  0.48648585917E+02  0.85337304421E+02  0.16157125834E+03  0.12000000000E+03 0.  0.
<mgrwt>
<rscale>  0 0.27627593E+03</rscale>
<asrwt>0</asrwt>
<pdfrwt beam="1">  1        2 0.34020312E-01 0.27627593E+03</pdfrwt>
<pdfrwt beam="2">  1       -2 0.13275813E-01 0.27627593E+03</pdfrwt>
<totfact> 0.63478291E+03</totfact>
</mgrwt>
</event>
<event>
 5    1  0.1107336E+001  0.2756261E+03  0.7818608E-02  0.1098102E+00
         -1   -1    0    0    0  501 -0.00000000000E+00  0.00000000000E+00  0.16542753958E+03  0.16542753958E+03  0.00000000000E+00 0. -1.
          1   -1    0    0  501    0  0.00000000000E+00 -0.00000000000E+00 -0.11480821385E+03  0.11480821385E+03  0.00000000000E+00 0. -1.
         35    2    1    2    0    0  0.00000000000E+00  0.00000000000E+00  0.50619325727E+02  0.28023575343E+03  0.27562612606E+03 0.  0.
         25    1    3    3    0    0  0.50996253744E+01 -0.24718991594E+02  0.89253497246E+02  0.15166812946E+03  0.12000000000E+03 0.  0.
         25    1    3    3    0    0 -0.50996253744E+01  0.24718991594E+02 -0.38634171519E+02  0.12856762397E+03  0.12000000000E+03 0.  0.
<mgrwt>
<rscale>  0 0.27562613E+03</rscale>
<asrwt>0</asrwt>
<pdfrwt beam="1">  1        1 0.17662802E-01 0.27562613E+03</pdfrwt>
<pdfrwt beam="2">  1       -1 0.25450391E-01 0.27562613E+03</pdfrwt>
<totfact> 0.40357538E+03</totfact>
</mgrwt>
</event>
<event>
 5    1  0.1107336E+001  0.2757754E+03  0.7818608E-02  0.1098019E+00
          4   -1    0    0  501    0  0.00000000000E+00  0.00000000000E+00  0.24146439457E+03  0.24146439457E+03  0.00000000000E+00 0.  1.
         -4   -1    0    0    0  501 -0.00000000000E+00 -0.00000000000E+00 -0.78740462697E+02  0.78740462697E+02  0.00000000000E+00 0.  1.
         35    2    1    2    0    0  0.00000000000E+00  0.00000000000E+00  0.16272393188E+03  0.32020485727E+03  0.27577540248E+03 0.  0.
         25    1    3    3    0    0  0.15615656118E+02  0.22426493936E+02  0.15355840402E+03  0.19679171677E+03  0.12000000000E+03 0.  0.
         25    1    3    3    0    0 -0.15615656118E+02 -0.22426493936E+02  0.91655278599E+01  0.12341314050E+03  0.12000000000E+03 0.  0.
<mgrwt>
<rscale>  0 0.27577540E+03</rscale>
<asrwt>0</asrwt>
<pdfrwt beam="1">  1        4 0.37148368E-01 0.27577540E+03</pdfrwt>
<pdfrwt beam="2">  1       -4 0.12113917E-01 0.27577540E+03</pdfrwt>
<totfact> 0.72164915E+02</totfact>
</mgrwt>
</event>
<event>
 5    1  0.1107336E+001  0.2730352E+03  0.7818608E-02  0.1099555E+00
          2   -1    0    0  501    0  0.00000000000E+00  0.00000000000E+00  0.11481315264E+03  0.11481315264E+03  0.00000000000E+00 0.  1.
         -2   -1    0    0    0  501 -0.00000000000E+00 -0.00000000000E+00 -0.16232506775E+03  0.16232506775E+03  0.00000000000E+00 0.  1.
         35    2    1    2    0    0  0.00000000000E+00  0.00000000000E+00 -0.47511915109E+02  0.27713822039E+03  0.27303518294E+03 0.  0.
         25    1    3    3    0    0 -0.44711270655E+02  0.46050997369E+02 -0.12764531336E+02  0.13668476631E+03  0.12000000000E+03 0.  0.
         25    1    3    3    0    0  0.44711270655E+02 -0.46050997369E+02 -0.34747383773E+02  0.14045345407E+03  0.12000000000E+03 0.  0.
<mgrwt>
<rscale>  0 0.27303518E+03</rscale>
<asrwt>0</asrwt>
<pdfrwt beam="1">  1        2 0.17663562E-01 0.27303518E+03</pdfrwt>
<pdfrwt beam="2">  1       -2 0.24973087E-01 0.27303518E+03</pdfrwt>
<totfact> 0.45412230E+03</totfact>
</mgrwt>
</event>
<event>
 5    1  0.1107336E+001  0.2760356E+03  0.7818608E-02  0.1097874E+00
         -2   -1    0    0    0  501 -0.00000000000E+00  0.00000000000E+00  0.13058703556E+02  0.13058703556E+02  0.00000000000E+00 0.  1.
          2   -1    0    0  501    0  0.00000000000E+00 -0.00000000000E+00 -0.14587138358E+04  0.14587138358E+04  0.00000000000E+00 0.  1.
         35    2    1    2    0    0  0.00000000000E+00  0.00000000000E+00 -0.14456551323E+04  0.14717725394E+04  0.27603558869E+03 0.  0.
         25    1    3    3    0    0 -0.25707099726E+02 -0.34026096520E+01 -0.10590486581E+04  0.10661409349E+04  0.12000000000E+03 0.  0.
         25    1    3    3    0    0  0.25707099726E+02  0.34026096520E+01 -0.38660647415E+03  0.40563160452E+03  0.12000000000E+03 0.  0.
<mgrwt>
<rscale>  0 0.27603559E+03</rscale>
<asrwt>0</asrwt>
<pdfrwt beam="1">  1        2 0.22441742E+00 0.27603559E+03</pdfrwt>
<pdfrwt beam="2">  1       -2 0.20090321E-02 0.27603559E+03</pdfrwt>
<totfact> 0.11028094E+04</totfact>
</mgrwt>
</event>
<event>
 5    1  0.1107336E+001  0.2768450E+03  0.7818608E-02  0.1097425E+00
          2   -1    0    0  501    0  0.00000000000E+00  0.00000000000E+00  0.12948860102E+04  0.12948860102E+04  0.00000000000E+00 0.  1.
         -2   -1    0    0    0  501 -0.00000000000E+00 -0.00000000000E+00 -0.14797278814E+02  0.14797278814E+02  0.00000000000E+00 0.  1.
         35    2    1    2    0    0  0.00000000000E+00  0.00000000000E+00  0.12800887314E+04  0.13096832890E+04  0.27684500592E+03 0.  0.
         25    1    3    3    0    0  0.34520174657E+02  0.27071901929E+02  0.89198750444E+03  0.90109169256E+03  0.12000000000E+03 0.  0.
         25    1    3    3    0    0 -0.34520174657E+02 -0.27071901929E+02  0.38810122696E+03  0.40859159646E+03  0.12000000000E+03 0.  0.
<mgrwt>
<rscale>  0 0.27684501E+03</rscale>
<asrwt>0</asrwt>
<pdfrwt beam="1">  1        2 0.19921314E+00 0.27684501E+03</pdfrwt>
<pdfrwt beam="2">  1       -2 0.22765054E-02 0.27684501E+03</pdfrwt>
<totfact> 0.11270024E+04</totfact>
</mgrwt>
</event>
<event>
 5    1  0.1107336E+001  0.2751419E+03  0.7818608E-02  0.1098372E+00
         -2   -1    0    0    0  501 -0.00000000000E+00  0.00000000000E+00  0.18679756755E+03  0.18679756755E+03  0.00000000000E+00 0.  1.
          2   -1    0    0  501    0  0.00000000000E+00 -0.00000000000E+00 -0.10131696005E+03  0.10131696005E+03  0.00000000000E+00 0.  1.
         35    2    1    2    0    0  0.00000000000E+00  0.00000000000E+00  0.85480607501E+02  0.28811452760E+03  0.27514186659E+03 0.  0.
         25    1    3    3    0    0 -0.15861904190E+01  0.55703774867E+02  0.82204557604E+02  0.15576590071E+03  0.12000000000E+03 0.  0.
         25    1    3    3    0    0  0.15861904190E+01 -0.55703774867E+02  0.32760498971E+01  0.13234862688E+03  0.12000000000E+03 0.  0.
<mgrwt>
<rscale>  0 0.27514187E+03</rscale>
<asrwt>0</asrwt>
<pdfrwt beam="1">  1        2 0.15587225E-01 0.27514187E+03</pdfrwt>
<pdfrwt beam="2">  1       -2 0.28738087E-01 0.27514187E+03</pdfrwt>
<totfact> 0.40938812E+03</totfact>
</mgrwt>
</event>
<event>
 5    1  0.1107336E+001  0.2750336E+03  0.7818608E-02  0.1098433E+00
         -4   -1    0    0    0  501 -0.00000000000E+00  0.00000000000E+00  0.64496610971E+02  0.64496610971E+02  0.00000000000E+00 0.  1.
          4   -1    0    0  501    0  0.00000000000E+00 -0.00000000000E+00 -0.29320726889E+03  0.29320726889E+03  0.00000000000E+00 0.  1.
         35    2    1    2    0    0  0.00000000000E+00  0.00000000000E+00 -0.22871065792E+03  0.35770387986E+03  0.27503363544E+03 0.  0.
         25    1    3    3    0    0  0.58835694855E+02  0.20823631224E+02 -0.82085878211E+02  0.15821932249E+03  0.12000000000E+03 0.  0.
         25    1    3    3    0    0 -0.58835694855E+02 -0.20823631224E+02 -0.14662477971E+03  0.19948455738E+03  0.12000000000E+03 0.  0.
<mgrwt>
<rscale>  0 0.27503364E+03</rscale>
<asrwt>0</asrwt>
<pdfrwt beam="1">  1        4 0.45108811E-01 0.27503364E+03</pdfrwt>
<pdfrwt beam="2">  1       -4 0.99225556E-02 0.27503364E+03</pdfrwt>
<totfact> 0.68938752E+02</totfact>
</mgrwt>
</event>
<event>
 5    1  0.1107336E+001  0.2796828E+03  0.7818608E-02  0.1095862E+00
         -3   -1    0    0    0  501 -0.00000000000E+00  0.00000000000E+00  0.11557539163E+03  0.11557539163E+03  0.00000000000E+00 0. -1.
          3   -1    0    0  501    0  0.00000000000E+00 -0.00000000000E+00 -0.16920226946E+03  0.16920226946E+03  0.00000000000E+00 0. -1.
         35    2    1    2    0    0  0.00000000000E+00  0.00000000000E+00 -0.53626877829E+02  0.28477766108E+03  0.27968281003E+03 0.  0.
         25    1    3    3    0    0 -0.53853656131E+02  0.20319397532E+02  0.16893134956E+02  0.13415838477E+03  0.12000000000E+03 0.  0.
         25    1    3    3    0    0  0.53853656131E+02 -0.20319397532E+02 -0.70520012784E+02  0.15061927632E+03  0.12000000000E+03 0.  0.
<mgrwt>
<rscale>  0 0.27968281E+03</rscale>
<asrwt>0</asrwt>
<pdfrwt beam="1">  1        3 0.26031118E-01 0.27968281E+03</pdfrwt>
<pdfrwt beam="2">  1       -3 0.17780830E-01 0.27968281E+03</pdfrwt>
<totfact> 0.98188643E+02</totfact>
</mgrwt>
</event>
<event>
 5    1  0.1107336E+001  0.2731703E+03  0.7818608E-02  0.1099479E+00
         -2   -1    0    0    0  501 -0.00000000000E+00  0.00000000000E+00  0.35259849083E+02  0.35259849083E+02  0.00000000000E+00 0. -1.
          2   -1    0    0  501    0  0.00000000000E+00 -0.00000000000E+00 -0.52908649545E+03  0.52908649545E+03  0.00000000000E+00 0. -1.
         35    2    1    2    0    0  0.00000000000E+00  0.00000000000E+00 -0.49382664637E+03  0.56434634453E+03  0.27317034965E+03 0.  0.
         25    1    3    3    0    0  0.49801416145E+01 -0.63252594942E+02 -0.21559463123E+03  0.25476800740E+03  0.12000000000E+03 0.  0.
         25    1    3    3    0    0 -0.49801416145E+01  0.63252594942E+02 -0.27823201514E+03  0.30957833714E+03  0.12000000000E+03 0.  0.
<mgrwt>
<rscale>  0 0.27317035E+03</rscale>
<asrwt>0</asrwt>
<pdfrwt beam="1">  1        2 0.81397926E-01 0.27317035E+03</pdfrwt>
<pdfrwt beam="2">  1       -2 0.54245919E-02 0.27317035E+03</pdfrwt>
<totfact> 0.10029978E+04</totfact>
</mgrwt>
</event>
<event>
 5    1  0.1107336E+001  0.2767305E+03  0.7818608E-02  0.1097488E+00
          2   -1    0    0  501    0  0.00000000000E+00  0.00000000000E+00  0.37236263444E+03  0.37236263444E+03  0.00000000000E+00 0.  1.
         -2   -1    0    0    0  501 -0.00000000000E+00 -0.00000000000E+00 -0.51414781156E+02  0.51414781156E+02  0.00000000000E+00 0.  1.
         35    2    1    2    0    0  0.00000000000E+00  0.00000000000E+00  0.32094785329E+03  0.42377741560E+03  0.27673050689E+03 0.  0.
         25    1    3    3    0    0 -0.68248285201E+01 -0.52792334537E+02  0.93524152243E+02  0.16118429180E+03  0.12000000000E+03 0.  0.
         25    1    3    3    0    0  0.68248285201E+01  0.52792334537E+02  0.22742370104E+03  0.26259312380E+03  0.12000000000E+03 0.  0.
<mgrwt>
<rscale>  0 0.27673051E+03</rscale>
<asrwt>0</asrwt>
<pdfrwt beam="1">  1        2 0.57286557E-01 0.27673051E+03</pdfrwt>
<pdfrwt beam="2">  1       -2 0.79099666E-02 0.27673051E+03</pdfrwt>
<totfact> 0.82574914E+03</totfact>
</mgrwt>
</event>
<event>
 5    1  0.1107336E+001  0.2751305E+03  0.7818608E-02  0.1098379E+00
          3   -1    0    0  501    0  0.00000000000E+00  0.00000000000E+00  0.19394924036E+02  0.19394924036E+02  0.00000000000E+00 0.  1.
         -3   -1    0    0    0  501 -0.00000000000E+00 -0.00000000000E+00 -0.97572938737E+03  0.97572938737E+03  0.00000000000E+00 0.  1.
         35    2    1    2    0    0  0.00000000000E+00  0.00000000000E+00 -0.95633446333E+03  0.99512431140E+03  0.27513049520E+03 0.  0.
         25    1    3    3    0    0 -0.23151837628E+02  0.41166103903E+02 -0.65138479391E+03  0.66402771435E+03  0.12000000000E+03 0.  0.
         25    1    3    3    0    0  0.23151837628E+02 -0.41166103903E+02 -0.30494966942E+03  0.33109659705E+03  0.12000000000E+03 0.  0.
<mgrwt>
<rscale>  0 0.27513050E+03</rscale>
<asrwt>0</asrwt>
<pdfrwt beam="1">  1        3 0.29838350E-02 0.27513050E+03</pdfrwt>
<pdfrwt beam="2">  1       -3 0.15011218E+00 0.27513050E+03</pdfrwt>
<totfact> 0.44460903E+02</totfact>
</mgrwt>
</event>
<event>
 5    1  0.1107336E+001  0.2748029E+03  0.7818608E-02  0.1098562E+00
          1   -1    0    0  501    0  0.00000000000E+00  0.00000000000E+00  0.67311897557E+03  0.67311897557E+03  0.00000000000E+00 0. -1.
         -1   -1    0    0    0  501 -0.00000000000E+00 -0.00000000000E+00 -0.28047290246E+02  0.28047290246E+02  0.00000000000E+00 0. -1.
         35    2    1    2    0    0  0.00000000000E+00  0.00000000000E+00  0.64507168532E+03  0.70116626581E+03  0.27480293505E+03 0.  0.
         25    1    3    3    0    0 -0.31634938315E+02  0.57499349812E+02  0.35602003540E+03  0.38138852914E+03  0.12000000000E+03 0.  0.
         25    1    3    3    0    0  0.31634938315E+02 -0.57499349812E+02  0.28905164992E+03  0.31977773667E+03  0.12000000000E+03 0.  0.
<mgrwt>
<rscale>  0 0.27480294E+03</rscale>
<asrwt>0</asrwt>
<pdfrwt beam="1">  1        1 0.10355675E+00 0.27480294E+03</pdfrwt>
<pdfrwt beam="2">  1       -1 0.43149682E-02 0.27480294E+03</pdfrwt>
<totfact> 0.65347602E+03</totfact>
</mgrwt>
</event>
<event>
 5    1  0.1107336E+001  0.2730247E+03  0.7818608E-02  0.1099561E+00
         -1   -1    0    0    0  501 -0.00000000000E+00  0.00000000000E+00  0.30113832600E+02  0.30113832600E+02  0.00000000000E+00 0.  1.
          1   -1    0    0  501    0  0.00000000000E+00 -0.00000000000E+00 -0.61883936906E+03  0.61883936906E+03  0.00000000000E+00 0.  1.
         35    2    1    2    0    0  0.00000000000E+00  0.00000000000E+00 -0.58872553646E+03  0.64895320166E+03  0.27302472537E+03 0.  0.
         25    1    3    3    0    0 -0.12143127401E+02  0.63636172657E+02 -0.30913157092E+03  0.33787474921E+03  0.12000000000E+03 0.  0.
         25    1    3    3    0    0  0.12143127401E+02 -0.63636172657E+02 -0.27959396554E+03  0.31107845245E+03  0.12000000000E+03 0.  0.
<mgrwt>
<rscale>  0 0.27302473E+03</rscale>
<asrwt>0</asrwt>
<pdfrwt beam="1">  1        1 0.95206053E-01 0.27302473E+03</pdfrwt>
<pdfrwt beam="2">  1       -1 0.46328975E-02 0.27302473E+03</pdfrwt>
<totfact> 0.66208935E+03</totfact>
</mgrwt>
</event>
<event>
 5    1  0.1107336E+001  0.2770042E+03  0.7818608E-02  0.1097337E+00
          1   -1    0    0  501    0  0.00000000000E+00  0.00000000000E+00  0.18515158905E+03  0.18515158905E+03  0.00000000000E+00 0. -1.
         -1   -1    0    0    0  501 -0.00000000000E+00 -0.00000000000E+00 -0.10360610828E+03  0.10360610828E+03  0.00000000000E+00 0. -1.
         35    2    1    2    0    0  0.00000000000E+00  0.00000000000E+00  0.81545480771E+02  0.28875769734E+03  0.27700422802E+03 0.  0.
         25    1    3    3    0    0  0.37292252132E+02  0.24001550853E+02  0.96090843724E+02  0.16000073987E+03  0.12000000000E+03 0.  0.
         25    1    3    3    0    0 -0.37292252132E+02 -0.24001550853E+02 -0.14545362953E+02  0.12875695747E+03  0.12000000000E+03 0.  0.
<mgrwt>
<rscale>  0 0.27700423E+03</rscale>
<asrwt>0</asrwt>
<pdfrwt beam="1">  1        1 0.28484860E-01 0.27700423E+03</pdfrwt>
<pdfrwt beam="2">  1       -1 0.15939401E-01 0.27700423E+03</pdfrwt>
<totfact> 0.46884028E+03</totfact>
</mgrwt>
</event>
<event>
 5    1  0.1107336E+001  0.2757068E+03  0.7818608E-02  0.1098057E+00
          2   -1    0    0  501    0  0.00000000000E+00  0.00000000000E+00  0.33220746002E+03  0.33220746002E+03  0.00000000000E+00 0.  1.
         -2   -1    0    0    0  501 -0.00000000000E+00 -0.00000000000E+00 -0.57203897567E+02  0.57203897567E+02  0.00000000000E+00 0.  1.
         35    2    1    2    0    0  0.00000000000E+00  0.00000000000E+00  0.27500356246E+03  0.38941135759E+03  0.27570681177E+03 0.  0.
         25    1    3    3    0    0 -0.45128080413E+01  0.45378299664E+01  0.42097576711E+02  0.12733092045E+03  0.12000000000E+03 0.  0.
         25    1    3    3    0    0  0.45128080413E+01 -0.45378299664E+01  0.23290598574E+03  0.26208043714E+03  0.12000000000E+03 0.  0.
<mgrwt>
<rscale>  0 0.27570681E+03</rscale>
<asrwt>0</asrwt>
<pdfrwt beam="1">  1        2 0.51108839E-01 0.27570681E+03</pdfrwt>
<pdfrwt beam="2">  1       -2 0.88005998E-02 0.27570681E+03</pdfrwt>
<totfact> 0.79011248E+03</totfact>
</mgrwt>
</event>
<event>
 5    1  0.1107336E+001  0.2748178E+03  0.7818608E-02  0.1098554E+00
         -1   -1    0    0    0  501 -0.00000000000E+00  0.00000000000E+00  0.10511720505E+02  0.10511720505E+02  0.00000000000E+00 0. -1.
          1   -1    0    0  501    0  0.00000000000E+00 -0.00000000000E+00 -0.17962045605E+04  0.17962045605E+04  0.00000000000E+00 0. -1.
         35    2    1    2    0    0  0.00000000000E+00  0.00000000000E+00 -0.17856928400E+04  0.18067162810E+04  0.27481776006E+03 0.  0.
         25    1    3    3    0    0 -0.20691091114E+02  0.58420451004E+02 -0.10591797342E+04  0.10677559551E+04  0.12000000000E+03 0.  0.
         25    1    3    3    0    0  0.20691091114E+02 -0.58420451004E+02 -0.72651310583E+03  0.73896032593E+03  0.12000000000E+03 0.  0.
<mgrwt>
<rscale>  0 0.27481776E+03</rscale>
<asrwt>0</asrwt>
<pdfrwt beam="1">  1        1 0.27633876E+00 0.27481776E+03</pdfrwt>
<pdfrwt beam="2">  1       -1 0.16171901E-02 0.27481776E+03</pdfrwt>
<totfact> 0.42802435E+03</totfact>
</mgrwt>
</event>
<event>
 5    1  0.1107336E+001  0.2745289E+03  0.7818608E-02  0.1098715E+00
          1   -1    0    0  501    0  0.00000000000E+00  0.00000000000E+00  0.39052088230E+03  0.39052088230E+03  0.00000000000E+00 0.  1.
         -1   -1    0    0    0  501 -0.00000000000E+00 -0.00000000000E+00 -0.48247187044E+02  0.48247187044E+02  0.00000000000E+00 0.  1.
         35    2    1    2    0    0  0.00000000000E+00  0.00000000000E+00  0.34227369526E+03  0.43876806935E+03  0.27452893511E+03 0.  0.
         25    1    3    3    0    0 -0.52021152802E+02 -0.40060936439E+02  0.15288203427E+03  0.20514384068E+03  0.12000000000E+03 0.  0.
         25    1    3    3    0    0  0.52021152802E+02  0.40060936439E+02  0.18939166099E+03  0.23362422866E+03  0.12000000000E+03 0.  0.
<mgrwt>
<rscale>  0 0.27452894E+03</rscale>
<asrwt>0</asrwt>
<pdfrwt beam="1">  1        1 0.60080134E-01 0.27452894E+03</pdfrwt>
<pdfrwt beam="2">  1       -1 0.74226444E-02 0.27452894E+03</pdfrwt>
<totfact> 0.60013094E+03</totfact>
</mgrwt>
</event>
<event>
 5    1  0.1107336E+001  0.2752079E+03  0.7818608E-02  0.1098335E+00
          1   -1    0    0  501    0  0.00000000000E+00  0.00000000000E+00  0.23737363468E+03  0.23737363468E+03  0.00000000000E+00 0.  1.
         -1   -1    0    0    0  501 -0.00000000000E+00 -0.00000000000E+00 -0.79768131811E+02  0.79768131811E+02  0.00000000000E+00 0.  1.
         35    2    1    2    0    0  0.00000000000E+00  0.00000000000E+00  0.15760550287E+03  0.31714176649E+03  0.27520793142E+03 0.  0.
         25    1    3    3    0    0 -0.47974167432E+02  0.39720658424E+02  0.10830886062E+03  0.17323412116E+03  0.12000000000E+03 0.  0.
         25    1    3    3    0    0  0.47974167432E+02 -0.39720658424E+02  0.49296642250E+02  0.14390764533E+03  0.12000000000E+03 0.  0.
<mgrwt>
<rscale>  0 0.27520793E+03</rscale>
<asrwt>0</asrwt>
<pdfrwt beam="1">  1        1 0.36519020E-01 0.27520793E+03</pdfrwt>
<pdfrwt beam="2">  1       -1 0.12272020E-01 0.27520793E+03</pdfrwt>
<totfact> 0.51800180E+03</totfact>
</mgrwt>
</event>
<event>
 5    1  0.1107336E+001  0.2753266E+03  0.7818608E-02  0.1098269E+00
          3   -1    0    0  501    0  0.00000000000E+00  0.00000000000E+00  0.10927078086E+03  0.10927078086E+03  0.00000000000E+00 0.  1.
         -3   -1    0    0    0  501 -0.00000000000E+00 -0.00000000000E+00 -0.17343316495E+03  0.17343316495E+03  0.00000000000E+00 0.  1.
         35    2    1    2    0    0  0.00000000000E+00  0.00000000000E+00 -0.64162384085E+02  0.28270394581E+03  0.27532655057E+03 0.  0.
         25    1    3    3    0    0  0.55601904474E+02  0.29203728267E+02 -0.67889170914E+01  0.13561164744E+03  0.12000000000E+03 0.  0.
         25    1    3    3    0    0 -0.55601904474E+02 -0.29203728267E+02 -0.57373466994E+02  0.14709229837E+03  0.12000000000E+03 0.  0.
<mgrwt>
<rscale>  0 0.27532655E+03</rscale>
<asrwt>0</asrwt>
<pdfrwt beam="1">  1        3 0.16810890E-01 0.27532655E+03</pdfrwt>
<pdfrwt beam="2">  1       -3 0.26682025E-01 0.27532655E+03</pdfrwt>
<totfact> 0.10333880E+03</totfact>
</mgrwt>
</event>
<event>
 5    1  0.1107336E+001  0.2744479E+03  0.7818608E-02  0.1098761E+00
         -1   -1    0    0    0  501 -0.00000000000E+00  0.00000000000E+00  0.33618346809E+02  0.33618346809E+02  0.00000000000E+00 0. -1.
          1   -1    0    0  501    0  0.00000000000E+00 -0.00000000000E+00 -0.56012291046E+03  0.56012291046E+03  0.00000000000E+00 0. -1.
         35    2    1    2    0    0  0.00000000000E+00  0.00000000000E+00 -0.52650456365E+03  0.59374125727E+03  0.27444785486E+03 0.  0.
         25    1    3    3    0    0 -0.69387286598E+01  0.36171125969E+02 -0.38319750520E+03  0.40323296529E+03  0.12000000000E+03 0.  0.
         25    1    3    3    0    0  0.69387286598E+01 -0.36171125969E+02 -0.14330705845E+03  0.19050829198E+03  0.12000000000E+03 0.  0.
<mgrwt>
<rscale>  0 0.27444785E+03</rscale>
<asrwt>0</asrwt>
<pdfrwt beam="1">  1        1 0.86172754E-01 0.27444785E+03</pdfrwt>
<pdfrwt beam="2">  1       -1 0.51720535E-02 0.27444785E+03</pdfrwt>
<totfact> 0.64451395E+03</totfact>
</mgrwt>
</event>
<event>
 5    1  0.1107336E+001  0.2811764E+03  0.7818608E-02  0.1095048E+00
         -1   -1    0    0    0  501 -0.00000000000E+00  0.00000000000E+00  0.10985011501E+03  0.10985011501E+03  0.00000000000E+00 0. -1.
          1   -1    0    0  501    0  0.00000000000E+00 -0.00000000000E+00 -0.17992739830E+03  0.17992739830E+03  0.00000000000E+00 0. -1.
         35    2    1    2    0    0  0.00000000000E+00  0.00000000000E+00 -0.70077283293E+02  0.28977751330E+03  0.28117642430E+03 0.  0.
         25    1    3    3    0    0 -0.72566850906E+02  0.62290113774E+01 -0.27035997694E+02  0.14295346657E+03  0.12000000000E+03 0.  0.
         25    1    3    3    0    0  0.72566850906E+02 -0.62290113774E+01 -0.43041285599E+02  0.14682404673E+03  0.12000000000E+03 0.  0.
<mgrwt>
<rscale>  0 0.28117642E+03</rscale>
<asrwt>0</asrwt>
<pdfrwt beam="1">  1        1 0.27681138E-01 0.28117642E+03</pdfrwt>
<pdfrwt beam="2">  1       -1 0.16900018E-01 0.28117642E+03</pdfrwt>
<totfact> 0.44292897E+03</totfact>
</mgrwt>
</event>
<event>
 5    1  0.1107336E+001  0.2752475E+03  0.7818608E-02  0.1098313E+00
         -1   -1    0    0    0  501 -0.00000000000E+00  0.00000000000E+00  0.41488020194E+02  0.41488020194E+02  0.00000000000E+00 0. -1.
          1   -1    0    0  501    0  0.00000000000E+00 -0.00000000000E+00 -0.45652451727E+03  0.45652451727E+03  0.00000000000E+00 0. -1.
         35    2    1    2    0    0  0.00000000000E+00  0.00000000000E+00 -0.41503649708E+03  0.49801253747E+03  0.27524751328E+03 0.  0.
         25    1    3    3    0    0  0.46250609896E+01 -0.31148468463E+02 -0.31530125629E+03  0.33883107959E+03  0.12000000000E+03 0.  0.
         25    1    3    3    0    0 -0.46250609896E+01  0.31148468463E+02 -0.99735240786E+02  0.15918145788E+03  0.12000000000E+03 0.  0.
<mgrwt>
<rscale>  0 0.27524751E+03</rscale>
<asrwt>0</asrwt>
<pdfrwt beam="1">  1        1 0.70234542E-01 0.27524751E+03</pdfrwt>
<pdfrwt beam="2">  1       -1 0.63827722E-02 0.27524751E+03</pdfrwt>
<totfact> 0.61673865E+03</totfact>
</mgrwt>
</event>
<event>
 5    1  0.1107336E+001  0.2749213E+03  0.7818608E-02  0.1098496E+00
         -4   -1    0    0    0  501 -0.00000000000E+00  0.00000000000E+00  0.46484516700E+03  0.46484516700E+03  0.00000000000E+00 0. -1.
          4   -1    0    0  501    0  0.00000000000E+00 -0.00000000000E+00 -0.40648869839E+02  0.40648869839E+02  0.00000000000E+00 0. -1.
         35    2    1    2    0    0  0.00000000000E+00  0.00000000000E+00  0.42419629716E+03  0.50549403684E+03  0.27492130284E+03 0.  0.
         25    1    3    3    0    0 -0.28947505137E+02 -0.30358048796E+02  0.11592480879E+03  0.17204107205E+03  0.12000000000E+03 0.  0.
         25    1    3    3    0    0  0.28947505137E+02  0.30358048796E+02  0.30827148837E+03  0.33345296479E+03  0.12000000000E+03 0.  0.
<mgrwt>
<rscale>  0 0.27492130E+03</rscale>
<asrwt>0</asrwt>
<pdfrwt beam="1">  1        4 0.62536726E-02 0.27492130E+03</pdfrwt>
<pdfrwt beam="2">  1       -4 0.71514637E-01 0.27492130E+03</pdfrwt>
<totfact> 0.56540744E+02</totfact>
</mgrwt>
</event>
<event>
 5    1  0.1107336E+001  0.2753405E+03  0.7818608E-02  0.1098261E+00
         -1   -1    0    0    0  501 -0.00000000000E+00  0.00000000000E+00  0.63500273363E+02  0.63500273363E+02  0.00000000000E+00 0.  1.
          1   -1    0    0  501    0  0.00000000000E+00 -0.00000000000E+00 -0.29847274161E+03  0.29847274161E+03  0.00000000000E+00 0.  1.
         35    2    1    2    0    0  0.00000000000E+00  0.00000000000E+00 -0.23497246825E+03  0.36197301498E+03  0.27534052142E+03 0.  0.
         25    1    3    3    0    0  0.57955452780E+02  0.32628788558E+02 -0.10251850087E+03  0.17127029915E+03  0.12000000000E+03 0.  0.
         25    1    3    3    0    0 -0.57955452780E+02 -0.32628788558E+02 -0.13245396738E+03  0.19070271583E+03  0.12000000000E+03 0.  0.
<mgrwt>
<rscale>  0 0.27534052E+03</rscale>
<asrwt>0</asrwt>
<pdfrwt beam="1">  1        1 0.45918884E-01 0.27534052E+03</pdfrwt>
<pdfrwt beam="2">  1       -1 0.97692727E-02 0.27534052E+03</pdfrwt>
<totfact> 0.55379448E+03</totfact>
</mgrwt>
</event>
<event>
 5    1  0.1107336E+001  0.2745243E+03  0.7818608E-02  0.1098718E+00
         -3   -1    0    0    0  501 -0.00000000000E+00  0.00000000000E+00  0.30733544087E+02  0.30733544087E+02  0.00000000000E+00 0.  1.
          3   -1    0    0  501    0  0.00000000000E+00 -0.00000000000E+00 -0.61304021307E+03  0.61304021307E+03  0.00000000000E+00 0.  1.
         35    2    1    2    0    0  0.00000000000E+00  0.00000000000E+00 -0.58230666899E+03  0.64377375716E+03  0.27452430432E+03 0.  0.
         25    1    3    3    0    0 -0.33061114785E+01  0.45329433882E+02 -0.40544209392E+03  0.42526342362E+03  0.12000000000E+03 0.  0.
         25    1    3    3    0    0  0.33061114785E+01 -0.45329433882E+02 -0.17686457507E+03  0.21851033354E+03  0.12000000000E+03 0.  0.
<mgrwt>
<rscale>  0 0.27452430E+03</rscale>
<asrwt>0</asrwt>
<pdfrwt beam="1">  1        3 0.94313867E-01 0.27452430E+03</pdfrwt>
<pdfrwt beam="2">  1       -3 0.47282381E-02 0.27452430E+03</pdfrwt>
<totfact> 0.65503674E+02</totfact>
</mgrwt>
</event>
<event>
 5    1  0.1107336E+001  0.2748364E+03  0.7818608E-02  0.1098543E+00
          2   -1    0    0  501    0  0.00000000000E+00  0.00000000000E+00  0.29332900031E+04  0.29332900031E+04  0.00000000000E+00 0. -1.
         -2   -1    0    0    0  501 -0.00000000000E+00 -0.00000000000E+00 -0.64377409536E+01  0.64377409536E+01  0.00000000000E+00 0. -1.
         35    2    1    2    0    0  0.00000000000E+00  0.00000000000E+00  0.29268522622E+04  0.29397277441E+04  0.27483639629E+03 0.  0.
         25    1    3    3    0    0  0.31667711516E+02  0.58544693780E+02  0.13852363355E+04  0.13920165338E+04  0.12000000000E+03 0.  0.
         25    1    3    3    0    0 -0.31667711516E+02 -0.58544693780E+02  0.15416159266E+04  0.15477112103E+04  0.12000000000E+03 0.  0.
<mgrwt>
<rscale>  0 0.27483640E+03</rscale>
<asrwt>0</asrwt>
<pdfrwt beam="1">  1        2 0.45127432E+00 0.27483640E+03</pdfrwt>
<pdfrwt beam="2">  1       -2 0.99042403E-03 0.27483640E+03</pdfrwt>
<totfact> 0.49319052E+03</totfact>
</mgrwt>
</event>
<event>
 5    1  0.1107336E+001  0.2757875E+03  0.7818608E-02  0.1098012E+00
         -1   -1    0    0    0  501 -0.00000000000E+00  0.00000000000E+00  0.88329834836E+02  0.88329834836E+02  0.00000000000E+00 0.  1.
          1   -1    0    0  501    0  0.00000000000E+00 -0.00000000000E+00 -0.21526910828E+03  0.21526910828E+03  0.00000000000E+00 0.  1.
         35    2    1    2    0    0  0.00000000000E+00  0.00000000000E+00 -0.12693927345E+03  0.30359894312E+03  0.27578748906E+03 0.  0.
         25    1    3    3    0    0  0.65090271736E+02 -0.18323986336E+02 -0.70618583569E+02  0.15478855350E+03  0.12000000000E+03 0.  0.
         25    1    3    3    0    0 -0.65090271736E+02  0.18323986336E+02 -0.56320689879E+02  0.14881038962E+03  0.12000000000E+03 0.  0.
<mgrwt>
<rscale>  0 0.27578749E+03</rscale>
<asrwt>0</asrwt>
<pdfrwt beam="1">  1        1 0.33118324E-01 0.27578749E+03</pdfrwt>
<pdfrwt beam="2">  1       -1 0.13589205E-01 0.27578749E+03</pdfrwt>
<totfact> 0.49912426E+03</totfact>
</mgrwt>
</event>
<event>
 5    1  0.1107336E+001  0.2776919E+03  0.7818608E-02  0.1096956E+00
          2   -1    0    0  501    0  0.00000000000E+00  0.00000000000E+00  0.98624909005E+02  0.98624909005E+02  0.00000000000E+00 0.  1.
         -2   -1    0    0    0  501 -0.00000000000E+00 -0.00000000000E+00 -0.19546993643E+03  0.19546993643E+03  0.00000000000E+00 0.  1.
         35    2    1    2    0    0  0.00000000000E+00  0.00000000000E+00 -0.96845027427E+02  0.29409484544E+03  0.27769194942E+03 0.  0.
         25    1    3    3    0    0 -0.45362769736E+02  0.23698736299E+02  0.19115979973E+01  0.13047246908E+03  0.12000000000E+03 0.  0.
         25    1    3    3    0    0  0.45362769736E+02 -0.23698736299E+02 -0.98756625425E+02  0.16362237636E+03  0.12000000000E+03 0.  0.
<mgrwt>
<rscale>  0 0.27769195E+03</rscale>
<asrwt>0</asrwt>
<pdfrwt beam="1">  1        2 0.15173063E-01 0.27769195E+03</pdfrwt>
<pdfrwt beam="2">  1       -2 0.30072298E-01 0.27769195E+03</pdfrwt>
<totfact> 0.38941142E+03</totfact>
</mgrwt>
</event>
<event>
 5    1  0.1107336E+001  0.2748147E+03  0.7818608E-02  0.1098555E+00
         -1   -1    0    0    0  501 -0.00000000000E+00  0.00000000000E+00  0.75849688181E+02  0.75849688181E+02  0.00000000000E+00 0.  1.
          1   -1    0    0  501    0  0.00000000000E+00 -0.00000000000E+00 -0.24892370896E+03  0.24892370896E+03  0.00000000000E+00 0.  1.
         35    2    1    2    0    0  0.00000000000E+00  0.00000000000E+00 -0.17307402078E+03  0.32477339714E+03  0.27481474273E+03 0.  0.
         25    1    3    3    0    0  0.25579258478E+02 -0.39172614471E+02 -0.14311494811E+03  0.19253747833E+03  0.12000000000E+03 0.  0.
         25    1    3    3    0    0 -0.25579258478E+02  0.39172614471E+02 -0.29959072669E+02  0.13223591881E+03  0.12000000000E+03 0.  0.
<mgrwt>
<rscale>  0 0.27481474E+03</rscale>
<asrwt>0</asrwt>
<pdfrwt beam="1">  1        1 0.38295955E-01 0.27481474E+03</pdfrwt>
<pdfrwt beam="2">  1       -1 0.11669183E-01 0.27481474E+03</pdfrwt>
<totfact> 0.52791849E+03</totfact>
</mgrwt>
</event>
<event>
 5    1  0.1107336E+001  0.2743629E+03  0.7818608E-02  0.1098808E+00
         -2   -1    0    0    0  501 -0.00000000000E+00  0.00000000000E+00  0.16339097978E+02  0.16339097978E+02  0.00000000000E+00 0. -1.
          2   -1    0    0  501    0  0.00000000000E+00 -0.00000000000E+00 -0.11517618038E+04  0.11517618038E+04  0.00000000000E+00 0. -1.
         35    2    1    2    0    0  0.00000000000E+00  0.00000000000E+00 -0.11354227058E+04  0.11681009018E+04  0.27436289078E+03 0.  0.
         25    1    3    3    0    0 -0.34863451289E+02 -0.23827016577E+02 -0.78628188430E+03  0.79650636440E+03  0.12000000000E+03 0.  0.
         25    1    3    3    0    0  0.34863451289E+02  0.23827016577E+02 -0.34914082152E+03  0.37159453738E+03  0.12000000000E+03 0.  0.
<mgrwt>
<rscale>  0 0.27436289E+03</rscale>
<asrwt>0</asrwt>
<pdfrwt beam="1">  1        2 0.17719417E+00 0.27436289E+03</pdfrwt>
<pdfrwt beam="2">  1       -2 0.25137067E-02 0.27436289E+03</pdfrwt>
<totfact> 0.11723191E+04</totfact>
</mgrwt>
</event>
<event>
 5    1  0.1107336E+001  0.2749754E+03  0.7818608E-02  0.1098465E+00
         -2   -1    0    0    0  501 -0.00000000000E+00  0.00000000000E+00  0.59339367186E+02  0.59339367186E+02  0.00000000000E+00 0. -1.
          2   -1    0    0  501    0  0.00000000000E+00 -0.00000000000E+00 -0.31855535377E+03  0.31855535377E+03  0.00000000000E+00 0. -1.
         35    2    1    2    0    0  0.00000000000E+00  0.00000000000E+00 -0.25921598658E+03  0.37789472095E+03  0.27497543968E+03 0.  0.
         25    1    3    3    0    0  0.58138078115E+00  0.19501096639E+02 -0.41372426590E+02  0.12842238300E+03  0.12000000000E+03 0.  0.
         25    1    3    3    0    0 -0.58138078115E+00 -0.19501096639E+02 -0.21784355999E+03  0.24947233795E+03  0.12000000000E+03 0.  0.
<mgrwt>
<rscale>  0 0.27497544E+03</rscale>
<asrwt>0</asrwt>
<pdfrwt beam="1">  1        2 0.49008515E-01 0.27497544E+03</pdfrwt>
<pdfrwt beam="2">  1       -2 0.91291336E-02 0.27497544E+03</pdfrwt>
<totfact> 0.78016584E+03</totfact>
</mgrwt>
</event>
<event>
 5    1  0.1107336E+001  0.2784753E+03  0.7818608E-02  0.1096525E+00
         -2   -1    0    0    0  501 -0.00000000000E+00  0.00000000000E+00  0.91894221407E+02  0.91894221407E+02  0.00000000000E+00 0.  1.
          2   -1    0    0  501    0  0.00000000000E+00 -0.00000000000E+00 -0.21097220145E+03  0.21097220145E+03  0.00000000000E+00 0.  1.
         35    2    1    2    0    0  0.00000000000E+00  0.00000000000E+00 -0.11907798004E+03  0.30286642285E+03  0.27847532164E+03 0.  0.
         25    1    3    3    0    0 -0.38725172717E+01 -0.12168885939E+02  0.15999834929E+02  0.12173361447E+03  0.12000000000E+03 0.  0.
         25    1    3    3    0    0  0.38725172717E+01  0.12168885939E+02 -0.13507781497E+03  0.18113280838E+03  0.12000000000E+03 0.  0.
<mgrwt>
<rscale>  0 0.27847532E+03</rscale>
<asrwt>0</asrwt>
<pdfrwt beam="1">  1        2 0.32457262E-01 0.27847532E+03</pdfrwt>
<pdfrwt beam="2">  1       -2 0.14137573E-01 0.27847532E+03</pdfrwt>
<totfact> 0.60297662E+03</totfact>
</mgrwt>
</event>
<event>
 5    1  0.1107336E+001  0.2722624E+03  0.7818608E-02  0.1099992E+00
          2   -1    0    0  501    0  0.00000000000E+00  0.00000000000E+00  0.17973946866E+04  0.17973946866E+04  0.00000000000E+00 0. -1.
         -2   -1    0    0    0  501 -0.00000000000E+00 -0.00000000000E+00 -0.10310313653E+02  0.10310313653E+02  0.00000000000E+00 0. -1.
         35    2    1    2    0    0  0.00000000000E+00  0.00000000000E+00  0.17870843730E+04  0.18077050003E+04  0.27226239533E+03 0.  0.
         25    1    3    3    0    0 -0.28559557207E+02  0.54173472919E+02  0.76389373858E+03  0.77568296186E+03  0.12000000000E+03 0.  0.
         25    1    3    3    0    0  0.28559557207E+02 -0.54173472919E+02  0.10231906344E+04  0.10320220384E+04  0.12000000000E+03 0.  0.
<mgrwt>
<rscale>  0 0.27226240E+03</rscale>
<asrwt>0</asrwt>
<pdfrwt beam="1">  1        2 0.27652201E+00 0.27226240E+03</pdfrwt>
<pdfrwt beam="2">  1       -2 0.15862035E-02 0.27226240E+03</pdfrwt>
<totfact> 0.10318183E+04</totfact>
</mgrwt>
</event>
<event>
 5    1  0.1107336E+001  0.2754546E+03  0.7818608E-02  0.1098198E+00
          1   -1    0    0  501    0  0.00000000000E+00  0.00000000000E+00  0.33725857475E+03  0.33725857475E+03  0.00000000000E+00 0. -1.
         -1   -1    0    0    0  501 -0.00000000000E+00 -0.00000000000E+00 -0.56244132186E+02  0.56244132186E+02  0.00000000000E+00 0. -1.
         35    2    1    2    0    0  0.00000000000E+00  0.00000000000E+00  0.28101444257E+03  0.39350270694E+03  0.27545464860E+03 0.  0.
         25    1    3    3    0    0 -0.59056318177E+02 -0.10377048610E+02  0.95935230879E+02  0.16492089127E+03  0.12000000000E+03 0.  0.
         25    1    3    3    0    0  0.59056318177E+02  0.10377048610E+02  0.18507921169E+03  0.22858181567E+03  0.12000000000E+03 0.  0.
<mgrwt>
<rscale>  0 0.27545465E+03</rscale>
<asrwt>0</asrwt>
<pdfrwt beam="1">  1        1 0.51885934E-01 0.27545465E+03</pdfrwt>
<pdfrwt beam="2">  1       -1 0.86529436E-02 0.27545465E+03</pdfrwt>
<totfact> 0.57217646E+03</totfact>
</mgrwt>
</event>
<event>
 5    1  0.1107336E+001  0.2742162E+03  0.7818608E-02  0.1098891E+00
         -1   -1    0    0    0  501 -0.00000000000E+00  0.00000000000E+00  0.78477499520E+02  0.78477499520E+02  0.00000000000E+00 0. -1.
          1   -1    0    0  501    0  0.00000000000E+00 -0.00000000000E+00 -0.23954158915E+03  0.23954158915E+03  0.00000000000E+00 0. -1.
         35    2    1    2    0    0  0.00000000000E+00  0.00000000000E+00 -0.16106408963E+03  0.31801908867E+03  0.27421615523E+03 0.  0.
         25    1    3    3    0    0 -0.46542891549E+01 -0.16746534338E+02 -0.63040915083E+01  0.12141602196E+03  0.12000000000E+03 0.  0.
         25    1    3    3    0    0  0.46542891549E+01  0.16746534338E+02 -0.15475999812E+03  0.19660306671E+03  0.12000000000E+03 0.  0.
<mgrwt>
<rscale>  0 0.27421616E+03</rscale>
<asrwt>0</asrwt>
<pdfrwt beam="1">  1        1 0.36852552E-01 0.27421616E+03</pdfrwt>
<pdfrwt beam="2">  1       -1 0.12073462E-01 0.27421616E+03</pdfrwt>
<totfact> 0.52528828E+03</totfact>
</mgrwt>
</event>
<event>
 5    1  0.1107336E+001  0.2758730E+03  0.7818608E-02  0.1097965E+00
          2   -1    0    0  501    0  0.00000000000E+00  0.00000000000E+00  0.25779606803E+04  0.25779606803E+04  0.00000000000E+00 0. -1.
         -2   -1    0    0    0  501 -0.00000000000E+00 -0.00000000000E+00 -0.73804368525E+01  0.73804368525E+01  0.00000000000E+00 0. -1.
         35    2    1    2    0    0  0.00000000000E+00  0.00000000000E+00  0.25705802435E+04  0.25853411172E+04  0.27587298533E+03 0.  0.
         25    1    3    3    0    0 -0.28892828577E+02  0.31236752903E+01  0.18616118940E+04  0.18657018510E+04  0.12000000000E+03 0.  0.
         25    1    3    3    0    0  0.28892828577E+02 -0.31236752903E+01  0.70896834946E+03  0.71963926618E+03  0.12000000000E+03 0.  0.
<mgrwt>
<rscale>  0 0.27587299E+03</rscale>
<asrwt>0</asrwt>
<pdfrwt beam="1">  1        2 0.39660862E+00 0.27587299E+03</pdfrwt>
<pdfrwt beam="2">  1       -2 0.11354539E-02 0.27587299E+03</pdfrwt>
<totfact> 0.64379675E+03</totfact>
</mgrwt>
</event>
<event>
 5    1  0.1107336E+001  0.2738207E+03  0.7818608E-02  0.1099113E+00
          3   -1    0    0  501    0  0.00000000000E+00  0.00000000000E+00  0.44532398973E+02  0.44532398973E+02  0.00000000000E+00 0. -1.
         -3   -1    0    0    0  501 -0.00000000000E+00 -0.00000000000E+00 -0.42091691946E+03  0.42091691946E+03  0.00000000000E+00 0. -1.
         35    2    1    2    0    0  0.00000000000E+00  0.00000000000E+00 -0.37638452049E+03  0.46544931843E+03  0.27382067264E+03 0.  0.
         25    1    3    3    0    0  0.50993684166E+02 -0.40348473696E+02 -0.20650672742E+03  0.24753461096E+03  0.12000000000E+03 0.  0.
         25    1    3    3    0    0 -0.50993684166E+02  0.40348473696E+02 -0.16987779307E+03  0.21791470747E+03  0.12000000000E+03 0.  0.
<mgrwt>
<rscale>  0 0.27382067E+03</rscale>
<asrwt>0</asrwt>
<pdfrwt beam="1">  1        3 0.68511384E-02 0.27382067E+03</pdfrwt>
<pdfrwt beam="2">  1       -3 0.64756448E-01 0.27382067E+03</pdfrwt>
<totfact> 0.81883646E+02</totfact>
</mgrwt>
</event>
<event>
 5    1  0.1107336E+001  0.2784783E+03  0.7818608E-02  0.1096523E+00
         -2   -1    0    0    0  501 -0.00000000000E+00  0.00000000000E+00  0.12700818590E+02  0.12700818590E+02  0.00000000000E+00 0.  1.
          2   -1    0    0  501    0  0.00000000000E+00 -0.00000000000E+00 -0.15264793253E+04  0.15264793253E+04  0.00000000000E+00 0.  1.
         35    2    1    2    0    0  0.00000000000E+00  0.00000000000E+00 -0.15137785067E+04  0.15391801439E+04  0.27847827198E+03 0.  0.
         25    1    3    3    0    0  0.32255126904E+02 -0.76724319425E+01 -0.11015380502E+04  0.11085510071E+04  0.12000000000E+03 0.  0.
         25    1    3    3    0    0 -0.32255126904E+02  0.76724319425E+01 -0.41224045656E+03  0.43062913679E+03  0.12000000000E+03 0.  0.
<mgrwt>
<rscale>  0 0.27847827E+03</rscale>
<asrwt>0</asrwt>
<pdfrwt beam="1">  1        2 0.23484301E+00 0.27847827E+03</pdfrwt>
<pdfrwt beam="2">  1       -2 0.19539718E-02 0.27847827E+03</pdfrwt>
<totfact> 0.10568446E+04</totfact>
</mgrwt>
</event>
<event>
 5    1  0.1107336E+001  0.2751827E+03  0.7818608E-02  0.1098350E+00
         -1   -1    0    0    0  501 -0.00000000000E+00  0.00000000000E+00  0.76441664972E+01  0.76441664972E+01  0.00000000000E+00 0.  1.
          1   -1    0    0  501    0  0.00000000000E+00 -0.00000000000E+00 -0.24765788910E+04  0.24765788910E+04  0.00000000000E+00 0.  1.
         35    2    1    2    0    0  0.00000000000E+00  0.00000000000E+00 -0.24689347245E+04  0.24842230574E+04  0.27518271302E+03 0.  0.
         25    1    3    3    0    0  0.34404141003E+02 -0.48882772520E+02 -0.95501999610E+03  0.96438392942E+03  0.12000000000E+03 0.  0.
         25    1    3    3    0    0 -0.34404141003E+02  0.48882772520E+02 -0.15139147284E+04  0.15198391280E+04  0.12000000000E+03 0.  0.
<mgrwt>
<rscale>  0 0.27518271E+03</rscale>
<asrwt>0</asrwt>
<pdfrwt beam="1">  1        1 0.38101226E+00 0.27518271E+03</pdfrwt>
<pdfrwt beam="2">  1       -1 0.11760252E-02 0.27518271E+03</pdfrwt>
<totfact> 0.24438968E+03</totfact>
</mgrwt>
</event>
<event>
 5    1  0.1107336E+001  0.2826968E+03  0.7818608E-02  0.1094225E+00
         -2   -1    0    0    0  501 -0.00000000000E+00  0.00000000000E+00  0.88180553494E+02  0.88180553494E+02  0.00000000000E+00 0.  1.
          2   -1    0    0  501    0  0.00000000000E+00 -0.00000000000E+00 -0.22657347492E+03  0.22657347492E+03  0.00000000000E+00 0.  1.
         35    2    1    2    0    0  0.00000000000E+00  0.00000000000E+00 -0.13839292143E+03  0.31475402842E+03  0.28269683002E+03 0.  0.
         25    1    3    3    0    0  0.95738700765E+01 -0.30184740114E+02  0.61255126673E+01  0.12425900140E+03  0.12000000000E+03 0.  0.
         25    1    3    3    0    0 -0.95738700765E+01  0.30184740114E+02 -0.14451843410E+03  0.19049502702E+03  0.12000000000E+03 0.  0.
<mgrwt>
<rscale>  0 0.28269683E+03</rscale>
<asrwt>0</asrwt>
<pdfrwt beam="1">  1        2 0.34857458E-01 0.28269683E+03</pdfrwt>
<pdfrwt beam="2">  1       -2 0.13566239E-01 0.28269683E+03</pdfrwt>
<totfact> 0.59723266E+03</totfact>
</mgrwt>
</event>
<event>
 5    1  0.1107336E+001  0.2755520E+03  0.7818608E-02  0.1098143E+00
          2   -1    0    0  501    0  0.00000000000E+00  0.00000000000E+00  0.19847971066E+04  0.19847971066E+04  0.00000000000E+00 0. -1.
         -2   -1    0    0    0  501 -0.00000000000E+00 -0.00000000000E+00 -0.95638091358E+01  0.95638091358E+01  0.00000000000E+00 0. -1.
         35    2    1    2    0    0  0.00000000000E+00  0.00000000000E+00  0.19752332975E+04  0.19943609158E+04  0.27555196026E+03 0.  0.
         25    1    3    3    0    0  0.58703005857E+02  0.22355972243E+02  0.11702000723E+04  0.11780127511E+04  0.12000000000E+03 0.  0.
         25    1    3    3    0    0 -0.58703005857E+02 -0.22355972243E+02  0.80503322518E+03  0.81634816471E+03  0.12000000000E+03 0.  0.
<mgrwt>
<rscale>  0 0.27555196E+03</rscale>
<asrwt>0</asrwt>
<pdfrwt beam="1">  1        2 0.30535307E+00 0.27555196E+03</pdfrwt>
<pdfrwt beam="2">  1       -2 0.14713568E-02 0.27555196E+03</pdfrwt>
<totfact> 0.91841365E+03</totfact>
</mgrwt>
</event>
<event>
 5    1  0.1107336E+001  0.2733152E+03  0.7818608E-02  0.1099397E+00
         -1   -1    0    0    0  501 -0.00000000000E+00  0.00000000000E+00  0.18219818442E+02  0.18219818442E+02  0.00000000000E+00 0.  1.
          1   -1    0    0  501    0  0.00000000000E+00 -0.00000000000E+00 -0.10249992547E+04  0.10249992547E+04  0.00000000000E+00 0.  1.
         35    2    1    2    0    0  0.00000000000E+00  0.00000000000E+00 -0.10067794363E+04  0.10432190732E+04  0.27331520502E+03 0.  0.
         25    1    3    3    0    0  0.45843481160E+02 -0.42152354819E+02 -0.57942714356E+03  0.59499097512E+03  0.12000000000E+03 0.  0.
         25    1    3    3    0    0 -0.45843481160E+02  0.42152354819E+02 -0.42735229271E+03  0.44822809803E+03  0.12000000000E+03 0.  0.
<mgrwt>
<rscale>  0 0.27331521E+03</rscale>
<asrwt>0</asrwt>
<pdfrwt beam="1">  1        1 0.15769222E+00 0.27331521E+03</pdfrwt>
<pdfrwt beam="2">  1       -1 0.28030485E-02 0.27331521E+03</pdfrwt>
<totfact> 0.63830291E+03</totfact>
</mgrwt>
</event>
<event>
 5    1  0.1107336E+001  0.2746154E+03  0.7818608E-02  0.1098667E+00
          2   -1    0    0  501    0  0.00000000000E+00  0.00000000000E+00  0.82797178640E+03  0.82797178640E+03  0.00000000000E+00 0. -1.
         -2   -1    0    0    0  501 -0.00000000000E+00 -0.00000000000E+00 -0.22770581547E+02  0.22770581547E+02  0.00000000000E+00 0. -1.
         35    2    1    2    0    0  0.00000000000E+00  0.00000000000E+00  0.80520120486E+03  0.85074236795E+03  0.27461536068E+03 0.  0.
         25    1    3    3    0    0  0.37728702850E+02 -0.53884996308E+02  0.43742334573E+03  0.45832982800E+03  0.12000000000E+03 0.  0.
         25    1    3    3    0    0 -0.37728702850E+02  0.53884996308E+02  0.36777785912E+03  0.39241253994E+03  0.12000000000E+03 0.  0.
<mgrwt>
<rscale>  0 0.27461536E+03</rscale>
<asrwt>0</asrwt>
<pdfrwt beam="1">  1        2 0.12738025E+00 0.27461536E+03</pdfrwt>
<pdfrwt beam="2">  1       -2 0.35031670E-02 0.27461536E+03</pdfrwt>
<totfact> 0.11352625E+04</totfact>
</mgrwt>
</event>
<event>
 5    1  0.1107336E+001  0.2746500E+03  0.7818608E-02  0.1098647E+00
          4   -1    0    0  501    0  0.00000000000E+00  0.00000000000E+00  0.47844839344E+02  0.47844839344E+02  0.00000000000E+00 0. -1.
         -4   -1    0    0    0  501 -0.00000000000E+00 -0.00000000000E+00 -0.39415224209E+03  0.39415224209E+03  0.00000000000E+00 0. -1.
         35    2    1    2    0    0  0.00000000000E+00  0.00000000000E+00 -0.34630740275E+03  0.44199708143E+03  0.27464996413E+03 0.  0.
         25    1    3    3    0    0 -0.55979265590E+02 -0.74594490746E+01 -0.23047835346E+03  0.26591275444E+03  0.12000000000E+03 0.  0.
         25    1    3    3    0    0  0.55979265590E+02  0.74594490746E+01 -0.11582904928E+03  0.17608432700E+03  0.12000000000E+03 0.  0.
<mgrwt>
<rscale>  0 0.27464996E+03</rscale>
<asrwt>0</asrwt>
<pdfrwt beam="1">  1        4 0.73607443E-02 0.27464996E+03</pdfrwt>
<pdfrwt beam="2">  1       -4 0.60638808E-01 0.27464996E+03</pdfrwt>
<totfact> 0.61638534E+02</totfact>
</mgrwt>
</event>
<event>
 5    1  0.1107336E+001  0.2750601E+03  0.7818608E-02  0.1098418E+00
         -4   -1    0    0    0  501 -0.00000000000E+00  0.00000000000E+00  0.71006529268E+03  0.71006529268E+03  0.00000000000E+00 0. -1.
          4   -1    0    0  501    0  0.00000000000E+00 -0.00000000000E+00 -0.26637719867E+02  0.26637719867E+02  0.00000000000E+00 0. -1.
         35    2    1    2    0    0  0.00000000000E+00  0.00000000000E+00  0.68342757281E+03  0.73670301254E+03  0.27506014145E+03 0.  0.
         25    1    3    3    0    0 -0.23560291852E+02 -0.62421670912E+02  0.32046056623E+03  0.34863523468E+03  0.12000000000E+03 0.  0.
         25    1    3    3    0    0  0.23560291852E+02  0.62421670912E+02  0.36296700658E+03  0.38806777787E+03  0.12000000000E+03 0.  0.
<mgrwt>
<rscale>  0 0.27506014E+03</rscale>
<asrwt>0</asrwt>
<pdfrwt beam="1">  1        4 0.40981113E-02 0.27506014E+03</pdfrwt>
<pdfrwt beam="2">  1       -4 0.10924080E+00 0.27506014E+03</pdfrwt>
<totfact> 0.42680430E+02</totfact>
</mgrwt>
</event>
<event>
 5    1  0.1107336E+001  0.2699423E+03  0.7818608E-02  0.1101313E+00
         -2   -1    0    0    0  501 -0.00000000000E+00  0.00000000000E+00  0.73790001229E+01  0.73790001229E+01  0.00000000000E+00 0. -1.
          2   -1    0    0  501    0  0.00000000000E+00 -0.00000000000E+00 -0.24687921889E+04  0.24687921889E+04  0.00000000000E+00 0. -1.
         35    2    1    2    0    0  0.00000000000E+00  0.00000000000E+00 -0.24614131888E+04  0.24761711890E+04  0.26994234840E+03 0.  0.
         25    1    3    3    0    0 -0.81643880978E+01  0.39140647787E+02 -0.16627687659E+04  0.16675726720E+04  0.12000000000E+03 0.  0.
         25    1    3    3    0    0  0.81643880978E+01 -0.39140647787E+02 -0.79864442289E+03  0.80859851704E+03  0.12000000000E+03 0.  0.
<mgrwt>
<rscale>  0 0.26994235E+03</rscale>
<asrwt>0</asrwt>
<pdfrwt beam="1">  1        2 0.37981425E+00 0.26994235E+03</pdfrwt>
<pdfrwt beam="2">  1       -2 0.11352306E-02 0.26994235E+03</pdfrwt>
<totfact> 0.73945718E+03</totfact>
</mgrwt>
</event>
<event>
 5    1  0.1107336E+001  0.2754362E+03  0.7818608E-02  0.1098208E+00
         -2   -1    0    0    0  501 -0.00000000000E+00  0.00000000000E+00  0.18631533450E+02  0.18631533450E+02  0.00000000000E+00 0. -1.
          2   -1    0    0  501    0  0.00000000000E+00 -0.00000000000E+00 -0.10179666682E+04  0.10179666682E+04  0.00000000000E+00 0. -1.
         35    2    1    2    0    0  0.00000000000E+00  0.00000000000E+00 -0.99933513472E+03  0.10365982016E+04  0.27543623603E+03 0.  0.
         25    1    3    3    0    0 -0.49171955378E+02 -0.34428852123E+02 -0.61645993555E+03  0.63089308064E+03  0.12000000000E+03 0.  0.
         25    1    3    3    0    0  0.49171955378E+02  0.34428852123E+02 -0.38287519916E+03  0.40570512098E+03  0.12000000000E+03 0.  0.
<mgrwt>
<rscale>  0 0.27543624E+03</rscale>
<asrwt>0</asrwt>
<pdfrwt beam="1">  1        2 0.15661032E+00 0.27543624E+03</pdfrwt>
<pdfrwt beam="2">  1       -2 0.28663885E-02 0.27543624E+03</pdfrwt>
<totfact> 0.11578164E+04</totfact>
</mgrwt>
</event>
<event>
 5    1  0.1107336E+001  0.2752559E+03  0.7818608E-02  0.1098309E+00
         -4   -1    0    0    0  501 -0.00000000000E+00  0.00000000000E+00  0.23162828773E+03  0.23162828773E+03  0.00000000000E+00 0. -1.
          4   -1    0    0  501    0  0.00000000000E+00 -0.00000000000E+00 -0.81775190713E+02  0.81775190713E+02  0.00000000000E+00 0. -1.
         35    2    1    2    0    0  0.00000000000E+00  0.00000000000E+00  0.14985309702E+03  0.31340347845E+03  0.27525586209E+03 0.  0.
         25    1    3    3    0    0  0.22779156619E+02  0.60799239973E+02  0.95484630510E+02  0.16653153522E+03  0.12000000000E+03 0.  0.
         25    1    3    3    0    0 -0.22779156619E+02 -0.60799239973E+02  0.54368466509E+02  0.14687194323E+03  0.12000000000E+03 0.  0.
<mgrwt>
<rscale>  0 0.27525586E+03</rscale>
<asrwt>0</asrwt>
<pdfrwt beam="1">  1        4 0.12580799E-01 0.27525586E+03</pdfrwt>
<pdfrwt beam="2">  1       -4 0.35635121E-01 0.27525586E+03</pdfrwt>
<totfact> 0.73313505E+02</totfact>
</mgrwt>
</event>
<event>
 5    1  0.1107336E+001  0.2748404E+03  0.7818608E-02  0.1098541E+00
         -2   -1    0    0    0  501 -0.00000000000E+00  0.00000000000E+00  0.11405191013E+02  0.11405191013E+02  0.00000000000E+00 0.  1.
          2   -1    0    0  501    0  0.00000000000E+00 -0.00000000000E+00 -0.16557646226E+04  0.16557646226E+04  0.00000000000E+00 0.  1.
         35    2    1    2    0    0  0.00000000000E+00  0.00000000000E+00 -0.16443594315E+04  0.16671698136E+04  0.27484040310E+03 0.  0.
         25    1    3    3    0    0  0.10567154740E+02 -0.59994767770E+02 -0.99086073283E+03  0.99995801351E+03  0.12000000000E+03 0.  0.
         25    1    3    3    0    0 -0.10567154740E+02  0.59994767770E+02 -0.65349869871E+03  0.66721180006E+03  0.12000000000E+03 0.  0.
<mgrwt>
<rscale>  0 0.27484040E+03</rscale>
<asrwt>0</asrwt>
<pdfrwt beam="1">  1        2 0.25473302E+00 0.27484040E+03</pdfrwt>
<pdfrwt beam="2">  1       -2 0.17546447E-02 0.27484040E+03</pdfrwt>
<totfact> 0.10566927E+04</totfact>
</mgrwt>
</event>
<event>
 5    1  0.1107336E+001  0.2747034E+03  0.7818608E-02  0.1098618E+00
         -1   -1    0    0    0  501 -0.00000000000E+00  0.00000000000E+00  0.20834822429E+02  0.20834822429E+02  0.00000000000E+00 0.  1.
          1   -1    0    0  501    0  0.00000000000E+00 -0.00000000000E+00 -0.90547847164E+03  0.90547847164E+03  0.00000000000E+00 0.  1.
         35    2    1    2    0    0  0.00000000000E+00  0.00000000000E+00 -0.88464364921E+03  0.92631329407E+03  0.27470335396E+03 0.  0.
         25    1    3    3    0    0 -0.34250739955E+02  0.46110774708E+02 -0.32716910371E+03  0.35318400184E+03  0.12000000000E+03 0.  0.
         25    1    3    3    0    0  0.34250739955E+02 -0.46110774708E+02 -0.55747454550E+03  0.57312929223E+03  0.12000000000E+03 0.  0.
<mgrwt>
<rscale>  0 0.27470335E+03</rscale>
<asrwt>0</asrwt>
<pdfrwt beam="1">  1        1 0.13930439E+00 0.27470335E+03</pdfrwt>
<pdfrwt beam="2">  1       -1 0.32053571E-02 0.27470335E+03</pdfrwt>
<totfact> 0.64576330E+03</totfact>
</mgrwt>
</event>
<event>
 5    1  0.1107336E+001  0.2742051E+03  0.7818608E-02  0.1098897E+00
         -1   -1    0    0    0  501 -0.00000000000E+00  0.00000000000E+00  0.85563242765E+02  0.85563242765E+02  0.00000000000E+00 0.  1.
          1   -1    0    0  501    0  0.00000000000E+00 -0.00000000000E+00 -0.21968669389E+03  0.21968669389E+03  0.00000000000E+00 0.  1.
         35    2    1    2    0    0  0.00000000000E+00  0.00000000000E+00 -0.13412345112E+03  0.30524993665E+03  0.27420507597E+03 0.  0.
         25    1    3    3    0    0  0.58476847037E+02 -0.23769590808E+02 -0.89673224566E+02  0.16256021128E+03  0.12000000000E+03 0.  0.
         25    1    3    3    0    0 -0.58476847037E+02  0.23769590808E+02 -0.44450226556E+02  0.14268972537E+03  0.12000000000E+03 0.  0.
<mgrwt>
<rscale>  0 0.27420508E+03</rscale>
<asrwt>0</asrwt>
<pdfrwt beam="1">  1        1 0.33797953E-01 0.27420508E+03</pdfrwt>
<pdfrwt beam="2">  1       -1 0.13163576E-01 0.27420508E+03</pdfrwt>
<totfact> 0.51142332E+03</totfact>
</mgrwt>
</event>
<event>
 5    1  0.1107336E+001  0.2732413E+03  0.7818608E-02  0.1099439E+00
         -3   -1    0    0    0  501 -0.00000000000E+00  0.00000000000E+00  0.81581738188E+02  0.81581738188E+02  0.00000000000E+00 0. -1.
          3   -1    0    0  501    0  0.00000000000E+00 -0.00000000000E+00 -0.22879140928E+03  0.22879140928E+03  0.00000000000E+00 0. -1.
         35    2    1    2    0    0  0.00000000000E+00  0.00000000000E+00 -0.14720967109E+03  0.31037314747E+03  0.27324129155E+03 0.  0.
         25    1    3    3    0    0  0.62941188615E+02 -0.11213728561E+01 -0.93356009094E+02  0.16455453544E+03  0.12000000000E+03 0.  0.
         25    1    3    3    0    0 -0.62941188615E+02  0.11213728561E+01 -0.53853661996E+02  0.14581861202E+03  0.12000000000E+03 0.  0.
<mgrwt>
<rscale>  0 0.27324129E+03</rscale>
<asrwt>0</asrwt>
<pdfrwt beam="1">  1        3 0.35198678E-01 0.27324129E+03</pdfrwt>
<pdfrwt beam="2">  1       -3 0.12551037E-01 0.27324129E+03</pdfrwt>
<totfact> 0.10166221E+03</totfact>
</mgrwt>
</event>
<event>
 5    1  0.1107336E+001  0.2746038E+03  0.7818608E-02  0.1098673E+00
         -1   -1    0    0    0  501 -0.00000000000E+00  0.00000000000E+00  0.69018628251E+03  0.69018628251E+03  0.00000000000E+00 0.  1.
          1   -1    0    0  501    0  0.00000000000E+00 -0.00000000000E+00 -0.27314101858E+02  0.27314101858E+02  0.00000000000E+00 0.  1.
         35    2    1    2    0    0  0.00000000000E+00  0.00000000000E+00  0.66287218065E+03  0.71750038436E+03  0.27460384863E+03 0.  0.
         25    1    3    3    0    0 -0.47150566460E+02  0.42882209663E+02  0.38301989492E+03  0.40640656949E+03  0.12000000000E+03 0.  0.
         25    1    3    3    0    0  0.47150566460E+02 -0.42882209663E+02  0.27985228573E+03  0.31109381488E+03  0.12000000000E+03 0.  0.
<mgrwt>
<rscale>  0 0.27460385E+03</rscale>
<asrwt>0</asrwt>
<pdfrwt beam="1">  1        1 0.42021700E-02 0.27460385E+03</pdfrwt>
<pdfrwt beam="2">  1       -1 0.10618249E+00 0.27460385E+03</pdfrwt>
<totfact> 0.18655550E+03</totfact>
</mgrwt>
</event>
<event>
 5    1  0.1107336E+001  0.2747688E+03  0.7818608E-02  0.1098581E+00
          2   -1    0    0  501    0  0.00000000000E+00  0.00000000000E+00  0.43325325986E+03  0.43325325986E+03  0.00000000000E+00 0.  1.
         -2   -1    0    0    0  501 -0.00000000000E+00 -0.00000000000E+00 -0.43564529137E+02  0.43564529137E+02  0.00000000000E+00 0.  1.
         35    2    1    2    0    0  0.00000000000E+00  0.00000000000E+00  0.38968873072E+03  0.47681778900E+03  0.27476880655E+03 0.  0.
         25    1    3    3    0    0 -0.22047635979E+02 -0.28291123165E+02  0.29282570788E+03  0.31848607677E+03  0.12000000000E+03 0.  0.
         25    1    3    3    0    0  0.22047635979E+02  0.28291123165E+02  0.96863022847E+02  0.15833171223E+03  0.12000000000E+03 0.  0.
<mgrwt>
<rscale>  0 0.27476881E+03</rscale>
<asrwt>0</asrwt>
<pdfrwt beam="1">  1        2 0.66654345E-01 0.27476881E+03</pdfrwt>
<pdfrwt beam="2">  1       -2 0.67022355E-02 0.27476881E+03</pdfrwt>
<totfact> 0.90551581E+03</totfact>
</mgrwt>
</event>
<event>
 5    1  0.1107336E+001  0.2724186E+03  0.7818608E-02  0.1099903E+00
          3   -1    0    0  501    0  0.00000000000E+00  0.00000000000E+00  0.83582749890E+03  0.83582749890E+03  0.00000000000E+00 0. -1.
         -3   -1    0    0    0  501 -0.00000000000E+00 -0.00000000000E+00 -0.22197132090E+02  0.22197132090E+02  0.00000000000E+00 0. -1.
         35    2    1    2    0    0  0.00000000000E+00  0.00000000000E+00  0.81363036681E+03  0.85802463099E+03  0.27241859993E+03 0.  0.
         25    1    3    3    0    0  0.53953501491E+02  0.34095516696E+02  0.43489640593E+03  0.45564061328E+03  0.12000000000E+03 0.  0.
         25    1    3    3    0    0 -0.53953501491E+02 -0.34095516696E+02  0.37873396089E+03  0.40238401771E+03  0.12000000000E+03 0.  0.
<mgrwt>
<rscale>  0 0.27241860E+03</rscale>
<asrwt>0</asrwt>
<pdfrwt beam="1">  1        3 0.12858882E+00 0.27241860E+03</pdfrwt>
<pdfrwt beam="2">  1       -3 0.34149440E-02 0.27241860E+03</pdfrwt>
<totfact> 0.52948039E+02</totfact>
</mgrwt>
</event>
<event>
 5    1  0.1107336E+001  0.2751472E+03  0.7818608E-02  0.1098369E+00
         -4   -1    0    0    0  501 -0.00000000000E+00  0.00000000000E+00  0.32811419183E+02  0.32811419183E+02  0.00000000000E+00 0. -1.
          4   -1    0    0  501    0  0.00000000000E+00 -0.00000000000E+00 -0.57682648087E+03  0.57682648087E+03  0.00000000000E+00 0. -1.
         35    2    1    2    0    0  0.00000000000E+00  0.00000000000E+00 -0.54401506169E+03  0.60963790005E+03  0.27514720031E+03 0.  0.
         25    1    3    3    0    0 -0.69648709995E+01 -0.66642924650E+02 -0.28543144272E+03  0.31679788087E+03  0.12000000000E+03 0.  0.
         25    1    3    3    0    0  0.69648709995E+01  0.66642924650E+02 -0.25858361897E+03  0.29284001918E+03  0.12000000000E+03 0.  0.
<mgrwt>
<rscale>  0 0.27514720E+03</rscale>
<asrwt>0</asrwt>
<pdfrwt beam="1">  1        4 0.88742528E-01 0.27514720E+03</pdfrwt>
<pdfrwt beam="2">  1       -4 0.50479111E-02 0.27514720E+03</pdfrwt>
<totfact> 0.49529978E+02</totfact>
</mgrwt>
</event>
<event>
 5    1  0.1107336E+001  0.2771804E+03  0.7818608E-02  0.1097239E+00
         -2   -1    0    0    0  501 -0.00000000000E+00  0.00000000000E+00  0.71597454387E+02  0.71597454387E+02  0.00000000000E+00 0.  1.
          2   -1    0    0  501    0  0.00000000000E+00 -0.00000000000E+00 -0.26826705146E+03  0.26826705146E+03  0.00000000000E+00 0.  1.
         35    2    1    2    0    0  0.00000000000E+00  0.00000000000E+00 -0.19666959707E+03  0.33986450584E+03  0.27718035991E+03 0.  0.
         25    1    3    3    0    0 -0.16671850766E+02 -0.50192153140E+02 -0.15330725968E+03  0.20174319993E+03  0.12000000000E+03 0.  0.
         25    1    3    3    0    0  0.16671850766E+02  0.50192153140E+02 -0.43362337387E+02  0.13812130592E+03  0.12000000000E+03 0.  0.
<mgrwt>
<rscale>  0 0.27718036E+03</rscale>
<asrwt>0</asrwt>
<pdfrwt beam="1">  1        2 0.41271855E-01 0.27718036E+03</pdfrwt>
<pdfrwt beam="2">  1       -2 0.11014993E-01 0.27718036E+03</pdfrwt>
<totfact> 0.69649577E+03</totfact>
</mgrwt>
</event>
<event>
 5    1  0.1107336E+001  0.2735624E+03  0.7818608E-02  0.1099258E+00
          2   -1    0    0  501    0  0.00000000000E+00  0.00000000000E+00  0.13174881308E+04  0.13174881308E+04  0.00000000000E+00 0. -1.
         -2   -1    0    0    0  501 -0.00000000000E+00 -0.00000000000E+00 -0.14200583882E+02  0.14200583882E+02  0.00000000000E+00 0. -1.
         35    2    1    2    0    0  0.00000000000E+00  0.00000000000E+00  0.13032875469E+04  0.13316887147E+04  0.27356242955E+03 0.  0.
         25    1    3    3    0    0  0.40205014261E+02 -0.90590619573E+01  0.90036662061E+03  0.90926264703E+03  0.12000000000E+03 0.  0.
         25    1    3    3    0    0 -0.40205014261E+02  0.90590619573E+01  0.40292092630E+03  0.42242606765E+03  0.12000000000E+03 0.  0.
<mgrwt>
<rscale>  0 0.27356243E+03</rscale>
<asrwt>0</asrwt>
<pdfrwt beam="1">  1        2 0.20269039E+00 0.27356243E+03</pdfrwt>
<pdfrwt beam="2">  1       -2 0.21847063E-02 0.27356243E+03</pdfrwt>
<totfact> 0.11632336E+04</totfact>
</mgrwt>
</event>
<event>
 5    1  0.1107336E+001  0.2755343E+03  0.7818608E-02  0.1098153E+00
         -1   -1    0    0    0  501 -0.00000000000E+00  0.00000000000E+00  0.34660280910E+03  0.34660280910E+03  0.00000000000E+00 0.  1.
          1   -1    0    0  501    0  0.00000000000E+00 -0.00000000000E+00 -0.54759477243E+02  0.54759477243E+02  0.00000000000E+00 0.  1.
         35    2    1    2    0    0  0.00000000000E+00  0.00000000000E+00  0.29184333186E+03  0.40136228634E+03  0.27553430739E+03 0.  0.
         25    1    3    3    0    0  0.15043151200E+02  0.45276863091E+02  0.21583415936E+03  0.25151674909E+03  0.12000000000E+03 0.  0.
         25    1    3    3    0    0 -0.15043151200E+02 -0.45276863091E+02  0.76009172501E+02  0.14984553725E+03  0.12000000000E+03 0.  0.
<mgrwt>
<rscale>  0 0.27553431E+03</rscale>
<asrwt>0</asrwt>
<pdfrwt beam="1">  1        1 0.84245352E-02 0.27553431E+03</pdfrwt>
<pdfrwt beam="2">  1       -1 0.53323508E-01 0.27553431E+03</pdfrwt>
<totfact> 0.29399420E+03</totfact>
</mgrwt>
</event>
<event>
 5    1  0.1107336E+001  0.2763102E+03  0.7818608E-02  0.1097721E+00
          2   -1    0    0  501    0  0.00000000000E+00  0.00000000000E+00  0.30401102196E+03  0.30401102196E+03  0.00000000000E+00 0.  1.
         -2   -1    0    0    0  501 -0.00000000000E+00 -0.00000000000E+00 -0.62783343555E+02  0.62783343555E+02  0.00000000000E+00 0.  1.
         35    2    1    2    0    0  0.00000000000E+00  0.00000000000E+00  0.24122767841E+03  0.36679436552E+03  0.27631017670E+03 0.  0.
         25    1    3    3    0    0 -0.44439551051E+02  0.52024568246E+02  0.11752934507E+03  0.18136862008E+03  0.12000000000E+03 0.  0.
         25    1    3    3    0    0  0.44439551051E+02 -0.52024568246E+02  0.12369833334E+03  0.18542574543E+03  0.12000000000E+03 0.  0.
<mgrwt>
<rscale>  0 0.27631018E+03</rscale>
<asrwt>0</asrwt>
<pdfrwt beam="1">  1        2 0.46770926E-01 0.27631018E+03</pdfrwt>
<pdfrwt beam="2">  1       -2 0.96589761E-02 0.27631018E+03</pdfrwt>
<totfact> 0.75050188E+03</totfact>
</mgrwt>
</event>
<event>
 5    1  0.1107336E+001  0.2745651E+03  0.7818608E-02  0.1098695E+00
         -2   -1    0    0    0  501 -0.00000000000E+00  0.00000000000E+00  0.16148505511E+03  0.16148505511E+03  0.00000000000E+00 0.  1.
          2   -1    0    0  501    0  0.00000000000E+00 -0.00000000000E+00 -0.11670742161E+03  0.11670742161E+03  0.00000000000E+00 0.  1.
         35    2    1    2    0    0  0.00000000000E+00  0.00000000000E+00  0.44777633501E+02  0.27819247672E+03  0.27456514281E+03 0.  0.
         25    1    3    3    0    0  0.42234529547E+02  0.26698130974E+02  0.67130538206E+02  0.14629782925E+03  0.12000000000E+03 0.  0.
         25    1    3    3    0    0 -0.42234529547E+02 -0.26698130974E+02 -0.22352904705E+02  0.13189464747E+03  0.12000000000E+03 0.  0.
<mgrwt>
<rscale>  0 0.27456514E+03</rscale>
<asrwt>0</asrwt>
<pdfrwt beam="1">  1        2 0.17954988E-01 0.27456514E+03</pdfrwt>
<pdfrwt beam="2">  1       -2 0.24843855E-01 0.27456514E+03</pdfrwt>
<totfact> 0.44975361E+03</totfact>
</mgrwt>
</event>
<event>
 5    1  0.1107336E+001  0.2751251E+03  0.7818608E-02  0.1098382E+00
          2   -1    0    0  501    0  0.00000000000E+00  0.00000000000E+00  0.89816172158E+03  0.89816172158E+03  0.00000000000E+00 0. -1.
         -2   -1    0    0    0  501 -0.00000000000E+00 -0.00000000000E+00 -0.21069092882E+02  0.21069092882E+02  0.00000000000E+00 0. -1.
         35    2    1    2    0    0  0.00000000000E+00  0.00000000000E+00  0.87709262869E+03  0.91923081446E+03  0.27512508236E+03 0.  0.
         25    1    3    3    0    0  0.38608714359E+02 -0.23582808335E+02  0.27227070286E+03  0.30096198648E+03  0.12000000000E+03 0.  0.
         25    1    3    3    0    0 -0.38608714359E+02  0.23582808335E+02  0.60482192584E+03  0.61826882798E+03  0.12000000000E+03 0.  0.
<mgrwt>
<rscale>  0 0.27512508E+03</rscale>
<asrwt>0</asrwt>
<pdfrwt beam="1">  1        2 0.13817870E+00 0.27512508E+03</pdfrwt>
<pdfrwt beam="2">  1       -2 0.32413996E-02 0.27512508E+03</pdfrwt>
<totfact> 0.11457937E+04</totfact>
</mgrwt>
</event>
<event>
 5    1  0.1107336E+001  0.2751161E+03  0.7818608E-02  0.1098387E+00
          2   -1    0    0  501    0  0.00000000000E+00  0.00000000000E+00  0.29348728494E+03  0.29348728494E+03  0.00000000000E+00 0. -1.
         -2   -1    0    0    0  501 -0.00000000000E+00 -0.00000000000E+00 -0.64473733073E+02  0.64473733073E+02  0.00000000000E+00 0. -1.
         35    2    1    2    0    0  0.00000000000E+00  0.00000000000E+00  0.22901355187E+03  0.35796101801E+03  0.27511612726E+03 0.  0.
         25    1    3    3    0    0 -0.95137288867E+01 -0.53484944571E+02  0.62934354002E+02  0.14598590085E+03  0.12000000000E+03 0.  0.
         25    1    3    3    0    0  0.95137288867E+01  0.53484944571E+02  0.16607919787E+03  0.21197511716E+03  0.12000000000E+03 0.  0.
<mgrwt>
<rscale>  0 0.27511613E+03</rscale>
<asrwt>0</asrwt>
<pdfrwt beam="1">  1        2 0.45151889E-01 0.27511613E+03</pdfrwt>
<pdfrwt beam="2">  1       -2 0.99190360E-02 0.27511613E+03</pdfrwt>
<totfact> 0.74718147E+03</totfact>
</mgrwt>
</event>
<event>
 5    1  0.1107336E+001  0.2751207E+03  0.7818608E-02  0.1098384E+00
          2   -1    0    0  501    0  0.00000000000E+00  0.00000000000E+00  0.26709947819E+04  0.26709947819E+04  0.00000000000E+00 0. -1.
         -2   -1    0    0    0  501 -0.00000000000E+00 -0.00000000000E+00 -0.70845704366E+01  0.70845704366E+01  0.00000000000E+00 0. -1.
         35    2    1    2    0    0  0.00000000000E+00  0.00000000000E+00  0.26639102114E+04  0.26780793523E+04  0.27512070564E+03 0.  0.
         25    1    3    3    0    0 -0.39576703917E+02  0.17164450184E+02  0.18341790391E+04  0.18386064509E+04  0.12000000000E+03 0.  0.
         25    1    3    3    0    0  0.39576703917E+02 -0.17164450184E+02  0.82973117237E+03  0.83947290144E+03  0.12000000000E+03 0.  0.
<mgrwt>
<rscale>  0 0.27512071E+03</rscale>
<asrwt>0</asrwt>
<pdfrwt beam="1">  1        2 0.41092147E+00 0.27512071E+03</pdfrwt>
<pdfrwt beam="2">  1       -2 0.10899361E-02 0.27512071E+03</pdfrwt>
<totfact> 0.60642819E+03</totfact>
</mgrwt>
</event>
<event>
 5    1  0.1107336E+001  0.2746463E+03  0.7818608E-02  0.1098649E+00
          1   -1    0    0  501    0  0.00000000000E+00  0.00000000000E+00  0.13504698934E+04  0.13504698934E+04  0.00000000000E+00 0. -1.
         -1   -1    0    0    0  501 -0.00000000000E+00 -0.00000000000E+00 -0.13963772028E+02  0.13963772028E+02  0.00000000000E+00 0. -1.
         35    2    1    2    0    0  0.00000000000E+00  0.00000000000E+00  0.13365061214E+04  0.13644336654E+04  0.27464634512E+03 0.  0.
         25    1    3    3    0    0 -0.54191909388E+02  0.23814264985E+02  0.51482642422E+03  0.53193056815E+03  0.12000000000E+03 0.  0.
         25    1    3    3    0    0  0.54191909388E+02 -0.23814264985E+02  0.82167969713E+03  0.83250309725E+03  0.12000000000E+03 0.  0.
<mgrwt>
<rscale>  0 0.27464635E+03</rscale>
<asrwt>0</asrwt>
<pdfrwt beam="1">  1        1 0.20776450E+00 0.27464635E+03</pdfrwt>
<pdfrwt beam="2">  1       -1 0.21482737E-02 0.27464635E+03</pdfrwt>
<totfact> 0.55655740E+03</totfact>
</mgrwt>
</event>
<event>
 5    1  0.1107336E+001  0.2751541E+03  0.7818608E-02  0.1098365E+00
         -1   -1    0    0    0  501 -0.00000000000E+00  0.00000000000E+00  0.57642758308E+03  0.57642758308E+03  0.00000000000E+00 0.  1.
          1   -1    0    0  501    0  0.00000000000E+00 -0.00000000000E+00 -0.32835776677E+02  0.32835776677E+02  0.00000000000E+00 0.  1.
         35    2    1    2    0    0  0.00000000000E+00  0.00000000000E+00  0.54359180640E+03  0.60926335976E+03  0.27515411964E+03 0.  0.
         25    1    3    3    0    0 -0.55849888789E+02  0.18701762379E+01  0.18880567139E+03  0.23058683654E+03  0.12000000000E+03 0.  0.
         25    1    3    3    0    0  0.55849888789E+02 -0.18701762379E+01  0.35478613502E+03  0.37867652322E+03  0.12000000000E+03 0.  0.
<mgrwt>
<rscale>  0 0.27515412E+03</rscale>
<asrwt>0</asrwt>
<pdfrwt beam="1">  1        1 0.50516584E-02 0.27515412E+03</pdfrwt>
<pdfrwt beam="2">  1       -1 0.88681159E-01 0.27515412E+03</pdfrwt>
<totfact> 0.21491082E+03</totfact>
</mgrwt>
</event>
<event>
 5    1  0.1107336E+001  0.2750177E+03  0.7818608E-02  0.1098442E+00
         -1   -1    0    0    0  501 -0.00000000000E+00  0.00000000000E+00  0.93336127073E+03  0.93336127073E+03  0.00000000000E+00 0. -1.
          1   -1    0    0  501    0  0.00000000000E+00 -0.00000000000E+00 -0.20258694764E+02  0.20258694764E+02  0.00000000000E+00 0. -1.
         35    2    1    2    0    0  0.00000000000E+00  0.00000000000E+00  0.91310257596E+03  0.95361996549E+03  0.27501768008E+03 0.  0.
         25    1    3    3    0    0  0.59082628913E+01  0.43731945769E+02  0.28106461720E+03  0.30877938677E+03  0.12000000000E+03 0.  0.
         25    1    3    3    0    0 -0.59082628913E+01 -0.43731945769E+02  0.63203795877E+03  0.64484057873E+03  0.12000000000E+03 0.  0.
<mgrwt>
<rscale>  0 0.27501768E+03</rscale>
<asrwt>0</asrwt>
<pdfrwt beam="1">  1        1 0.31167230E-02 0.27501768E+03</pdfrwt>
<pdfrwt beam="2">  1       -1 0.14359401E+00 0.27501768E+03</pdfrwt>
<totfact> 0.13676307E+03</totfact>
</mgrwt>
</event>
<event>
 5    1  0.1107336E+001  0.2743854E+03  0.7818608E-02  0.1098796E+00
         -3   -1    0    0    0  501 -0.00000000000E+00  0.00000000000E+00  0.10856408048E+02  0.10856408048E+02  0.00000000000E+00 0. -1.
          3   -1    0    0  501    0  0.00000000000E+00 -0.00000000000E+00 -0.17337069742E+04  0.17337069742E+04  0.00000000000E+00 0. -1.
         35    2    1    2    0    0  0.00000000000E+00  0.00000000000E+00 -0.17228505662E+04  0.17445633823E+04  0.27438535199E+03 0.  0.
         25    1    3    3    0    0 -0.47876024499E+02  0.41442015094E+02 -0.99052338643E+03  0.99977304094E+03  0.12000000000E+03 0.  0.
         25    1    3    3    0    0  0.47876024499E+02 -0.41442015094E+02 -0.73232717974E+03  0.74479034132E+03  0.12000000000E+03 0.  0.
<mgrwt>
<rscale>  0 0.27438535E+03</rscale>
<asrwt>0</asrwt>
<pdfrwt beam="1">  1        3 0.26672412E+00 0.27438535E+03</pdfrwt>
<pdfrwt beam="2">  1       -3 0.16702168E-02 0.27438535E+03</pdfrwt>
<totfact> 0.21319110E+02</totfact>
</mgrwt>
</event>
<event>
 5    1  0.1107336E+001  0.2751826E+03  0.7818608E-02  0.1098350E+00
         -2   -1    0    0    0  501 -0.00000000000E+00  0.00000000000E+00  0.11231414583E+02  0.11231414583E+02  0.00000000000E+00 0. -1.
          2   -1    0    0  501    0  0.00000000000E+00 -0.00000000000E+00 -0.16855726708E+04  0.16855726708E+04  0.00000000000E+00 0. -1.
         35    2    1    2    0    0  0.00000000000E+00  0.00000000000E+00 -0.16743412562E+04  0.16968040853E+04  0.27518259738E+03 0.  0.
         25    1    3    3    0    0 -0.66574755849E+02 -0.76289427164E+01 -0.79770439677E+03  0.80945827780E+03  0.12000000000E+03 0.  0.
         25    1    3    3    0    0  0.66574755849E+02  0.76289427164E+01 -0.87663685940E+03  0.88734580753E+03  0.12000000000E+03 0.  0.
<mgrwt>
<rscale>  0 0.27518260E+03</rscale>
<asrwt>0</asrwt>
<pdfrwt beam="1">  1        2 0.25931885E+00 0.27518260E+03</pdfrwt>
<pdfrwt beam="2">  1       -2 0.17279101E-02 0.27518260E+03</pdfrwt>
<totfact> 0.10423590E+04</totfact>
</mgrwt>
</event>
<event>
 5    1  0.1107336E+001  0.2758711E+03  0.7818608E-02  0.1097966E+00
         -2   -1    0    0    0  501 -0.00000000000E+00  0.00000000000E+00  0.10505739757E+02  0.10505739757E+02  0.00000000000E+00 0.  1.
          2   -1    0    0  501    0  0.00000000000E+00 -0.00000000000E+00 -0.18110302908E+04  0.18110302908E+04  0.00000000000E+00 0.  1.
         35    2    1    2    0    0  0.00000000000E+00  0.00000000000E+00 -0.18005245510E+04  0.18215360306E+04  0.27587107805E+03 0.  0.
         25    1    3    3    0    0 -0.64774129737E+01 -0.45545466378E+02 -0.12310557308E+04  0.12377457569E+04  0.12000000000E+03 0.  0.
         25    1    3    3    0    0  0.64774129737E+01  0.45545466378E+02 -0.56946882020E+03  0.58379027361E+03  0.12000000000E+03 0.  0.
<mgrwt>
<rscale>  0 0.27587108E+03</rscale>
<asrwt>0</asrwt>
<pdfrwt beam="1">  1        2 0.27862004E+00 0.27587108E+03</pdfrwt>
<pdfrwt beam="2">  1       -2 0.16162677E-02 0.27587108E+03</pdfrwt>
<totfact> 0.98760931E+03</totfact>
</mgrwt>
</event>
<event>
 5    1  0.1107336E+001  0.2723716E+03  0.7818608E-02  0.1099930E+00
         -2   -1    0    0    0  501 -0.00000000000E+00  0.00000000000E+00  0.60244285615E+02  0.60244285615E+02  0.00000000000E+00 0.  1.
          2   -1    0    0  501    0  0.00000000000E+00 -0.00000000000E+00 -0.30785612681E+03  0.30785612681E+03  0.00000000000E+00 0.  1.
         35    2    1    2    0    0  0.00000000000E+00  0.00000000000E+00 -0.24761184120E+03  0.36810041243E+03  0.27237160228E+03 0.  0.
         25    1    3    3    0    0  0.29143492416E+02  0.52051424103E+02 -0.91038045588E+02  0.16200808512E+03  0.12000000000E+03 0.  0.
         25    1    3    3    0    0 -0.29143492416E+02 -0.52051424103E+02 -0.15657379561E+03  0.20609232730E+03  0.12000000000E+03 0.  0.
<mgrwt>
<rscale>  0 0.27237160E+03</rscale>
<asrwt>0</asrwt>
<pdfrwt beam="1">  1        2 0.47362481E-01 0.27237160E+03</pdfrwt>
<pdfrwt beam="2">  1       -2 0.92683517E-02 0.27237160E+03</pdfrwt>
<totfact> 0.78996821E+03</totfact>
</mgrwt>
</event>
<event>
 5    1  0.1107336E+001  0.2750113E+03  0.7818608E-02  0.1098445E+00
         -2   -1    0    0    0  501 -0.00000000000E+00  0.00000000000E+00  0.21567865901E+02  0.21567865901E+02  0.00000000000E+00 0.  1.
          2   -1    0    0  501    0  0.00000000000E+00 -0.00000000000E+00 -0.87666517414E+03  0.87666517414E+03  0.00000000000E+00 0.  1.
         35    2    1    2    0    0  0.00000000000E+00  0.00000000000E+00 -0.85509730824E+03  0.89823304004E+03  0.27501125007E+03 0.  0.
         25    1    3    3    0    0  0.12706767391E+02  0.39143158448E+01 -0.64249660774E+03  0.65374205522E+03  0.12000000000E+03 0.  0.
         25    1    3    3    0    0 -0.12706767391E+02 -0.39143158448E+01 -0.21260070050E+03  0.24449098482E+03  0.12000000000E+03 0.  0.
<mgrwt>
<rscale>  0 0.27501125E+03</rscale>
<asrwt>0</asrwt>
<pdfrwt beam="1">  1        2 0.13487158E+00 0.27501125E+03</pdfrwt>
<pdfrwt beam="2">  1       -2 0.33181328E-02 0.27501125E+03</pdfrwt>
<totfact> 0.11426798E+04</totfact>
</mgrwt>
</event>
<event>
 5    1  0.1107336E+001  0.2746180E+03  0.7818608E-02  0.1098665E+00
          2   -1    0    0  501    0  0.00000000000E+00  0.00000000000E+00  0.57581788676E+03  0.57581788676E+03  0.00000000000E+00 0.  1.
         -2   -1    0    0    0  501 -0.00000000000E+00 -0.00000000000E+00 -0.32742579152E+02  0.32742579152E+02  0.00000000000E+00 0.  1.
         35    2    1    2    0    0  0.00000000000E+00  0.00000000000E+00  0.54307530761E+03  0.60856046591E+03  0.27461800913E+03 0.  0.
         25    1    3    3    0    0  0.46150752719E+02  0.37484555338E+02  0.20436690025E+03  0.24433749975E+03  0.12000000000E+03 0.  0.
         25    1    3    3    0    0 -0.46150752719E+02 -0.37484555338E+02  0.33870840736E+03  0.36422296616E+03  0.12000000000E+03 0.  0.
<mgrwt>
<rscale>  0 0.27461801E+03</rscale>
<asrwt>0</asrwt>
<pdfrwt beam="1">  1        2 0.88587360E-01 0.27461801E+03</pdfrwt>
<pdfrwt beam="2">  1       -2 0.50373203E-02 0.27461801E+03</pdfrwt>
<totfact> 0.10197329E+04</totfact>
</mgrwt>
</event>
<event>
 5    1  0.1107336E+001  0.2774386E+03  0.7818608E-02  0.1097096E+00
         -1   -1    0    0    0  501 -0.00000000000E+00  0.00000000000E+00  0.27439635519E+02  0.27439635519E+02  0.00000000000E+00 0.  1.
          1   -1    0    0  501    0  0.00000000000E+00 -0.00000000000E+00 -0.70128650804E+03  0.70128650804E+03  0.00000000000E+00 0.  1.
         35    2    1    2    0    0  0.00000000000E+00  0.00000000000E+00 -0.67384687253E+03  0.72872614356E+03  0.27743861429E+03 0.  0.
         25    1    3    3    0    0  0.20881881358E+02 -0.42424765920E+02 -0.20280793079E+03  0.24034760353E+03  0.12000000000E+03 0.  0.
         25    1    3    3    0    0 -0.20881881358E+02  0.42424765920E+02 -0.47103894173E+03  0.48837854003E+03  0.12000000000E+03 0.  0.
<mgrwt>
<rscale>  0 0.27743861E+03</rscale>
<asrwt>0</asrwt>
<pdfrwt beam="1">  1        1 0.10789021E+00 0.27743861E+03</pdfrwt>
<pdfrwt beam="2">  1       -1 0.42214831E-02 0.27743861E+03</pdfrwt>
<totfact> 0.63635537E+03</totfact>
</mgrwt>
</event>
<event>
 5    1  0.1107336E+001  0.2747148E+03  0.7818608E-02  0.1098611E+00
          2   -1    0    0  501    0  0.00000000000E+00  0.00000000000E+00  0.66874845458E+03  0.66874845458E+03  0.00000000000E+00 0.  1.
         -2   -1    0    0    0  501 -0.00000000000E+00 -0.00000000000E+00 -0.28212483439E+02  0.28212483439E+02  0.00000000000E+00 0.  1.
         35    2    1    2    0    0  0.00000000000E+00  0.00000000000E+00  0.64053597114E+03  0.69696093802E+03  0.27471479538E+03 0.  0.
         25    1    3    3    0    0  0.38131683100E+02  0.40296816863E+02  0.41482813493E+03  0.43538516308E+03  0.12000000000E+03 0.  0.
         25    1    3    3    0    0 -0.38131683100E+02 -0.40296816863E+02  0.22570783621E+03  0.26157577494E+03  0.12000000000E+03 0.  0.
<mgrwt>
<rscale>  0 0.27471480E+03</rscale>
<asrwt>0</asrwt>
<pdfrwt beam="1">  1        2 0.10288437E+00 0.27471480E+03</pdfrwt>
<pdfrwt beam="2">  1       -2 0.43403826E-02 0.27471480E+03</pdfrwt>
<totfact> 0.10722481E+04</totfact>
</mgrwt>
</event>
<event>
 5    1  0.1107336E+001  0.2763836E+03  0.7818608E-02  0.1097681E+00
          2   -1    0    0  501    0  0.00000000000E+00  0.00000000000E+00  0.30058647114E+04  0.30058647114E+04  0.00000000000E+00 0.  1.
         -2   -1    0    0    0  501 -0.00000000000E+00 -0.00000000000E+00 -0.63532357600E+01  0.63532357600E+01  0.00000000000E+00 0.  1.
         35    2    1    2    0    0  0.00000000000E+00  0.00000000000E+00  0.29995114756E+04  0.30122179471E+04  0.27638355359E+03 0.  0.
         25    1    3    3    0    0  0.57399850525E+01  0.11480478577E+02  0.76603700374E+03  0.77548529317E+03  0.12000000000E+03 0.  0.
         25    1    3    3    0    0 -0.57399850525E+01 -0.11480478577E+02  0.22334744719E+04  0.22367326540E+04  0.12000000000E+03 0.  0.
<mgrwt>
<rscale>  0 0.27638355E+03</rscale>
<asrwt>0</asrwt>
<pdfrwt beam="1">  1        2 0.46243959E+00 0.27638355E+03</pdfrwt>
<pdfrwt beam="2">  1       -2 0.97742329E-03 0.27638355E+03</pdfrwt>
<totfact> 0.45552742E+03</totfact>
</mgrwt>
</event>
<event>
 5    1  0.1107336E+001  0.2751780E+03  0.7818608E-02  0.1098352E+00
         -2   -1    0    0    0  501 -0.00000000000E+00  0.00000000000E+00  0.23708110237E+02  0.23708110237E+02  0.00000000000E+00 0. -1.
          2   -1    0    0  501    0  0.00000000000E+00 -0.00000000000E+00 -0.79849200611E+03  0.79849200611E+03  0.00000000000E+00 0. -1.
         35    2    1    2    0    0  0.00000000000E+00  0.00000000000E+00 -0.77478389587E+03  0.82220011635E+03  0.27517802604E+03 0.  0.
         25    1    3    3    0    0  0.43789196764E+02  0.42050896719E+02 -0.30053929255E+03  0.32925618906E+03  0.12000000000E+03 0.  0.
         25    1    3    3    0    0 -0.43789196764E+02 -0.42050896719E+02 -0.47424460333E+03  0.49294392729E+03  0.12000000000E+03 0.  0.
<mgrwt>
<rscale>  0 0.27517803E+03</rscale>
<asrwt>0</asrwt>
<pdfrwt beam="1">  1        2 0.12284492E+00 0.27517803E+03</pdfrwt>
<pdfrwt beam="2">  1       -2 0.36474017E-02 0.27517803E+03</pdfrwt>
<totfact> 0.11195909E+04</totfact>
</mgrwt>
</event>
<event>
 5    1  0.1107336E+001  0.2744082E+03  0.7818608E-02  0.1098783E+00
          2   -1    0    0  501    0  0.00000000000E+00  0.00000000000E+00  0.94891248787E+03  0.94891248787E+03  0.00000000000E+00 0.  1.
         -2   -1    0    0    0  501 -0.00000000000E+00 -0.00000000000E+00 -0.19838469710E+02  0.19838469710E+02  0.00000000000E+00 0.  1.
         35    2    1    2    0    0  0.00000000000E+00  0.00000000000E+00  0.92907401816E+03  0.96875095758E+03  0.27440824804E+03 0.  0.
         25    1    3    3    0    0 -0.59472722854E+02 -0.25031775093E+02  0.40746163482E+03  0.42963772923E+03  0.12000000000E+03 0.  0.
         25    1    3    3    0    0  0.59472722854E+02  0.25031775093E+02  0.52161238334E+03  0.53911322835E+03  0.12000000000E+03 0.  0.
<mgrwt>
<rscale>  0 0.27440825E+03</rscale>
<asrwt>0</asrwt>
<pdfrwt beam="1">  1        2 0.14598650E+00 0.27440825E+03</pdfrwt>
<pdfrwt beam="2">  1       -2 0.30520730E-02 0.27440825E+03</pdfrwt>
<totfact> 0.11632864E+04</totfact>
</mgrwt>
</event>
<event>
 5    1  0.1107336E+001  0.2752291E+03  0.7818608E-02  0.1098324E+00
          2   -1    0    0  501    0  0.00000000000E+00  0.00000000000E+00  0.30828137281E+04  0.30828137281E+04  0.00000000000E+00 0. -1.
         -2   -1    0    0    0  501 -0.00000000000E+00 -0.00000000000E+00 -0.61430139993E+01  0.61430139993E+01  0.00000000000E+00 0. -1.
         35    2    1    2    0    0  0.00000000000E+00  0.00000000000E+00  0.30766707141E+04  0.30889567421E+04  0.27522912556E+03 0.  0.
         25    1    3    3    0    0 -0.22696529901E+02 -0.56846522352E+02  0.18540068840E+04  0.18588943449E+04  0.12000000000E+03 0.  0.
         25    1    3    3    0    0  0.22696529901E+02  0.56846522352E+02  0.12226638301E+04  0.12300623972E+04  0.12000000000E+03 0.  0.
<mgrwt>
<rscale>  0 0.27522913E+03</rscale>
<asrwt>0</asrwt>
<pdfrwt beam="1">  1        2 0.47427780E+00 0.27522913E+03</pdfrwt>
<pdfrwt beam="2">  1       -2 0.94508154E-03 0.27522913E+03</pdfrwt>
<totfact> 0.43028713E+03</totfact>
</mgrwt>
</event>
<event>
 5    1  0.1107336E+001  0.2753290E+03  0.7818608E-02  0.1098268E+00
          2   -1    0    0  501    0  0.00000000000E+00  0.00000000000E+00  0.36700695527E+04  0.36700695527E+04  0.00000000000E+00 0. -1.
         -2   -1    0    0    0  501 -0.00000000000E+00 -0.00000000000E+00 -0.51638017844E+01  0.51638017844E+01  0.00000000000E+00 0. -1.
         35    2    1    2    0    0  0.00000000000E+00  0.00000000000E+00  0.36649057509E+04  0.36752333545E+04  0.27532897926E+03 0.  0.
         25    1    3    3    0    0  0.23336479708E+01  0.62497568394E+02  0.14947275695E+04  0.15008403976E+04  0.12000000000E+03 0.  0.
         25    1    3    3    0    0 -0.23336479708E+01 -0.62497568394E+02  0.21701781814E+04  0.21743929569E+04  0.12000000000E+03 0.  0.
<mgrwt>
<rscale>  0 0.27532898E+03</rscale>
<asrwt>0</asrwt>
<pdfrwt beam="1">  1        2 0.56462400E+00 0.27532898E+03</pdfrwt>
<pdfrwt beam="2">  1       -2 0.79443398E-03 0.27532898E+03</pdfrwt>
<totfact> 0.23156106E+03</totfact>
</mgrwt>
</event>
<event>
 5    1  0.1107336E+001  0.2736882E+03  0.7818608E-02  0.1099187E+00
         -2   -1    0    0    0  501 -0.00000000000E+00  0.00000000000E+00  0.99545521890E+01  0.99545521890E+01  0.00000000000E+00 0.  1.
          2   -1    0    0  501    0  0.00000000000E+00 -0.00000000000E+00 -0.18811804566E+04  0.18811804566E+04  0.00000000000E+00 0.  1.
         35    2    1    2    0    0  0.00000000000E+00  0.00000000000E+00 -0.18712259044E+04  0.18911350088E+04  0.27368820970E+03 0.  0.
         25    1    3    3    0    0  0.27396208763E+02 -0.51492768416E+02 -0.11456817481E+04  0.11534247810E+04  0.12000000000E+03 0.  0.
         25    1    3    3    0    0 -0.27396208763E+02  0.51492768416E+02 -0.72554415631E+03  0.73771022780E+03  0.12000000000E+03 0.  0.
<mgrwt>
<rscale>  0 0.27368821E+03</rscale>
<asrwt>0</asrwt>
<pdfrwt beam="1">  1        2 0.28941222E+00 0.27368821E+03</pdfrwt>
<pdfrwt beam="2">  1       -2 0.15314704E-02 0.27368821E+03</pdfrwt>
<totfact> 0.98172211E+03</totfact>
</mgrwt>
</event>
<event>
 5    1  0.1107336E+001  0.2745583E+03  0.7818608E-02  0.1098699E+00
         -1   -1    0    0    0  501 -0.00000000000E+00  0.00000000000E+00  0.28222454787E+03  0.28222454787E+03  0.00000000000E+00 0.  1.
          1   -1    0    0  501    0  0.00000000000E+00 -0.00000000000E+00 -0.66775090161E+02  0.66775090161E+02  0.00000000000E+00 0.  1.
         35    2    1    2    0    0  0.00000000000E+00  0.00000000000E+00  0.21544945771E+03  0.34899963803E+03  0.27455833354E+03 0.  0.
         25    1    3    3    0    0  0.17064285180E+02  0.47364748456E+02  0.52157826064E+02  0.14019646231E+03  0.12000000000E+03 0.  0.
         25    1    3    3    0    0 -0.17064285180E+02 -0.47364748456E+02  0.16329163165E+03  0.20880317572E+03  0.12000000000E+03 0.  0.
<mgrwt>
<rscale>  0 0.27455833E+03</rscale>
<asrwt>0</asrwt>
<pdfrwt beam="1">  1        1 0.10273091E-01 0.27455833E+03</pdfrwt>
<pdfrwt beam="2">  1       -1 0.43419160E-01 0.27455833E+03</pdfrwt>
<totfact> 0.32800089E+03</totfact>
</mgrwt>
</event>
<event>
 5    1  0.1107336E+001  0.2792000E+03  0.7818608E-02  0.1096127E+00
          3   -1    0    0  501    0  0.00000000000E+00  0.00000000000E+00  0.56123999903E+02  0.56123999903E+02  0.00000000000E+00 0.  1.
         -3   -1    0    0    0  501 -0.00000000000E+00 -0.00000000000E+00 -0.34723394933E+03  0.34723394933E+03  0.00000000000E+00 0.  1.
         35    2    1    2    0    0  0.00000000000E+00  0.00000000000E+00 -0.29110994943E+03  0.40335794923E+03  0.27919998666E+03 0.  0.
         25    1    3    3    0    0 -0.68224883482E+02  0.95291573934E+01 -0.17230006366E+03  0.22098133746E+03  0.12000000000E+03 0.  0.
         25    1    3    3    0    0  0.68224883482E+02 -0.95291573934E+01 -0.11880988576E+03  0.18237661177E+03  0.12000000000E+03 0.  0.
<mgrwt>
<rscale>  0 0.27919999E+03</rscale>
<asrwt>0</asrwt>
<pdfrwt beam="1">  1        3 0.86344618E-02 0.27919999E+03</pdfrwt>
<pdfrwt beam="2">  1       -3 0.53420606E-01 0.27919999E+03</pdfrwt>
<totfact> 0.83710949E+02</totfact>
</mgrwt>
</event>
<event>
 5    1  0.1107336E+001  0.2706056E+03  0.7818608E-02  0.1100934E+00
         -1   -1    0    0    0  501 -0.00000000000E+00  0.00000000000E+00  0.38413974514E+03  0.38413974514E+03  0.00000000000E+00 0. -1.
          1   -1    0    0  501    0  0.00000000000E+00 -0.00000000000E+00 -0.47656741226E+02  0.47656741226E+02  0.00000000000E+00 0. -1.
         35    2    1    2    0    0  0.00000000000E+00  0.00000000000E+00  0.33648300392E+03  0.43179648637E+03  0.27060560548E+03 0.  0.
         25    1    3    3    0    0  0.23813507326E+02  0.56380230561E+02  0.18849044315E+03  0.23167749284E+03  0.12000000000E+03 0.  0.
         25    1    3    3    0    0 -0.23813507326E+02 -0.56380230561E+02  0.14799256077E+03  0.20011899353E+03  0.12000000000E+03 0.  0.
<mgrwt>
<rscale>  0 0.27060561E+03</rscale>
<asrwt>0</asrwt>
<pdfrwt beam="1">  1        1 0.73318066E-02 0.27060561E+03</pdfrwt>
<pdfrwt beam="2">  1       -1 0.59098420E-01 0.27060561E+03</pdfrwt>
<totfact> 0.29215851E+03</totfact>
</mgrwt>
</event>
<event>
 5    1  0.1107336E+001  0.2748232E+03  0.7818608E-02  0.1098550E+00
          1   -1    0    0  501    0  0.00000000000E+00  0.00000000000E+00  0.66474823147E+02  0.66474823147E+02  0.00000000000E+00 0. -1.
         -1   -1    0    0    0  501 -0.00000000000E+00 -0.00000000000E+00 -0.28404652112E+03  0.28404652112E+03  0.00000000000E+00 0. -1.
         35    2    1    2    0    0  0.00000000000E+00  0.00000000000E+00 -0.21757169798E+03  0.35052134427E+03  0.27482315956E+03 0.  0.
         25    1    3    3    0    0 -0.29806058351E+02 -0.58090096921E+02 -0.12766420940E+03  0.18697863738E+03  0.12000000000E+03 0.  0.
         25    1    3    3    0    0  0.29806058351E+02  0.58090096921E+02 -0.89907488578E+02  0.16354270689E+03  0.12000000000E+03 0.  0.
<mgrwt>
<rscale>  0 0.27482316E+03</rscale>
<asrwt>0</asrwt>
<pdfrwt beam="1">  1        1 0.10226896E-01 0.27482316E+03</pdfrwt>
<pdfrwt beam="2">  1       -1 0.43699464E-01 0.27482316E+03</pdfrwt>
<totfact> 0.32619565E+03</totfact>
</mgrwt>
</event>
<event>
 5    1  0.1107336E+001  0.2794247E+03  0.7818608E-02  0.1096004E+00
          2   -1    0    0  501    0  0.00000000000E+00  0.00000000000E+00  0.51292460609E+02  0.51292460609E+02  0.00000000000E+00 0. -1.
         -2   -1    0    0    0  501 -0.00000000000E+00 -0.00000000000E+00 -0.38055391694E+03  0.38055391694E+03  0.00000000000E+00 0. -1.
         35    2    1    2    0    0  0.00000000000E+00  0.00000000000E+00 -0.32926145633E+03  0.43184637755E+03  0.27942474332E+03 0.  0.
         25    1    3    3    0    0  0.41583263874E+02 -0.55933449569E+02 -0.18963836265E+03  0.23499027044E+03  0.12000000000E+03 0.  0.
         25    1    3    3    0    0 -0.41583263874E+02  0.55933449569E+02 -0.13962309368E+03  0.19685610710E+03  0.12000000000E+03 0.  0.
<mgrwt>
<rscale>  0 0.27942474E+03</rscale>
<asrwt>0</asrwt>
<pdfrwt beam="1">  1        2 0.78911480E-02 0.27942474E+03</pdfrwt>
<pdfrwt beam="2">  1       -2 0.58546755E-01 0.27942474E+03</pdfrwt>
<totfact> 0.24031449E+03</totfact>
</mgrwt>
</event>
<event>
 5    1  0.1107336E+001  0.2742676E+03  0.7818608E-02  0.1098862E+00
          1   -1    0    0  501    0  0.00000000000E+00  0.00000000000E+00  0.82471013376E+03  0.82471013376E+03  0.00000000000E+00 0.  1.
         -1   -1    0    0    0  501 -0.00000000000E+00 -0.00000000000E+00 -0.22802766959E+02  0.22802766959E+02  0.00000000000E+00 0.  1.
         35    2    1    2    0    0  0.00000000000E+00  0.00000000000E+00  0.80190736680E+03  0.84751290072E+03  0.27426755542E+03 0.  0.
         25    1    3    3    0    0  0.52583604035E+02  0.11852446101E+02  0.52063882903E+03  0.53700121618E+03  0.12000000000E+03 0.  0.
         25    1    3    3    0    0 -0.52583604035E+02 -0.11852446101E+02  0.28126853777E+03  0.31051168453E+03  0.12000000000E+03 0.  0.
<mgrwt>
<rscale>  0 0.27426756E+03</rscale>
<asrwt>0</asrwt>
<pdfrwt beam="1">  1        1 0.12687846E+00 0.27426756E+03</pdfrwt>
<pdfrwt beam="2">  1       -1 0.35081186E-02 0.27426756E+03</pdfrwt>
<totfact> 0.65585972E+03</totfact>
</mgrwt>
</event>
<event>
 5    1  0.1107336E+001  0.2769443E+03  0.7818608E-02  0.1097370E+00
         -1   -1    0    0    0  501 -0.00000000000E+00  0.00000000000E+00  0.16336301410E+02  0.16336301410E+02  0.00000000000E+00 0.  1.
          1   -1    0    0  501    0  0.00000000000E+00 -0.00000000000E+00 -0.11737380887E+04  0.11737380887E+04  0.00000000000E+00 0.  1.
         35    2    1    2    0    0  0.00000000000E+00  0.00000000000E+00 -0.11574017873E+04  0.11900743901E+04  0.27694432071E+03 0.  0.
         25    1    3    3    0    0 -0.13100613609E+01 -0.49059180410E+02 -0.36967945684E+03  0.39175428555E+03  0.12000000000E+03 0.  0.
         25    1    3    3    0    0  0.13100613609E+01  0.49059180410E+02 -0.78772233049E+03  0.79832010459E+03  0.12000000000E+03 0.  0.
<mgrwt>
<rscale>  0 0.27694432E+03</rscale>
<asrwt>0</asrwt>
<pdfrwt beam="1">  1        1 0.18057515E+00 0.27694432E+03</pdfrwt>
<pdfrwt beam="2">  1       -1 0.25132763E-02 0.27694432E+03</pdfrwt>
<totfact> 0.58548958E+03</totfact>
</mgrwt>
</event>
<event>
 5    1  0.1107336E+001  0.2709764E+03  0.7818608E-02  0.1100722E+00
          1   -1    0    0  501    0  0.00000000000E+00  0.00000000000E+00  0.33007424605E+03  0.33007424605E+03  0.00000000000E+00 0. -1.
         -1   -1    0    0    0  501 -0.00000000000E+00 -0.00000000000E+00 -0.55614922113E+02  0.55614922113E+02  0.00000000000E+00 0. -1.
         35    2    1    2    0    0  0.00000000000E+00  0.00000000000E+00  0.27445932394E+03  0.38568916817E+03  0.27097640846E+03 0.  0.
         25    1    3    3    0    0  0.30717804276E+02 -0.17626505713E+02  0.63233190734E+02  0.14018813649E+03  0.12000000000E+03 0.  0.
         25    1    3    3    0    0 -0.30717804276E+02  0.17626505713E+02  0.21122613321E+03  0.24550103167E+03  0.12000000000E+03 0.  0.
<mgrwt>
<rscale>  0 0.27097641E+03</rscale>
<asrwt>0</asrwt>
<pdfrwt beam="1">  1        1 0.50780652E-01 0.27097641E+03</pdfrwt>
<pdfrwt beam="2">  1       -1 0.85561420E-02 0.27097641E+03</pdfrwt>
<totfact> 0.59786384E+03</totfact>
</mgrwt>
</event>
<event>
 5    1  0.1107336E+001  0.2748007E+03  0.7818608E-02  0.1098563E+00
         -1   -1    0    0    0  501 -0.00000000000E+00  0.00000000000E+00  0.20619572852E+02  0.20619572852E+02  0.00000000000E+00 0.  1.
          1   -1    0    0  501    0  0.00000000000E+00 -0.00000000000E+00 -0.91557964418E+03  0.91557964418E+03  0.00000000000E+00 0.  1.
         35    2    1    2    0    0  0.00000000000E+00  0.00000000000E+00 -0.89496007133E+03  0.93619921703E+03  0.27480073635E+03 0.  0.
         25    1    3    3    0    0 -0.48904936412E+02 -0.45459811422E+02 -0.43202717644E+03  0.45332744064E+03  0.12000000000E+03 0.  0.
         25    1    3    3    0    0  0.48904936412E+02  0.45459811422E+02 -0.46293289490E+03  0.48287177639E+03  0.12000000000E+03 0.  0.
<mgrwt>
<rscale>  0 0.27480074E+03</rscale>
<asrwt>0</asrwt>
<pdfrwt beam="1">  1        1 0.14085844E+00 0.27480074E+03</pdfrwt>
<pdfrwt beam="2">  1       -1 0.31722412E-02 0.27480074E+03</pdfrwt>
<totfact> 0.64394672E+03</totfact>
</mgrwt>
</event>
<event>
 5    1  0.1107336E+001  0.2720968E+03  0.7818608E-02  0.1100086E+00
          1   -1    0    0  501    0  0.00000000000E+00  0.00000000000E+00  0.33200268870E+03  0.33200268870E+03  0.00000000000E+00 0.  1.
         -1   -1    0    0    0  501 -0.00000000000E+00 -0.00000000000E+00 -0.55750057302E+02  0.55750057302E+02  0.00000000000E+00 0.  1.
         35    2    1    2    0    0  0.00000000000E+00  0.00000000000E+00  0.27625263140E+03  0.38775274600E+03  0.27209681306E+03 0.  0.
         25    1    3    3    0    0  0.31286882284E+01  0.50702353477E+02  0.19384305366E+03  0.23357150252E+03  0.12000000000E+03 0.  0.
         25    1    3    3    0    0 -0.31286882284E+01 -0.50702353477E+02  0.82409577735E+02  0.15418124348E+03  0.12000000000E+03 0.  0.
<mgrwt>
<rscale>  0 0.27209681E+03</rscale>
<asrwt>0</asrwt>
<pdfrwt beam="1">  1        1 0.51077336E-01 0.27209681E+03</pdfrwt>
<pdfrwt beam="2">  1       -1 0.85769321E-02 0.27209681E+03</pdfrwt>
<totfact> 0.59136010E+03</totfact>
</mgrwt>
</event>
<event>
 5    1  0.1107336E+001  0.2726214E+03  0.7818608E-02  0.1099789E+00
         -2   -1    0    0    0  501 -0.00000000000E+00  0.00000000000E+00  0.42466885162E+02  0.42466885162E+02  0.00000000000E+00 0. -1.
          2   -1    0    0  501    0  0.00000000000E+00 -0.00000000000E+00 -0.43753156308E+03  0.43753156308E+03  0.00000000000E+00 0. -1.
         35    2    1    2    0    0  0.00000000000E+00  0.00000000000E+00 -0.39506467792E+03  0.47999844824E+03  0.27262136852E+03 0.  0.
         25    1    3    3    0    0 -0.43867134817E+02  0.25459761155E+02 -0.26813701310E+03  0.29811068875E+03  0.12000000000E+03 0.  0.
         25    1    3    3    0    0  0.43867134817E+02 -0.25459761155E+02 -0.12692766482E+03  0.18188775949E+03  0.12000000000E+03 0.  0.
<mgrwt>
<rscale>  0 0.27262137E+03</rscale>
<asrwt>0</asrwt>
<pdfrwt beam="1">  1        2 0.67312547E-01 0.27262137E+03</pdfrwt>
<pdfrwt beam="2">  1       -2 0.65333670E-02 0.27262137E+03</pdfrwt>
<totfact> 0.93150571E+03</totfact>
</mgrwt>
</event>
<event>
 5    1  0.1107336E+001  0.2754444E+03  0.7818608E-02  0.1098203E+00
         -1   -1    0    0    0  501 -0.00000000000E+00  0.00000000000E+00  0.97408656809E+02  0.97408656809E+02  0.00000000000E+00 0.  1.
          1   -1    0    0  501    0  0.00000000000E+00 -0.00000000000E+00 -0.19471989982E+03  0.19471989982E+03  0.00000000000E+00 0.  1.
         35    2    1    2    0    0  0.00000000000E+00  0.00000000000E+00 -0.97311243014E+02  0.29212855663E+03  0.27544439654E+03 0.  0.
         25    1    3    3    0    0 -0.33790453695E+02 -0.49537369068E+02 -0.81715163404E+02  0.15707677621E+03  0.12000000000E+03 0.  0.
         25    1    3    3    0    0  0.33790453695E+02  0.49537369068E+02 -0.15596079609E+02  0.13505178042E+03  0.12000000000E+03 0.  0.
<mgrwt>
<rscale>  0 0.27544440E+03</rscale>
<asrwt>0</asrwt>
<pdfrwt beam="1">  1        1 0.29956908E-01 0.27544440E+03</pdfrwt>
<pdfrwt beam="2">  1       -1 0.14985947E-01 0.27544440E+03</pdfrwt>
<totfact> 0.48518798E+03</totfact>
</mgrwt>
</event>
<event>
 5    1  0.1107336E+001  0.2665813E+03  0.7818608E-02  0.1103252E+00
          1   -1    0    0  501    0  0.00000000000E+00  0.00000000000E+00  0.13876023474E+04  0.13876023474E+04  0.00000000000E+00 0. -1.
         -1   -1    0    0    0  501 -0.00000000000E+00 -0.00000000000E+00 -0.12803666422E+02  0.12803666422E+02  0.00000000000E+00 0. -1.
         35    2    1    2    0    0  0.00000000000E+00  0.00000000000E+00  0.13747986809E+04  0.14004060138E+04  0.26658130154E+03 0.  0.
         25    1    3    3    0    0  0.32303258772E+02 -0.27577070800E+02  0.89504397184E+03  0.90405072142E+03  0.12000000000E+03 0.  0.
         25    1    3    3    0    0 -0.32303258772E+02  0.27577070800E+02  0.47975470910E+03  0.49635529237E+03  0.12000000000E+03 0.  0.
<mgrwt>
<rscale>  0 0.26658130E+03</rscale>
<asrwt>0</asrwt>
<pdfrwt beam="1">  1        1 0.21347717E+00 0.26658130E+03</pdfrwt>
<pdfrwt beam="2">  1       -1 0.19697959E-02 0.26658130E+03</pdfrwt>
<totfact> 0.59618273E+03</totfact>
</mgrwt>
</event>
<event>
 5    1  0.1107336E+001  0.2729090E+03  0.7818608E-02  0.1099626E+00
          2   -1    0    0  501    0  0.00000000000E+00  0.00000000000E+00  0.14686553110E+03  0.14686553110E+03  0.00000000000E+00 0. -1.
         -2   -1    0    0    0  501 -0.00000000000E+00 -0.00000000000E+00 -0.12678152801E+03  0.12678152801E+03  0.00000000000E+00 0. -1.
         35    2    1    2    0    0  0.00000000000E+00  0.00000000000E+00  0.20084003093E+02  0.27364705912E+03  0.27290904306E+03 0.  0.
         25    1    3    3    0    0  0.47872466834E+02 -0.25625360883E+02  0.45795182508E+02  0.13944759210E+03  0.12000000000E+03 0.  0.
         25    1    3    3    0    0 -0.47872466834E+02  0.25625360883E+02 -0.25711179415E+02  0.13419946702E+03  0.12000000000E+03 0.  0.
<mgrwt>
<rscale>  0 0.27290904E+03</rscale>
<asrwt>0</asrwt>
<pdfrwt beam="1">  1        2 0.22594697E-01 0.27290904E+03</pdfrwt>
<pdfrwt beam="2">  1       -2 0.19504850E-01 0.27290904E+03</pdfrwt>
<totfact> 0.52572114E+03</totfact>
</mgrwt>
</event>
<event>
 5    1  0.1107336E+001  0.2752736E+03  0.7818608E-02  0.1098299E+00
          1   -1    0    0  501    0  0.00000000000E+00  0.00000000000E+00  0.11275076973E+03  0.11275076973E+03  0.00000000000E+00 0. -1.
         -1   -1    0    0    0  501 -0.00000000000E+00 -0.00000000000E+00 -0.16801554720E+03  0.16801554720E+03  0.00000000000E+00 0. -1.
         35    2    1    2    0    0  0.00000000000E+00  0.00000000000E+00 -0.55264777469E+02  0.28076631693E+03  0.27527355321E+03 0.  0.
         25    1    3    3    0    0 -0.27786279337E+02 -0.56541485628E+02 -0.52087158880E+02  0.14519672530E+03  0.12000000000E+03 0.  0.
         25    1    3    3    0    0  0.27786279337E+02  0.56541485628E+02 -0.31776185885E+01  0.13556959164E+03  0.12000000000E+03 0.  0.
<mgrwt>
<rscale>  0 0.27527355E+03</rscale>
<asrwt>0</asrwt>
<pdfrwt beam="1">  1        1 0.17346272E-01 0.27527355E+03</pdfrwt>
<pdfrwt beam="2">  1       -1 0.25848546E-01 0.27527355E+03</pdfrwt>
<totfact> 0.40259509E+03</totfact>
</mgrwt>
</event>
<event>
 5    1  0.1107336E+001  0.2740633E+03  0.7818608E-02  0.1098976E+00
          1   -1    0    0  501    0  0.00000000000E+00  0.00000000000E+00  0.10673344430E+03  0.10673344430E+03  0.00000000000E+00 0.  1.
         -1   -1    0    0    0  501 -0.00000000000E+00 -0.00000000000E+00 -0.17593058216E+03  0.17593058216E+03  0.00000000000E+00 0.  1.
         35    2    1    2    0    0  0.00000000000E+00  0.00000000000E+00 -0.69197137865E+02  0.28266402645E+03  0.27406332838E+03 0.  0.
         25    1    3    3    0    0  0.34485409056E+02 -0.43491535525E+02 -0.71741501410E+02  0.15042473242E+03  0.12000000000E+03 0.  0.
         25    1    3    3    0    0 -0.34485409056E+02  0.43491535525E+02  0.25443635457E+01  0.13223929403E+03  0.12000000000E+03 0.  0.
<mgrwt>
<rscale>  0 0.27406333E+03</rscale>
<asrwt>0</asrwt>
<pdfrwt beam="1">  1        1 0.16420530E-01 0.27406333E+03</pdfrwt>
<pdfrwt beam="2">  1       -1 0.27066243E-01 0.27406333E+03</pdfrwt>
<totfact> 0.40028381E+03</totfact>
</mgrwt>
</event>
<event>
 5    1  0.1107336E+001  0.2749001E+03  0.7818608E-02  0.1098507E+00
         -1   -1    0    0    0  501 -0.00000000000E+00  0.00000000000E+00  0.15700663297E+02  0.15700663297E+02  0.00000000000E+00 0. -1.
          1   -1    0    0  501    0  0.00000000000E+00 -0.00000000000E+00 -0.12032943618E+04  0.12032943618E+04  0.00000000000E+00 0. -1.
         35    2    1    2    0    0  0.00000000000E+00  0.00000000000E+00 -0.11875936986E+04  0.12189950251E+04  0.27490012457E+03 0.  0.
         25    1    3    3    0    0 -0.55157757940E+02 -0.35942139420E+02 -0.53800472371E+03  0.55514259283E+03  0.12000000000E+03 0.  0.
         25    1    3    3    0    0  0.55157757940E+02  0.35942139420E+02 -0.64958897484E+03  0.66385243231E+03  0.12000000000E+03 0.  0.
<mgrwt>
<rscale>  0 0.27490012E+03</rscale>
<asrwt>0</asrwt>
<pdfrwt beam="1">  1        1 0.18512227E+00 0.27490012E+03</pdfrwt>
<pdfrwt beam="2">  1       -1 0.24154858E-02 0.27490012E+03</pdfrwt>
<totfact> 0.59160956E+03</totfact>
</mgrwt>
</event>
<event>
 5    1  0.1107336E+001  0.2749683E+03  0.7818608E-02  0.1098469E+00
          2   -1    0    0  501    0  0.00000000000E+00  0.00000000000E+00  0.51345647326E+03  0.51345647326E+03  0.00000000000E+00 0. -1.
         -2   -1    0    0    0  501 -0.00000000000E+00 -0.00000000000E+00 -0.36813025672E+02  0.36813025672E+02  0.00000000000E+00 0. -1.
         35    2    1    2    0    0  0.00000000000E+00  0.00000000000E+00  0.47664344759E+03  0.55026949893E+03  0.27496826240E+03 0.  0.
         25    1    3    3    0    0  0.60993341925E+02  0.20978639773E+02  0.27530869596E+03  0.30717286527E+03  0.12000000000E+03 0.  0.
         25    1    3    3    0    0 -0.60993341925E+02 -0.20978639773E+02  0.20133475163E+03  0.24309663367E+03  0.12000000000E+03 0.  0.
<mgrwt>
<rscale>  0 0.27496826E+03</rscale>
<asrwt>0</asrwt>
<pdfrwt beam="1">  1        2 0.78993298E-01 0.27496826E+03</pdfrwt>
<pdfrwt beam="2">  1       -2 0.56635428E-02 0.27496826E+03</pdfrwt>
<totfact> 0.97161050E+03</totfact>
</mgrwt>
</event>
<event>
 5    1  0.1107336E+001  0.2759290E+03  0.7818608E-02  0.1097933E+00
          3   -1    0    0  501    0  0.00000000000E+00  0.00000000000E+00  0.22235883501E+03  0.22235883501E+03  0.00000000000E+00 0. -1.
         -3   -1    0    0    0  501 -0.00000000000E+00 -0.00000000000E+00 -0.85601262418E+02  0.85601262418E+02  0.00000000000E+00 0. -1.
         35    2    1    2    0    0  0.00000000000E+00  0.00000000000E+00  0.13675757259E+03  0.30796009743E+03  0.27592895453E+03 0.  0.
         25    1    3    3    0    0 -0.17106109789E+02 -0.59396679069E+02  0.36543703646E+02  0.13984286450E+03  0.12000000000E+03 0.  0.
         25    1    3    3    0    0  0.17106109789E+02  0.59396679069E+02  0.10021386895E+03  0.16811723292E+03  0.12000000000E+03 0.  0.
<mgrwt>
<rscale>  0 0.27592895E+03</rscale>
<asrwt>0</asrwt>
<pdfrwt beam="1">  1        3 0.34209051E-01 0.27592895E+03</pdfrwt>
<pdfrwt beam="2">  1       -3 0.13169425E-01 0.27592895E+03</pdfrwt>
<totfact> 0.98999889E+02</totfact>
</mgrwt>
</event>
<event>
 5    1  0.1107336E+001  0.2748505E+03  0.7818608E-02  0.1098535E+00
          3   -1    0    0  501    0  0.00000000000E+00  0.00000000000E+00  0.59089108267E+02  0.59089108267E+02  0.00000000000E+00 0. -1.
         -3   -1    0    0    0  501 -0.00000000000E+00 -0.00000000000E+00 -0.31961389589E+03  0.31961389589E+03  0.00000000000E+00 0. -1.
         35    2    1    2    0    0  0.00000000000E+00  0.00000000000E+00 -0.26052478762E+03  0.37870300415E+03  0.27485050553E+03 0.  0.
         25    1    3    3    0    0 -0.14743315228E+02 -0.37254048052E+02 -0.20421167178E+03  0.24022413770E+03  0.12000000000E+03 0.  0.
         25    1    3    3    0    0  0.14743315228E+02  0.37254048052E+02 -0.56313115838E+02  0.13847886646E+03  0.12000000000E+03 0.  0.
<mgrwt>
<rscale>  0 0.27485051E+03</rscale>
<asrwt>0</asrwt>
<pdfrwt beam="1">  1        3 0.90906321E-02 0.27485051E+03</pdfrwt>
<pdfrwt beam="2">  1       -3 0.49171368E-01 0.27485051E+03</pdfrwt>
<totfact> 0.90777900E+02</totfact>
</mgrwt>
</event>
<event>
 5    1  0.1107336E+001  0.2781209E+03  0.7818608E-02  0.1096720E+00
         -2   -1    0    0    0  501 -0.00000000000E+00  0.00000000000E+00  0.56212068658E+02  0.56212068658E+02  0.00000000000E+00 0.  1.
          2   -1    0    0  501    0  0.00000000000E+00 -0.00000000000E+00 -0.34401513387E+03  0.34401513387E+03  0.00000000000E+00 0.  1.
         35    2    1    2    0    0  0.00000000000E+00  0.00000000000E+00 -0.28780306521E+03  0.40022720253E+03  0.27812085376E+03 0.  0.
         25    1    3    3    0    0 -0.24517885297E+02  0.63400956841E+02 -0.11828037348E+03  0.18168944597E+03  0.12000000000E+03 0.  0.
         25    1    3    3    0    0  0.24517885297E+02 -0.63400956841E+02 -0.16952269174E+03  0.21853775656E+03  0.12000000000E+03 0.  0.
<mgrwt>
<rscale>  0 0.27812085E+03</rscale>
<asrwt>0</asrwt>
<pdfrwt beam="1">  1        2 0.52925405E-01 0.27812085E+03</pdfrwt>
<pdfrwt beam="2">  1       -2 0.86480107E-02 0.27812085E+03</pdfrwt>
<totfact> 0.78238877E+03</totfact>
</mgrwt>
</event>
<event>
 5    1  0.1107336E+001  0.2747068E+03  0.7818608E-02  0.1098616E+00
         -1   -1    0    0    0  501 -0.00000000000E+00  0.00000000000E+00  0.19344106895E+02  0.19344106895E+02  0.00000000000E+00 0.  1.
          1   -1    0    0  501    0  0.00000000000E+00 -0.00000000000E+00 -0.97528214905E+03  0.97528214905E+03  0.00000000000E+00 0.  1.
         35    2    1    2    0    0  0.00000000000E+00  0.00000000000E+00 -0.95593804216E+03  0.99462625595E+03  0.27470684115E+03 0.  0.
         25    1    3    3    0    0  0.25448729632E+02 -0.43442567248E+02 -0.63707598524E+03  0.65023127075E+03  0.12000000000E+03 0.  0.
         25    1    3    3    0    0 -0.25448729632E+02  0.43442567248E+02 -0.31886205692E+03  0.34439498520E+03  0.12000000000E+03 0.  0.
<mgrwt>
<rscale>  0 0.27470684E+03</rscale>
<asrwt>0</asrwt>
<pdfrwt beam="1">  1        1 0.15004343E+00 0.27470684E+03</pdfrwt>
<pdfrwt beam="2">  1       -1 0.29760160E-02 0.27470684E+03</pdfrwt>
<totfact> 0.63673684E+03</totfact>
</mgrwt>
</event>
<event>
 5    1  0.1107336E+001  0.2747599E+03  0.7818608E-02  0.1098586E+00
          1   -1    0    0  501    0  0.00000000000E+00  0.00000000000E+00  0.60205795867E+02  0.60205795867E+02  0.00000000000E+00 0.  1.
         -1   -1    0    0    0  501 -0.00000000000E+00 -0.00000000000E+00 -0.31347899776E+03  0.31347899776E+03  0.00000000000E+00 0.  1.
         35    2    1    2    0    0  0.00000000000E+00  0.00000000000E+00 -0.25327320189E+03  0.37368479363E+03  0.27475991373E+03 0.  0.
         25    1    3    3    0    0 -0.94584445089E+01 -0.63464536374E+02 -0.10097384589E+03  0.16944889230E+03  0.12000000000E+03 0.  0.
         25    1    3    3    0    0  0.94584445089E+01  0.63464536374E+02 -0.15229935600E+03  0.20423590132E+03  0.12000000000E+03 0.  0.
<mgrwt>
<rscale>  0 0.27475991E+03</rscale>
<asrwt>0</asrwt>
<pdfrwt beam="1">  1        1 0.92624301E-02 0.27475991E+03</pdfrwt>
<pdfrwt beam="2">  1       -1 0.48227538E-01 0.27475991E+03</pdfrwt>
<totfact> 0.31152073E+03</totfact>
</mgrwt>
</event>
<event>
 5    1  0.1107336E+001  0.2752464E+03  0.7818608E-02  0.1098314E+00
          2   -1    0    0  501    0  0.00000000000E+00  0.00000000000E+00  0.10306914508E+03  0.10306914508E+03  0.00000000000E+00 0.  1.
         -2   -1    0    0    0  501 -0.00000000000E+00 -0.00000000000E+00 -0.18376159464E+03  0.18376159464E+03  0.00000000000E+00 0.  1.
         35    2    1    2    0    0  0.00000000000E+00  0.00000000000E+00 -0.80692449551E+02  0.28683073972E+03  0.27524643837E+03 0.  0.
         25    1    3    3    0    0 -0.32694941724E+02 -0.35863990432E+02 -0.89057137850E+02  0.15711893211E+03  0.12000000000E+03 0.  0.
         25    1    3    3    0    0  0.32694941724E+02  0.35863990432E+02  0.83646882993E+01  0.12971180761E+03  0.12000000000E+03 0.  0.
<mgrwt>
<rscale>  0 0.27524644E+03</rscale>
<asrwt>0</asrwt>
<pdfrwt beam="1">  1        2 0.15856792E-01 0.27524644E+03</pdfrwt>
<pdfrwt beam="2">  1       -2 0.28271014E-01 0.27524644E+03</pdfrwt>
<totfact> 0.41321966E+03</totfact>
</mgrwt>
</event>
<event>
 5    1  0.1107336E+001  0.2743512E+03  0.7818608E-02  0.1098815E+00
          2   -1    0    0  501    0  0.00000000000E+00  0.00000000000E+00  0.12898935110E+03  0.12898935110E+03  0.00000000000E+00 0. -1.
         -2   -1    0    0    0  501 -0.00000000000E+00 -0.00000000000E+00 -0.14588135942E+03  0.14588135942E+03  0.00000000000E+00 0. -1.
         35    2    1    2    0    0  0.00000000000E+00  0.00000000000E+00 -0.16892008312E+02  0.27487071052E+03  0.27435117561E+03 0.  0.
         25    1    3    3    0    0  0.10426838630E+02 -0.61447636357E+02  0.14676063587E+02  0.13601440299E+03  0.12000000000E+03 0.  0.
         25    1    3    3    0    0 -0.10426838630E+02  0.61447636357E+02 -0.31568071899E+02  0.13885630753E+03  0.12000000000E+03 0.  0.
<mgrwt>
<rscale>  0 0.27435118E+03</rscale>
<asrwt>0</asrwt>
<pdfrwt beam="1">  1        2 0.19844516E-01 0.27435118E+03</pdfrwt>
<pdfrwt beam="2">  1       -2 0.22443286E-01 0.27435118E+03</pdfrwt>
<totfact> 0.47872009E+03</totfact>
</mgrwt>
</event>
<event>
 5    1  0.1107336E+001  0.2750069E+03  0.7818608E-02  0.1098448E+00
         -2   -1    0    0    0  501 -0.00000000000E+00  0.00000000000E+00  0.38013082720E+02  0.38013082720E+02  0.00000000000E+00 0.  1.
          2   -1    0    0  501    0  0.00000000000E+00 -0.00000000000E+00 -0.49738663917E+03  0.49738663917E+03  0.00000000000E+00 0.  1.
         35    2    1    2    0    0  0.00000000000E+00  0.00000000000E+00 -0.45937355645E+03  0.53539972189E+03  0.27500690507E+03 0.  0.
         25    1    3    3    0    0 -0.30286467736E+01  0.54026125665E+02 -0.30705341708E+03  0.33408052307E+03  0.12000000000E+03 0.  0.
         25    1    3    3    0    0  0.30286467736E+01 -0.54026125665E+02 -0.15232013937E+03  0.20131919882E+03  0.12000000000E+03 0.  0.
<mgrwt>
<rscale>  0 0.27500691E+03</rscale>
<asrwt>0</asrwt>
<pdfrwt beam="1">  1        2 0.76521018E-01 0.27500691E+03</pdfrwt>
<pdfrwt beam="2">  1       -2 0.58481668E-02 0.27500691E+03</pdfrwt>
<totfact> 0.95862696E+03</totfact>
</mgrwt>
</event>
<event>
 5    1  0.1107336E+001  0.2749585E+03  0.7818608E-02  0.1098475E+00
          2   -1    0    0  501    0  0.00000000000E+00  0.00000000000E+00  0.11982838808E+03  0.11982838808E+03  0.00000000000E+00 0.  1.
         -2   -1    0    0    0  501 -0.00000000000E+00 -0.00000000000E+00 -0.15773009385E+03  0.15773009385E+03  0.00000000000E+00 0.  1.
         35    2    1    2    0    0  0.00000000000E+00  0.00000000000E+00 -0.37901705779E+02  0.27755848193E+03  0.27495849067E+03 0.  0.
         25    1    3    3    0    0 -0.30794349962E+02 -0.65903907181E+01  0.40844546130E+02  0.13061394331E+03  0.12000000000E+03 0.  0.
         25    1    3    3    0    0  0.30794349962E+02  0.65903907181E+01 -0.78746251909E+02  0.14694453862E+03  0.12000000000E+03 0.  0.
<mgrwt>
<rscale>  0 0.27495849E+03</rscale>
<asrwt>0</asrwt>
<pdfrwt beam="1">  1        2 0.18435137E-01 0.27495849E+03</pdfrwt>
<pdfrwt beam="2">  1       -2 0.24266168E-01 0.27495849E+03</pdfrwt>
<totfact> 0.45467169E+03</totfact>
</mgrwt>
</event>
<event>
 5    1  0.1107336E+001  0.2754062E+03  0.7818608E-02  0.1098225E+00
          1   -1    0    0  501    0  0.00000000000E+00  0.00000000000E+00  0.14110029338E+04  0.14110029338E+04  0.00000000000E+00 0. -1.
         -1   -1    0    0    0  501 -0.00000000000E+00 -0.00000000000E+00 -0.13438766697E+02  0.13438766697E+02  0.00000000000E+00 0. -1.
         35    2    1    2    0    0  0.00000000000E+00  0.00000000000E+00  0.13975641671E+04  0.14244417005E+04  0.27540616722E+03 0.  0.
         25    1    3    3    0    0  0.69379357073E+01  0.14994117728E+02  0.36004855174E+03  0.37987882032E+03  0.12000000000E+03 0.  0.
         25    1    3    3    0    0 -0.69379357073E+01 -0.14994117728E+02  0.10375156154E+04  0.10445628802E+04  0.12000000000E+03 0.  0.
<mgrwt>
<rscale>  0 0.27540617E+03</rscale>
<asrwt>0</asrwt>
<pdfrwt beam="1">  1        1 0.21707726E+00 0.27540617E+03</pdfrwt>
<pdfrwt beam="2">  1       -1 0.20675037E-02 0.27540617E+03</pdfrwt>
<totfact> 0.53591767E+03</totfact>
</mgrwt>
</event>
<event>
 5    1  0.1107336E+001  0.2753700E+03  0.7818608E-02  0.1098245E+00
          1   -1    0    0  501    0  0.00000000000E+00  0.00000000000E+00  0.84905832093E+02  0.84905832093E+02  0.00000000000E+00 0.  1.
         -1   -1    0    0    0  501 -0.00000000000E+00 -0.00000000000E+00 -0.22327270287E+03  0.22327270287E+03  0.00000000000E+00 0.  1.
         35    2    1    2    0    0  0.00000000000E+00  0.00000000000E+00 -0.13836687078E+03  0.30817853497E+03  0.27536996656E+03 0.  0.
         25    1    3    3    0    0 -0.51209618505E+02  0.25065018323E+02 -0.28731782229E+02  0.13592716977E+03  0.12000000000E+03 0.  0.
         25    1    3    3    0    0  0.51209618505E+02 -0.25065018323E+02 -0.10963508855E+03  0.17225136520E+03  0.12000000000E+03 0.  0.
<mgrwt>
<rscale>  0 0.27536997E+03</rscale>
<asrwt>0</asrwt>
<pdfrwt beam="1">  1        1 0.13062436E-01 0.27536997E+03</pdfrwt>
<pdfrwt beam="2">  1       -1 0.34349646E-01 0.27536997E+03</pdfrwt>
<totfact> 0.36017589E+03</totfact>
</mgrwt>
</event>
<event>
 5    1  0.1107336E+001  0.2749306E+03  0.7818608E-02  0.1098490E+00
         -1   -1    0    0    0  501 -0.00000000000E+00  0.00000000000E+00  0.20707227714E+02  0.20707227714E+02  0.00000000000E+00 0. -1.
          1   -1    0    0  501    0  0.00000000000E+00 -0.00000000000E+00 -0.91256613632E+03  0.91256613632E+03  0.00000000000E+00 0. -1.
         35    2    1    2    0    0  0.00000000000E+00  0.00000000000E+00 -0.89185890861E+03  0.93327336403E+03  0.27493064427E+03 0.  0.
         25    1    3    3    0    0 -0.58741043102E+02 -0.28194686158E+02 -0.39212092402E+03  0.41521593121E+03  0.12000000000E+03 0.  0.
         25    1    3    3    0    0  0.58741043102E+02  0.28194686158E+02 -0.49973798458E+03  0.51805743283E+03  0.12000000000E+03 0.  0.
<mgrwt>
<rscale>  0 0.27493064E+03</rscale>
<asrwt>0</asrwt>
<pdfrwt beam="1">  1        1 0.14039477E+00 0.27493064E+03</pdfrwt>
<pdfrwt beam="2">  1       -1 0.31857278E-02 0.27493064E+03</pdfrwt>
<totfact> 0.64340186E+03</totfact>
</mgrwt>
</event>
<event>
 5    1  0.1107336E+001  0.2770358E+03  0.7818608E-02  0.1097319E+00
          2   -1    0    0  501    0  0.00000000000E+00  0.00000000000E+00  0.43527481726E+03  0.43527481726E+03  0.00000000000E+00 0. -1.
         -2   -1    0    0    0  501 -0.00000000000E+00 -0.00000000000E+00 -0.44080671119E+02  0.44080671119E+02  0.00000000000E+00 0. -1.
         35    2    1    2    0    0  0.00000000000E+00  0.00000000000E+00  0.39119414614E+03  0.47935548838E+03  0.27703578156E+03 0.  0.
         25    1    3    3    0    0  0.56585888201E+02  0.36096571233E+02  0.22466824639E+03  0.26340225157E+03  0.12000000000E+03 0.  0.
         25    1    3    3    0    0 -0.56585888201E+02 -0.36096571233E+02  0.16652589975E+03  0.21595323680E+03  0.12000000000E+03 0.  0.
<mgrwt>
<rscale>  0 0.27703578E+03</rscale>
<asrwt>0</asrwt>
<pdfrwt beam="1">  1        2 0.66965354E-01 0.27703578E+03</pdfrwt>
<pdfrwt beam="2">  1       -2 0.67816420E-02 0.27703578E+03</pdfrwt>
<totfact> 0.88493863E+03</totfact>
</mgrwt>
</event>
<event>
 5    1  0.1107336E+001  0.2757532E+03  0.7818608E-02  0.1098031E+00
          2   -1    0    0  501    0  0.00000000000E+00  0.00000000000E+00  0.33406377784E+03  0.33406377784E+03  0.00000000000E+00 0.  1.
         -2   -1    0    0    0  501 -0.00000000000E+00 -0.00000000000E+00 -0.56905170480E+02  0.56905170480E+02  0.00000000000E+00 0.  1.
         35    2    1    2    0    0  0.00000000000E+00  0.00000000000E+00  0.27715860736E+03  0.39096894832E+03  0.27575319566E+03 0.  0.
         25    1    3    3    0    0 -0.10996699294E+02 -0.21303601455E+02  0.22864376559E+03  0.25933133705E+03  0.12000000000E+03 0.  0.
         25    1    3    3    0    0  0.10996699294E+02  0.21303601455E+02  0.48514841769E+02  0.13163761127E+03  0.12000000000E+03 0.  0.
<mgrwt>
<rscale>  0 0.27575320E+03</rscale>
<asrwt>0</asrwt>
<pdfrwt beam="1">  1        2 0.51394426E-01 0.27575320E+03</pdfrwt>
<pdfrwt beam="2">  1       -2 0.87546418E-02 0.27575320E+03</pdfrwt>
<totfact> 0.79188247E+03</totfact>
</mgrwt>
</event>
<event>
 5    1  0.1107336E+001  0.2755482E+03  0.7818608E-02  0.1098146E+00
         -2   -1    0    0    0  501 -0.00000000000E+00  0.00000000000E+00  0.33771637303E+02  0.33771637303E+02  0.00000000000E+00 0.  1.
          2   -1    0    0  501    0  0.00000000000E+00 -0.00000000000E+00 -0.56206045915E+03  0.56206045915E+03  0.00000000000E+00 0.  1.
         35    2    1    2    0    0  0.00000000000E+00  0.00000000000E+00 -0.52828882185E+03  0.59583209646E+03  0.27554819519E+03 0.  0.
         25    1    3    3    0    0 -0.61109352899E+02 -0.11221167645E+02 -0.32222416020E+03  0.34941190167E+03  0.12000000000E+03 0.  0.
         25    1    3    3    0    0  0.61109352899E+02  0.11221167645E+02 -0.20606466165E+03  0.24642019478E+03  0.12000000000E+03 0.  0.
<mgrwt>
<rscale>  0 0.27554820E+03</rscale>
<asrwt>0</asrwt>
<pdfrwt beam="1">  1        2 0.86470836E-01 0.27554820E+03</pdfrwt>
<pdfrwt beam="2">  1       -2 0.51956368E-02 0.27554820E+03</pdfrwt>
<totfact> 0.10003275E+04</totfact>
</mgrwt>
</event>
<event>
 5    1  0.1107336E+001  0.2748748E+03  0.7818608E-02  0.1098522E+00
         -4   -1    0    0    0  501 -0.00000000000E+00  0.00000000000E+00  0.27330353961E+03  0.27330353961E+03  0.00000000000E+00 0.  1.
          4   -1    0    0  501    0  0.00000000000E+00 -0.00000000000E+00 -0.69113750073E+02  0.69113750073E+02  0.00000000000E+00 0.  1.
         35    2    1    2    0    0  0.00000000000E+00  0.00000000000E+00  0.20418978953E+03  0.34241728968E+03  0.27487475352E+03 0.  0.
         25    1    3    3    0    0 -0.12078371719E+02  0.32237763730E+02  0.30491692923E+02  0.12851032570E+03  0.12000000000E+03 0.  0.
         25    1    3    3    0    0  0.12078371719E+02 -0.32237763730E+02  0.17369809661E+03  0.21390696398E+03  0.12000000000E+03 0.  0.
<mgrwt>
<rscale>  0 0.27487475E+03</rscale>
<asrwt>0</asrwt>
<pdfrwt beam="1">  1        4 0.10632885E-01 0.27487475E+03</pdfrwt>
<pdfrwt beam="2">  1       -4 0.42046698E-01 0.27487475E+03</pdfrwt>
<totfact> 0.70586427E+02</totfact>
</mgrwt>
</event>
<event>
 5    1  0.1107336E+001  0.2750027E+03  0.7818608E-02  0.1098450E+00
          1   -1    0    0  501    0  0.00000000000E+00  0.00000000000E+00  0.10880702998E+03  0.10880702998E+03  0.00000000000E+00 0.  1.
         -1   -1    0    0    0  501 -0.00000000000E+00 -0.00000000000E+00 -0.17376292508E+03  0.17376292508E+03  0.00000000000E+00 0.  1.
         35    2    1    2    0    0  0.00000000000E+00  0.00000000000E+00 -0.64955895097E+02  0.28256995506E+03  0.27500274761E+03 0.  0.
         25    1    3    3    0    0  0.65313021672E+02 -0.12574367129E+01 -0.48371472689E+02  0.14493850874E+03  0.12000000000E+03 0.  0.
         25    1    3    3    0    0 -0.65313021672E+02  0.12574367129E+01 -0.16584422408E+02  0.13763144631E+03  0.12000000000E+03 0.  0.
<mgrwt>
<rscale>  0 0.27500275E+03</rscale>
<asrwt>0</asrwt>
<pdfrwt beam="1">  1        1 0.16739543E-01 0.27500275E+03</pdfrwt>
<pdfrwt beam="2">  1       -1 0.26732757E-01 0.27500275E+03</pdfrwt>
<totfact> 0.39860932E+03</totfact>
</mgrwt>
</event>
<event>
 5    1  0.1107336E+001  0.2751435E+03  0.7818608E-02  0.1098371E+00
          2   -1    0    0  501    0  0.00000000000E+00  0.00000000000E+00  0.49411505968E+03  0.49411505968E+03  0.00000000000E+00 0.  1.
         -2   -1    0    0    0  501 -0.00000000000E+00 -0.00000000000E+00 -0.38302778596E+02  0.38302778596E+02  0.00000000000E+00 0.  1.
         35    2    1    2    0    0  0.00000000000E+00  0.00000000000E+00  0.45581228108E+03  0.53241783827E+03  0.27514345154E+03 0.  0.
         25    1    3    3    0    0 -0.66669789809E+02  0.84238327425E+01  0.23407344510E+03  0.27148885710E+03  0.12000000000E+03 0.  0.
         25    1    3    3    0    0  0.66669789809E+02 -0.84238327425E+01  0.22173883598E+03  0.26092898117E+03  0.12000000000E+03 0.  0.
<mgrwt>
<rscale>  0 0.27514345E+03</rscale>
<asrwt>0</asrwt>
<pdfrwt beam="1">  1        2 0.76017697E-01 0.27514345E+03</pdfrwt>
<pdfrwt beam="2">  1       -2 0.58927355E-02 0.27514345E+03</pdfrwt>
<totfact> 0.95456980E+03</totfact>
</mgrwt>
</event>
<event>
 5    1  0.1107336E+001  0.2750580E+03  0.7818608E-02  0.1098419E+00
          1   -1    0    0  501    0  0.00000000000E+00  0.00000000000E+00  0.23830750876E+04  0.23830750876E+04  0.00000000000E+00 0.  1.
         -1   -1    0    0    0  501 -0.00000000000E+00 -0.00000000000E+00 -0.79369012190E+01  0.79369012190E+01  0.00000000000E+00 0.  1.
         35    2    1    2    0    0  0.00000000000E+00  0.00000000000E+00  0.23751381863E+04  0.23910119888E+04  0.27505804164E+03 0.  0.
         25    1    3    3    0    0 -0.11439061687E+02 -0.33505324773E+01  0.61278452317E+03  0.62453738882E+03  0.12000000000E+03 0.  0.
         25    1    3    3    0    0  0.11439061687E+02  0.33505324773E+01  0.17623536632E+04  0.17664746000E+04  0.12000000000E+03 0.  0.
<mgrwt>
<rscale>  0 0.27505804E+03</rscale>
<asrwt>0</asrwt>
<pdfrwt beam="1">  1        1 0.36662637E+00 0.27505804E+03</pdfrwt>
<pdfrwt beam="2">  1       -1 0.12210636E-02 0.27505804E+03</pdfrwt>
<totfact> 0.26686018E+03</totfact>
</mgrwt>
</event>
<event>
 5    1  0.1107336E+001  0.2751088E+03  0.7818608E-02  0.1098391E+00
         -2   -1    0    0    0  501 -0.00000000000E+00  0.00000000000E+00  0.22951819091E+02  0.22951819091E+02  0.00000000000E+00 0.  1.
          2   -1    0    0  501    0  0.00000000000E+00 -0.00000000000E+00 -0.82438857433E+03  0.82438857433E+03  0.00000000000E+00 0.  1.
         35    2    1    2    0    0  0.00000000000E+00  0.00000000000E+00 -0.80143675524E+03  0.84734039342E+03  0.27510883242E+03 0.  0.
         25    1    3    3    0    0  0.32577401383E+02  0.15631579920E+02 -0.22606245829E+03  0.25847604999E+03  0.12000000000E+03 0.  0.
         25    1    3    3    0    0 -0.32577401383E+02 -0.15631579920E+02 -0.57537429695E+03  0.58886434343E+03  0.12000000000E+03 0.  0.
<mgrwt>
<rscale>  0 0.27510883E+03</rscale>
<asrwt>0</asrwt>
<pdfrwt beam="1">  1        2 0.12682897E+00 0.27510883E+03</pdfrwt>
<pdfrwt beam="2">  1       -2 0.35310501E-02 0.27510883E+03</pdfrwt>
<totfact> 0.11282345E+04</totfact>
</mgrwt>
</event>
<event>
 5    1  0.1107336E+001  0.2723441E+03  0.7818608E-02  0.1099945E+00
          2   -1    0    0  501    0  0.00000000000E+00  0.00000000000E+00  0.15200114298E+03  0.15200114298E+03  0.00000000000E+00 0.  1.
         -2   -1    0    0    0  501 -0.00000000000E+00 -0.00000000000E+00 -0.12199133213E+03  0.12199133213E+03  0.00000000000E+00 0.  1.
         35    2    1    2    0    0  0.00000000000E+00  0.00000000000E+00  0.30009810850E+02  0.27399247510E+03  0.27234406119E+03 0.  0.
         25    1    3    3    0    0  0.26984770797E+02 -0.17644772317E+02 -0.41039598804E+02  0.13085780265E+03  0.12000000000E+03 0.  0.
         25    1    3    3    0    0 -0.26984770797E+02  0.17644772317E+02  0.71049409654E+02  0.14313467245E+03  0.12000000000E+03 0.  0.
<mgrwt>
<rscale>  0 0.27234406E+03</rscale>
<asrwt>0</asrwt>
<pdfrwt beam="1">  1        2 0.23384791E-01 0.27234406E+03</pdfrwt>
<pdfrwt beam="2">  1       -2 0.18767897E-01 0.27234406E+03</pdfrwt>
<totfact> 0.53993827E+03</totfact>
</mgrwt>
</event>
<event>
 5    1  0.1107336E+001  0.2773659E+03  0.7818608E-02  0.1097136E+00
          3   -1    0    0  501    0  0.00000000000E+00  0.00000000000E+00  0.79830675748E+02  0.79830675748E+02  0.00000000000E+00 0. -1.
         -3   -1    0    0    0  501 -0.00000000000E+00 -0.00000000000E+00 -0.24092192039E+03  0.24092192039E+03  0.00000000000E+00 0. -1.
         35    2    1    2    0    0  0.00000000000E+00  0.00000000000E+00 -0.16109124464E+03  0.32075259613E+03  0.27736589341E+03 0.  0.
         25    1    3    3    0    0  0.56103416064E+02 -0.12274716748E+02 -0.12584878801E+03  0.18312886012E+03  0.12000000000E+03 0.  0.
         25    1    3    3    0    0 -0.56103416064E+02  0.12274716748E+02 -0.35242456630E+02  0.13762373601E+03  0.12000000000E+03 0.  0.
<mgrwt>
<rscale>  0 0.27736589E+03</rscale>
<asrwt>0</asrwt>
<pdfrwt beam="1">  1        3 0.12281643E-01 0.27736589E+03</pdfrwt>
<pdfrwt beam="2">  1       -3 0.37064910E-01 0.27736589E+03</pdfrwt>
<totfact> 0.95662387E+02</totfact>
</mgrwt>
</event>
<event>
 5    1  0.1107336E+001  0.2749875E+03  0.7818608E-02  0.1098459E+00
         -3   -1    0    0    0  501 -0.00000000000E+00  0.00000000000E+00  0.21415244396E+03  0.21415244396E+03  0.00000000000E+00 0. -1.
          3   -1    0    0  501    0  0.00000000000E+00 -0.00000000000E+00 -0.88276050760E+02  0.88276050760E+02  0.00000000000E+00 0. -1.
         35    2    1    2    0    0  0.00000000000E+00  0.00000000000E+00  0.12587639319E+03  0.30242849472E+03  0.27498750527E+03 0.  0.
         25    1    3    3    0    0 -0.29410732464E+02  0.49067026719E+02  0.24336231765E+02  0.13514738796E+03  0.12000000000E+03 0.  0.
         25    1    3    3    0    0  0.29410732464E+02 -0.49067026719E+02  0.10154016143E+03  0.16728110676E+03  0.12000000000E+03 0.  0.
<mgrwt>
<rscale>  0 0.27498751E+03</rscale>
<asrwt>0</asrwt>
<pdfrwt beam="1">  1        3 0.13580931E-01 0.27498751E+03</pdfrwt>
<pdfrwt beam="2">  1       -3 0.32946530E-01 0.27498751E+03</pdfrwt>
<totfact> 0.10081348E+03</totfact>
</mgrwt>
</event>
<event>
 5    1  0.1107336E+001  0.2781851E+03  0.7818608E-02  0.1096684E+00
          2   -1    0    0  501    0  0.00000000000E+00  0.00000000000E+00  0.10548682935E+04  0.10548682935E+04  0.00000000000E+00 0. -1.
         -2   -1    0    0    0  501 -0.00000000000E+00 -0.00000000000E+00 -0.18340425851E+02  0.18340425851E+02  0.00000000000E+00 0. -1.
         35    2    1    2    0    0  0.00000000000E+00  0.00000000000E+00  0.10365278676E+04  0.10732087193E+04  0.27818507307E+03 0.  0.
         25    1    3    3    0    0  0.66079380446E+02 -0.23752939611E+02  0.50280967782E+03  0.52167830966E+03  0.12000000000E+03 0.  0.
         25    1    3    3    0    0 -0.66079380446E+02  0.23752939611E+02  0.53371818983E+03  0.55153040969E+03  0.12000000000E+03 0.  0.
<mgrwt>
<rscale>  0 0.27818507E+03</rscale>
<asrwt>0</asrwt>
<pdfrwt beam="1">  1        2 0.16228738E+00 0.27818507E+03</pdfrwt>
<pdfrwt beam="2">  1       -2 0.28216048E-02 0.27818507E+03</pdfrwt>
<totfact> 0.11263914E+04</totfact>
</mgrwt>
</event>
<event>
 4    1  0.1107336E+001  0.3019851E+03  0.7818608E-02  0.1084252E+00
          2   -1    0    0  501    0  0.00000000000E+00  0.00000000000E+00  0.60870947384E+02  0.60870947384E+02  0.00000000000E+00 0.  1.
         -2   -1    0    0    0  501 -0.00000000000E+00 -0.00000000000E+00 -0.37454251447E+03  0.37454251447E+03  0.00000000000E+00 0.  1.
         25    1    1    2    0    0  0.73146404068E+02 -0.31919057991E+02 -0.22179107528E+03  0.26450047971E+03  0.12000000000E+03 0.  0.
         25    1    1    2    0    0 -0.73146404068E+02  0.31919057991E+02 -0.91880491799E+02  0.17091298214E+03  0.12000000000E+03 0.  0.
<mgrwt>
<rscale>  0 0.30198515E+03</rscale>
<asrwt>0</asrwt>
<pdfrwt beam="1">  1        2 0.93647612E-02 0.30198515E+03</pdfrwt>
<pdfrwt beam="2">  1       -2 0.57621925E-01 0.30198515E+03</pdfrwt>
<totfact> 0.20036307E+03</totfact>
</mgrwt>
</event>
<event>
 5    1  0.1107336E+001  0.2756518E+03  0.7818608E-02  0.1098088E+00
          1   -1    0    0  501    0  0.00000000000E+00  0.00000000000E+00  0.10055778993E+04  0.10055778993E+04  0.00000000000E+00 0. -1.
         -1   -1    0    0    0  501 -0.00000000000E+00 -0.00000000000E+00 -0.18890612964E+02  0.18890612964E+02  0.00000000000E+00 0. -1.
         35    2    1    2    0    0  0.00000000000E+00  0.00000000000E+00  0.98668728638E+03  0.10244685123E+04  0.27565183041E+03 0.  0.
         25    1    3    3    0    0 -0.51092084943E+02 -0.44351071294E+02  0.47733051291E+03  0.49681167179E+03  0.12000000000E+03 0.  0.
         25    1    3    3    0    0  0.51092084943E+02  0.44351071294E+02  0.50935677347E+03  0.52765684052E+03  0.12000000000E+03 0.  0.
<mgrwt>
<rscale>  0 0.27565183E+03</rscale>
<asrwt>0</asrwt>
<pdfrwt beam="1">  1        1 0.15470425E+00 0.27565183E+03</pdfrwt>
<pdfrwt beam="2">  1       -1 0.29062489E-02 0.27565183E+03</pdfrwt>
<totfact> 0.62576786E+03</totfact>
</mgrwt>
</event>
<event>
 5    1  0.1107336E+001  0.2751316E+03  0.7818608E-02  0.1098378E+00
         -2   -1    0    0    0  501 -0.00000000000E+00  0.00000000000E+00  0.12257610827E+03  0.12257610827E+03  0.00000000000E+00 0. -1.
          2   -1    0    0  501    0  0.00000000000E+00 -0.00000000000E+00 -0.15438853953E+03  0.15438853953E+03  0.00000000000E+00 0. -1.
         35    2    1    2    0    0  0.00000000000E+00  0.00000000000E+00 -0.31812431262E+02  0.27696464780E+03  0.27513157825E+03 0.  0.
         25    1    3    3    0    0 -0.12633905555E+02  0.66065028692E+02 -0.16286557659E+02  0.13852601036E+03  0.12000000000E+03 0.  0.
         25    1    3    3    0    0  0.12633905555E+02 -0.66065028692E+02 -0.15525873603E+02  0.13843863744E+03  0.12000000000E+03 0.  0.
<mgrwt>
<rscale>  0 0.27513158E+03</rscale>
<asrwt>0</asrwt>
<pdfrwt beam="1">  1        2 0.23752083E-01 0.27513158E+03</pdfrwt>
<pdfrwt beam="2">  1       -2 0.18857863E-01 0.27513158E+03</pdfrwt>
<totfact> 0.52646299E+03</totfact>
</mgrwt>
</event>
<event>
 5    1  0.1107336E+001  0.2751813E+03  0.7818608E-02  0.1098350E+00
         -2   -1    0    0    0  501 -0.00000000000E+00  0.00000000000E+00  0.22566190243E+02  0.22566190243E+02  0.00000000000E+00 0.  1.
          2   -1    0    0  501    0  0.00000000000E+00 -0.00000000000E+00 -0.83891804047E+03  0.83891804047E+03  0.00000000000E+00 0.  1.
         35    2    1    2    0    0  0.00000000000E+00  0.00000000000E+00 -0.81635185023E+03  0.86148423072E+03  0.27518127916E+03 0.  0.
         25    1    3    3    0    0  0.19977908399E+00 -0.58546831431E+01 -0.19824159557E+03  0.23180605566E+03  0.12000000000E+03 0.  0.
         25    1    3    3    0    0 -0.19977908399E+00  0.58546831431E+01 -0.61811025466E+03  0.62967817505E+03  0.12000000000E+03 0.  0.
<mgrwt>
<rscale>  0 0.27518128E+03</rscale>
<asrwt>0</asrwt>
<pdfrwt beam="1">  1        2 0.12906430E+00 0.27518128E+03</pdfrwt>
<pdfrwt beam="2">  1       -2 0.34717220E-02 0.27518128E+03</pdfrwt>
<totfact> 0.11313674E+04</totfact>
</mgrwt>
</event>
<event>
 5    1  0.1107336E+001  0.2839627E+03  0.7818608E-02  0.1093544E+00
          2   -1    0    0  501    0  0.00000000000E+00  0.00000000000E+00  0.38359516546E+03  0.38359516546E+03  0.00000000000E+00 0. -1.
         -2   -1    0    0    0  501 -0.00000000000E+00 -0.00000000000E+00 -0.52552013992E+02  0.52552013992E+02  0.00000000000E+00 0. -1.
         35    2    1    2    0    0  0.00000000000E+00  0.00000000000E+00  0.33104315147E+03  0.43614717945E+03  0.28396266306E+03 0.  0.
         25    1    3    3    0    0 -0.23570489219E+02 -0.66342642408E+02  0.20901269777E+03  0.25108409347E+03  0.12000000000E+03 0.  0.
         25    1    3    3    0    0  0.23570489219E+02  0.66342642408E+02  0.12203045369E+03  0.18506308598E+03  0.12000000000E+03 0.  0.
<mgrwt>
<rscale>  0 0.28396266E+03</rscale>
<asrwt>0</asrwt>
<pdfrwt beam="1">  1        2 0.59014639E-01 0.28396266E+03</pdfrwt>
<pdfrwt beam="2">  1       -2 0.80849255E-02 0.28396266E+03</pdfrwt>
<totfact> 0.77344263E+03</totfact>
</mgrwt>
</event>
<event>
 5    1  0.1107336E+001  0.2750864E+03  0.7818608E-02  0.1098403E+00
         -1   -1    0    0    0  501 -0.00000000000E+00  0.00000000000E+00  0.48842916683E+02  0.48842916683E+02  0.00000000000E+00 0.  1.
          1   -1    0    0  501    0  0.00000000000E+00 -0.00000000000E+00 -0.38732603357E+03  0.38732603357E+03  0.00000000000E+00 0.  1.
         35    2    1    2    0    0  0.00000000000E+00  0.00000000000E+00 -0.33848311688E+03  0.43616895025E+03  0.27508640960E+03 0.  0.
         25    1    3    3    0    0  0.45369333709E+02 -0.16020283684E+02 -0.94819199521E+02  0.16032999260E+03  0.12000000000E+03 0.  0.
         25    1    3    3    0    0 -0.45369333709E+02  0.16020283684E+02 -0.24366391736E+03  0.27583895765E+03  0.12000000000E+03 0.  0.
<mgrwt>
<rscale>  0 0.27508641E+03</rscale>
<asrwt>0</asrwt>
<pdfrwt beam="1">  1        1 0.59588620E-01 0.27508641E+03</pdfrwt>
<pdfrwt beam="2">  1       -1 0.75142949E-02 0.27508641E+03</pdfrwt>
<totfact> 0.59528118E+03</totfact>
</mgrwt>
</event>
<event>
 5    1  0.1107336E+001  0.2738320E+03  0.7818608E-02  0.1099106E+00
          1   -1    0    0  501    0  0.00000000000E+00  0.00000000000E+00  0.20644740846E+02  0.20644740846E+02  0.00000000000E+00 0. -1.
         -1   -1    0    0    0  501 -0.00000000000E+00 -0.00000000000E+00 -0.90802766455E+03  0.90802766455E+03  0.00000000000E+00 0. -1.
         35    2    1    2    0    0  0.00000000000E+00  0.00000000000E+00 -0.88738292370E+03  0.92867240539E+03  0.27383203476E+03 0.  0.
         25    1    3    3    0    0  0.17582581173E+02  0.59996260631E+02 -0.37277178994E+03  0.39656967335E+03  0.12000000000E+03 0.  0.
         25    1    3    3    0    0 -0.17582581173E+02 -0.59996260631E+02 -0.51461113377E+03  0.53210273204E+03  0.12000000000E+03 0.  0.
<mgrwt>
<rscale>  0 0.27383203E+03</rscale>
<asrwt>0</asrwt>
<pdfrwt beam="1">  1        1 0.31761132E-02 0.27383203E+03</pdfrwt>
<pdfrwt beam="2">  1       -1 0.13969660E+00 0.27383203E+03</pdfrwt>
<totfact> 0.14289054E+03</totfact>
</mgrwt>
</event>
<event>
 5    1  0.1107336E+001  0.2740524E+03  0.7818608E-02  0.1098982E+00
          2   -1    0    0  501    0  0.00000000000E+00  0.00000000000E+00  0.10399019532E+04  0.10399019532E+04  0.00000000000E+00 0.  1.
         -2   -1    0    0    0  501 -0.00000000000E+00 -0.00000000000E+00 -0.18055714979E+02  0.18055714979E+02  0.00000000000E+00 0.  1.
         35    2    1    2    0    0  0.00000000000E+00  0.00000000000E+00  0.10218462382E+04  0.10579576681E+04  0.27405235465E+03 0.  0.
         25    1    3    3    0    0  0.50078651096E+02  0.26120739033E+02  0.37797605853E+03  0.40056967574E+03  0.12000000000E+03 0.  0.
         25    1    3    3    0    0 -0.50078651096E+02 -0.26120739033E+02  0.64387017965E+03  0.65738799239E+03  0.12000000000E+03 0.  0.
<mgrwt>
<rscale>  0 0.27405235E+03</rscale>
<asrwt>0</asrwt>
<pdfrwt beam="1">  1        2 0.15998487E+00 0.27405235E+03</pdfrwt>
<pdfrwt beam="2">  1       -2 0.27778031E-02 0.27405235E+03</pdfrwt>
<totfact> 0.11764123E+04</totfact>
</mgrwt>
</event>
<event>
 5    1  0.1107336E+001  0.2741154E+03  0.7818608E-02  0.1098947E+00
         -1   -1    0    0    0  501 -0.00000000000E+00  0.00000000000E+00  0.27988321551E+03  0.27988321551E+03  0.00000000000E+00 0. -1.
          1   -1    0    0  501    0  0.00000000000E+00 -0.00000000000E+00 -0.67116615136E+02  0.67116615136E+02  0.00000000000E+00 0. -1.
         35    2    1    2    0    0  0.00000000000E+00  0.00000000000E+00  0.21276660038E+03  0.34699983065E+03  0.27411540678E+03 0.  0.
         25    1    3    3    0    0  0.29796505130E+02 -0.14569685231E+02  0.33832182175E+02  0.12901443329E+03  0.12000000000E+03 0.  0.
         25    1    3    3    0    0 -0.29796505130E+02  0.14569685231E+02  0.17893441820E+03  0.21798539736E+03  0.12000000000E+03 0.  0.
<mgrwt>
<rscale>  0 0.27411541E+03</rscale>
<asrwt>0</asrwt>
<pdfrwt beam="1">  1        1 0.10325633E-01 0.27411541E+03</pdfrwt>
<pdfrwt beam="2">  1       -1 0.43058956E-01 0.27411541E+03</pdfrwt>
<totfact> 0.33066855E+03</totfact>
</mgrwt>
</event>
<event>
 5    1  0.1107336E+001  0.2747494E+03  0.7818608E-02  0.1098592E+00
          2   -1    0    0  501    0  0.00000000000E+00  0.00000000000E+00  0.79496065737E+03  0.79496065737E+03  0.00000000000E+00 0.  1.
         -2   -1    0    0    0  501 -0.00000000000E+00 -0.00000000000E+00 -0.23739290638E+02  0.23739290638E+02  0.00000000000E+00 0.  1.
         35    2    1    2    0    0  0.00000000000E+00  0.00000000000E+00  0.77122136673E+03  0.81869994801E+03  0.27474935553E+03 0.  0.
         25    1    3    3    0    0 -0.27237167012E+02  0.31762224776E+02  0.54104980151E+03  0.55577476544E+03  0.12000000000E+03 0.  0.
         25    1    3    3    0    0  0.27237167012E+02 -0.31762224776E+02  0.23017156522E+03  0.26292518256E+03  0.12000000000E+03 0.  0.
<mgrwt>
<rscale>  0 0.27474936E+03</rscale>
<asrwt>0</asrwt>
<pdfrwt beam="1">  1        2 0.12230162E+00 0.27474936E+03</pdfrwt>
<pdfrwt beam="2">  1       -2 0.36521992E-02 0.27474936E+03</pdfrwt>
<totfact> 0.11236382E+04</totfact>
</mgrwt>
</event>
<event>
 5    1  0.1107336E+001  0.2770740E+03  0.7818608E-02  0.1097298E+00
          1   -1    0    0  501    0  0.00000000000E+00  0.00000000000E+00  0.14422896334E+04  0.14422896334E+04  0.00000000000E+00 0. -1.
         -1   -1    0    0    0  501 -0.00000000000E+00 -0.00000000000E+00 -0.13306962387E+02  0.13306962387E+02  0.00000000000E+00 0. -1.
         35    2    1    2    0    0  0.00000000000E+00  0.00000000000E+00  0.14289826710E+04  0.14555965958E+04  0.27707395333E+03 0.  0.
         25    1    3    3    0    0 -0.21629821166E+01  0.64824326804E+02  0.84162309160E+03  0.85260559472E+03  0.12000000000E+03 0.  0.
         25    1    3    3    0    0  0.21629821166E+01 -0.64824326804E+02  0.58735957940E+03  0.60299100106E+03  0.12000000000E+03 0.  0.
<mgrwt>
<rscale>  0 0.27707395E+03</rscale>
<asrwt>0</asrwt>
<pdfrwt beam="1">  1        1 0.22189059E+00 0.27707395E+03</pdfrwt>
<pdfrwt beam="2">  1       -1 0.20472261E-02 0.27707395E+03</pdfrwt>
<totfact> 0.51814280E+03</totfact>
</mgrwt>
</event>
<event>
 5    1  0.1107336E+001  0.2742968E+03  0.7818608E-02  0.1098845E+00
          2   -1    0    0  501    0  0.00000000000E+00  0.00000000000E+00  0.34236053671E+02  0.34236053671E+02  0.00000000000E+00 0. -1.
         -2   -1    0    0    0  501 -0.00000000000E+00 -0.00000000000E+00 -0.54941173236E+03  0.54941173236E+03  0.00000000000E+00 0. -1.
         35    2    1    2    0    0  0.00000000000E+00  0.00000000000E+00 -0.51517567869E+03  0.58364778603E+03  0.27429684327E+03 0.  0.
         25    1    3    3    0    0 -0.60609754273E+02 -0.25564951650E+02 -0.27692393393E+03  0.30889152506E+03  0.12000000000E+03 0.  0.
         25    1    3    3    0    0  0.60609754273E+02  0.25564951650E+02 -0.23825174476E+03  0.27475626098E+03  0.12000000000E+03 0.  0.
<mgrwt>
<rscale>  0 0.27429684E+03</rscale>
<asrwt>0</asrwt>
<pdfrwt beam="1">  1        2 0.52670859E-02 0.27429684E+03</pdfrwt>
<pdfrwt beam="2">  1       -2 0.84524870E-01 0.27429684E+03</pdfrwt>
<totfact> 0.18451441E+03</totfact>
</mgrwt>
</event>
<event>
 5    1  0.1107336E+001  0.2778834E+03  0.7818608E-02  0.1096851E+00
          2   -1    0    0  501    0  0.00000000000E+00  0.00000000000E+00  0.81921709615E+03  0.81921709615E+03  0.00000000000E+00 0.  1.
         -2   -1    0    0    0  501 -0.00000000000E+00 -0.00000000000E+00 -0.23564936089E+02  0.23564936089E+02  0.00000000000E+00 0.  1.
         35    2    1    2    0    0  0.00000000000E+00  0.00000000000E+00  0.79565216006E+03  0.84278203224E+03  0.27788341810E+03 0.  0.
         25    1    3    3    0    0  0.24776690439E+02 -0.54915593104E+02  0.50612905452E+03  0.52363749539E+03  0.12000000000E+03 0.  0.
         25    1    3    3    0    0 -0.24776690439E+02  0.54915593104E+02  0.28952310554E+03  0.31914453684E+03  0.12000000000E+03 0.  0.
<mgrwt>
<rscale>  0 0.27788342E+03</rscale>
<asrwt>0</asrwt>
<pdfrwt beam="1">  1        2 0.12603338E+00 0.27788342E+03</pdfrwt>
<pdfrwt beam="2">  1       -2 0.36253754E-02 0.27788342E+03</pdfrwt>
<totfact> 0.10937491E+04</totfact>
</mgrwt>
</event>
<event>
 5    1  0.1107336E+001  0.2743632E+03  0.7818608E-02  0.1098808E+00
          4   -1    0    0  501    0  0.00000000000E+00  0.00000000000E+00  0.36727571144E+03  0.36727571144E+03  0.00000000000E+00 0.  1.
         -4   -1    0    0    0  501 -0.00000000000E+00 -0.00000000000E+00 -0.51238856309E+02  0.51238856309E+02  0.00000000000E+00 0.  1.
         35    2    1    2    0    0  0.00000000000E+00  0.00000000000E+00  0.31603685513E+03  0.41851456775E+03  0.27436317103E+03 0.  0.
         25    1    3    3    0    0  0.23866352590E+02 -0.58223236009E+01  0.63797306359E+02  0.13810719944E+03  0.12000000000E+03 0.  0.
         25    1    3    3    0    0 -0.23866352590E+02  0.58223236009E+01  0.25223954877E+03  0.28040736831E+03  0.12000000000E+03 0.  0.
<mgrwt>
<rscale>  0 0.27436317E+03</rscale>
<asrwt>0</asrwt>
<pdfrwt beam="1">  1        4 0.56503954E-01 0.27436317E+03</pdfrwt>
<pdfrwt beam="2">  1       -4 0.78829012E-02 0.27436317E+03</pdfrwt>
<totfact> 0.63827852E+02</totfact>
</mgrwt>
</event>
<event>
 5    1  0.1107336E+001  0.2747183E+03  0.7818608E-02  0.1098609E+00
         -2   -1    0    0    0  501 -0.00000000000E+00  0.00000000000E+00  0.10967091528E+03  0.10967091528E+03  0.00000000000E+00 0. -1.
          2   -1    0    0  501    0  0.00000000000E+00 -0.00000000000E+00 -0.17203776576E+03  0.17203776576E+03  0.00000000000E+00 0. -1.
         35    2    1    2    0    0  0.00000000000E+00  0.00000000000E+00 -0.62366850486E+02  0.28170868104E+03  0.27471832289E+03 0.  0.
         25    1    3    3    0    0 -0.21712218318E+00  0.27969306008E+01 -0.99663453362E+02  0.15601497973E+03  0.12000000000E+03 0.  0.
         25    1    3    3    0    0  0.21712218318E+00 -0.27969306008E+01  0.37296602877E+02  0.12569370131E+03  0.12000000000E+03 0.  0.
<mgrwt>
<rscale>  0 0.27471832E+03</rscale>
<asrwt>0</asrwt>
<pdfrwt beam="1">  1        2 0.26467349E-01 0.27471832E+03</pdfrwt>
<pdfrwt beam="2">  1       -2 0.16872448E-01 0.27471832E+03</pdfrwt>
<totfact> 0.56266726E+03</totfact>
</mgrwt>
</event>
<event>
 5    1  0.1107336E+001  0.2756776E+03  0.7818608E-02  0.1098073E+00
         -1   -1    0    0    0  501 -0.00000000000E+00  0.00000000000E+00  0.16996390994E+03  0.16996390994E+03  0.00000000000E+00 0.  1.
          1   -1    0    0  501    0  0.00000000000E+00 -0.00000000000E+00 -0.11178573662E+03  0.11178573662E+03  0.00000000000E+00 0.  1.
         35    2    1    2    0    0  0.00000000000E+00  0.00000000000E+00  0.58178173318E+02  0.28174964656E+03  0.27567764415E+03 0.  0.
         25    1    3    3    0    0  0.63770489968E+02 -0.97968013598E+01  0.50451335530E+02  0.14528589045E+03  0.12000000000E+03 0.  0.
         25    1    3    3    0    0 -0.63770489968E+02  0.97968013598E+01  0.77268377874E+01  0.13646375610E+03  0.12000000000E+03 0.  0.
<mgrwt>
<rscale>  0 0.27567764E+03</rscale>
<asrwt>0</asrwt>
<pdfrwt beam="1">  1        1 0.17197806E-01 0.27567764E+03</pdfrwt>
<pdfrwt beam="2">  1       -1 0.26148294E-01 0.27567764E+03</pdfrwt>
<totfact> 0.39937156E+03</totfact>
</mgrwt>
</event>
<event>
 5    1  0.1107336E+001  0.2752466E+03  0.7818608E-02  0.1098314E+00
         -1   -1    0    0    0  501 -0.00000000000E+00  0.00000000000E+00  0.10622943465E+03  0.10622943465E+03  0.00000000000E+00 0.  1.
          1   -1    0    0  501    0  0.00000000000E+00 -0.00000000000E+00 -0.17829500426E+03  0.17829500426E+03  0.00000000000E+00 0.  1.
         35    2    1    2    0    0  0.00000000000E+00  0.00000000000E+00 -0.72065569606E+02  0.28452443891E+03  0.27524663489E+03 0.  0.
         25    1    3    3    0    0 -0.25369300721E+02  0.59613913349E+02 -0.55170539797E+02  0.14710951208E+03  0.12000000000E+03 0.  0.
         25    1    3    3    0    0  0.25369300721E+02 -0.59613913349E+02 -0.16895029809E+02  0.13741492683E+03  0.12000000000E+03 0.  0.
<mgrwt>
<rscale>  0 0.27524663E+03</rscale>
<asrwt>0</asrwt>
<pdfrwt beam="1">  1        1 0.27430001E-01 0.27524663E+03</pdfrwt>
<pdfrwt beam="2">  1       -1 0.16342990E-01 0.27524663E+03</pdfrwt>
<totfact> 0.47243966E+03</totfact>
</mgrwt>
</event>
<event>
 5    1  0.1107336E+001  0.2747373E+03  0.7818608E-02  0.1098599E+00
         -1   -1    0    0    0  501 -0.00000000000E+00  0.00000000000E+00  0.17556133591E+02  0.17556133591E+02  0.00000000000E+00 0.  1.
          1   -1    0    0  501    0  0.00000000000E+00 -0.00000000000E+00 -0.10748464133E+04  0.10748464133E+04  0.00000000000E+00 0.  1.
         35    2    1    2    0    0  0.00000000000E+00  0.00000000000E+00 -0.10572902797E+04  0.10924025469E+04  0.27473730886E+03 0.  0.
         25    1    3    3    0    0 -0.60306950029E+02  0.14381387809E+02 -0.42913001422E+03  0.44988478707E+03  0.12000000000E+03 0.  0.
         25    1    3    3    0    0  0.60306950029E+02 -0.14381387809E+02 -0.62816026546E+03  0.64251775978E+03  0.12000000000E+03 0.  0.
<mgrwt>
<rscale>  0 0.27473731E+03</rscale>
<asrwt>0</asrwt>
<pdfrwt beam="1">  1        1 0.16536104E+00 0.27473731E+03</pdfrwt>
<pdfrwt beam="2">  1       -1 0.27009428E-02 0.27473731E+03</pdfrwt>
<totfact> 0.61975389E+03</totfact>
</mgrwt>
</event>
<event>
 5    1  0.1107336E+001  0.2746343E+03  0.7818608E-02  0.1098656E+00
          2   -1    0    0  501    0  0.00000000000E+00  0.00000000000E+00  0.11836692329E+04  0.11836692329E+04  0.00000000000E+00 0.  1.
         -2   -1    0    0    0  501 -0.00000000000E+00 -0.00000000000E+00 -0.15930126160E+02  0.15930126160E+02  0.00000000000E+00 0.  1.
         35    2    1    2    0    0  0.00000000000E+00  0.00000000000E+00  0.11677391067E+04  0.11995993590E+04  0.27463430384E+03 0.  0.
         25    1    3    3    0    0 -0.37884920458E+02  0.17193364111E+02  0.81189029652E+03  0.82176440210E+03  0.12000000000E+03 0.  0.
         25    1    3    3    0    0  0.37884920458E+02 -0.17193364111E+02  0.35584881017E+03  0.37783495692E+03  0.12000000000E+03 0.  0.
<mgrwt>
<rscale>  0 0.27463430E+03</rscale>
<asrwt>0</asrwt>
<pdfrwt beam="1">  1        2 0.18210289E+00 0.27463430E+03</pdfrwt>
<pdfrwt beam="2">  1       -2 0.24507896E-02 0.27463430E+03</pdfrwt>
<totfact> 0.11669075E+04</totfact>
</mgrwt>
</event>
<event>
 5    1  0.1107336E+001  0.2746849E+03  0.7818608E-02  0.1098628E+00
          1   -1    0    0  501    0  0.00000000000E+00  0.00000000000E+00  0.39742763188E+02  0.39742763188E+02  0.00000000000E+00 0.  1.
         -1   -1    0    0    0  501 -0.00000000000E+00 -0.00000000000E+00 -0.47462608230E+03  0.47462608230E+03  0.00000000000E+00 0.  1.
         35    2    1    2    0    0  0.00000000000E+00  0.00000000000E+00 -0.43488331911E+03  0.51436884549E+03  0.27468492490E+03 0.  0.
         25    1    3    3    0    0  0.49695238654E+01 -0.65351814307E+02 -0.24166938351E+03  0.27766823140E+03  0.12000000000E+03 0.  0.
         25    1    3    3    0    0 -0.49695238654E+01  0.65351814307E+02 -0.19321393560E+03  0.23670061409E+03  0.12000000000E+03 0.  0.
<mgrwt>
<rscale>  0 0.27468492E+03</rscale>
<asrwt>0</asrwt>
<pdfrwt beam="1">  1        1 0.61142716E-02 0.27468492E+03</pdfrwt>
<pdfrwt beam="2">  1       -1 0.73019394E-01 0.27468492E+03</pdfrwt>
<totfact> 0.24725252E+03</totfact>
</mgrwt>
</event>
<event>
 5    1  0.1107336E+001  0.2742753E+03  0.7818608E-02  0.1098857E+00
          1   -1    0    0  501    0  0.00000000000E+00  0.00000000000E+00  0.12118412990E+03  0.12118412990E+03  0.00000000000E+00 0. -1.
         -1   -1    0    0    0  501 -0.00000000000E+00 -0.00000000000E+00 -0.15519136617E+03  0.15519136617E+03  0.00000000000E+00 0. -1.
         35    2    1    2    0    0  0.00000000000E+00  0.00000000000E+00 -0.34007236271E+02  0.27637549607E+03  0.27427526813E+03 0.  0.
         25    1    3    3    0    0  0.19475896606E+01 -0.14545966563E+02 -0.82240016600E+02  0.14621490546E+03  0.12000000000E+03 0.  0.
         25    1    3    3    0    0 -0.19475896606E+01  0.14545966563E+02  0.48232780329E+02  0.13016059061E+03  0.12000000000E+03 0.  0.
<mgrwt>
<rscale>  0 0.27427527E+03</rscale>
<asrwt>0</asrwt>
<pdfrwt beam="1">  1        1 0.18643712E-01 0.27427527E+03</pdfrwt>
<pdfrwt beam="2">  1       -1 0.23875595E-01 0.27427527E+03</pdfrwt>
<totfact> 0.41830430E+03</totfact>
</mgrwt>
</event>
<event>
 5    1  0.1107336E+001  0.2748390E+03  0.7818608E-02  0.1098542E+00
          1   -1    0    0  501    0  0.00000000000E+00  0.00000000000E+00  0.63339256685E+03  0.63339256685E+03  0.00000000000E+00 0.  1.
         -1   -1    0    0    0  501 -0.00000000000E+00 -0.00000000000E+00 -0.29814246934E+02  0.29814246934E+02  0.00000000000E+00 0.  1.
         35    2    1    2    0    0  0.00000000000E+00  0.00000000000E+00  0.60357831991E+03  0.66320681378E+03  0.27483902484E+03 0.  0.
         25    1    3    3    0    0  0.50070272922E+02  0.44332624656E+02  0.29353216103E+03  0.32408878938E+03  0.12000000000E+03 0.  0.
         25    1    3    3    0    0 -0.50070272922E+02 -0.44332624656E+02  0.31004615888E+03  0.33911802441E+03  0.12000000000E+03 0.  0.
<mgrwt>
<rscale>  0 0.27483902E+03</rscale>
<asrwt>0</asrwt>
<pdfrwt beam="1">  1        1 0.97445001E-01 0.27483902E+03</pdfrwt>
<pdfrwt beam="2">  1       -1 0.45868077E-02 0.27483902E+03</pdfrwt>
<totfact> 0.65056795E+03</totfact>
</mgrwt>
</event>
<event>
 5    1  0.1107336E+001  0.2748281E+03  0.7818608E-02  0.1098548E+00
         -1   -1    0    0    0  501 -0.00000000000E+00  0.00000000000E+00  0.47283924335E+02  0.47283924335E+02  0.00000000000E+00 0.  1.
          1   -1    0    0  501    0  0.00000000000E+00 -0.00000000000E+00 -0.39934558415E+03  0.39934558415E+03  0.00000000000E+00 0.  1.
         35    2    1    2    0    0  0.00000000000E+00  0.00000000000E+00 -0.35206165981E+03  0.44662950848E+03  0.27482813818E+03 0.  0.
         25    1    3    3    0    0  0.29474411162E+02 -0.56607310584E+02 -0.20891690434E+03  0.24923764050E+03  0.12000000000E+03 0.  0.
         25    1    3    3    0    0 -0.29474411162E+02  0.56607310584E+02 -0.14314475548E+03  0.19739186798E+03  0.12000000000E+03 0.  0.
<mgrwt>
<rscale>  0 0.27482814E+03</rscale>
<asrwt>0</asrwt>
<pdfrwt beam="1">  1        1 0.61437781E-01 0.27482814E+03</pdfrwt>
<pdfrwt beam="2">  1       -1 0.72744500E-02 0.27482814E+03</pdfrwt>
<totfact> 0.60138861E+03</totfact>
</mgrwt>
</event>
<event>
 5    1  0.1107336E+001  0.2737377E+03  0.7818608E-02  0.1099159E+00
          2   -1    0    0  501    0  0.00000000000E+00  0.00000000000E+00  0.23186706092E+04  0.23186706092E+04  0.00000000000E+00 0. -1.
         -2   -1    0    0    0  501 -0.00000000000E+00 -0.00000000000E+00 -0.80792337720E+01  0.80792337720E+01  0.00000000000E+00 0. -1.
         35    2    1    2    0    0  0.00000000000E+00  0.00000000000E+00  0.23105913754E+04  0.23267498430E+04  0.27373769848E+03 0.  0.
         25    1    3    3    0    0  0.56011386520E+02  0.21206087540E+02  0.92312038298E+03  0.93281199340E+03  0.12000000000E+03 0.  0.
         25    1    3    3    0    0 -0.56011386520E+02 -0.21206087540E+02  0.13874709924E+04  0.13939378496E+04  0.12000000000E+03 0.  0.
<mgrwt>
<rscale>  0 0.27373770E+03</rscale>
<asrwt>0</asrwt>
<pdfrwt beam="1">  1        2 0.35671802E+00 0.27373770E+03</pdfrwt>
<pdfrwt beam="2">  1       -2 0.12429609E-02 0.27373770E+03</pdfrwt>
<totfact> 0.78131383E+03</totfact>
</mgrwt>
</event>
<event>
 5    1  0.1107336E+001  0.2733074E+03  0.7818608E-02  0.1099402E+00
         -2   -1    0    0    0  501 -0.00000000000E+00  0.00000000000E+00  0.12814715653E+02  0.12814715653E+02  0.00000000000E+00 0.  1.
          2   -1    0    0  501    0  0.00000000000E+00 -0.00000000000E+00 -0.14572487205E+04  0.14572487205E+04  0.00000000000E+00 0.  1.
         35    2    1    2    0    0  0.00000000000E+00  0.00000000000E+00 -0.14444340048E+04  0.14700634361E+04  0.27330735802E+03 0.  0.
         25    1    3    3    0    0 -0.15194742843E+02 -0.59421421560E+02 -0.60045625762E+03  0.61539377871E+03  0.12000000000E+03 0.  0.
         25    1    3    3    0    0  0.15194742843E+02  0.59421421560E+02 -0.84397774718E+03  0.85466965740E+03  0.12000000000E+03 0.  0.
<mgrwt>
<rscale>  0 0.27330736E+03</rscale>
<asrwt>0</asrwt>
<pdfrwt beam="1">  1        2 0.22419214E+00 0.27330736E+03</pdfrwt>
<pdfrwt beam="2">  1       -2 0.19714945E-02 0.27330736E+03</pdfrwt>
<totfact> 0.11356458E+04</totfact>
</mgrwt>
</event>
<event>
 5    1  0.1107336E+001  0.2761067E+03  0.7818608E-02  0.1097835E+00
         -3   -1    0    0    0  501 -0.00000000000E+00  0.00000000000E+00  0.14378297609E+03  0.14378297609E+03  0.00000000000E+00 0. -1.
          3   -1    0    0  501    0  0.00000000000E+00 -0.00000000000E+00 -0.13255202311E+03  0.13255202311E+03  0.00000000000E+00 0. -1.
         35    2    1    2    0    0  0.00000000000E+00  0.00000000000E+00  0.11230952982E+02  0.27633499919E+03  0.27610667771E+03 0.  0.
         25    1    3    3    0    0  0.16037717606E+02 -0.62756823753E+02 -0.15922008768E+02  0.13729216175E+03  0.12000000000E+03 0.  0.
         25    1    3    3    0    0 -0.16037717606E+02  0.62756823753E+02  0.27152961749E+02  0.13904283745E+03  0.12000000000E+03 0.  0.
<mgrwt>
<rscale>  0 0.27610668E+03</rscale>
<asrwt>0</asrwt>
<pdfrwt beam="1">  1        3 0.20392619E-01 0.27610668E+03</pdfrwt>
<pdfrwt beam="2">  1       -3 0.22120458E-01 0.27610668E+03</pdfrwt>
<totfact> 0.10340172E+03</totfact>
</mgrwt>
</event>
<event>
 5    1  0.1107336E+001  0.2755196E+03  0.7818608E-02  0.1098161E+00
         -2   -1    0    0    0  501 -0.00000000000E+00  0.00000000000E+00  0.44196785877E+02  0.44196785877E+02  0.00000000000E+00 0. -1.
          2   -1    0    0  501    0  0.00000000000E+00 -0.00000000000E+00 -0.42939250221E+03  0.42939250221E+03  0.00000000000E+00 0. -1.
         35    2    1    2    0    0  0.00000000000E+00  0.00000000000E+00 -0.38519571633E+03  0.47358928809E+03  0.27551964342E+03 0.  0.
         25    1    3    3    0    0 -0.19148601047E+02  0.11219756115E+02 -0.82733493525E+02  0.14743602952E+03  0.12000000000E+03 0.  0.
         25    1    3    3    0    0  0.19148601047E+02 -0.11219756115E+02 -0.30246222281E+03  0.32615325857E+03  0.12000000000E+03 0.  0.
<mgrwt>
<rscale>  0 0.27551964E+03</rscale>
<asrwt>0</asrwt>
<pdfrwt beam="1">  1        2 0.66060382E-01 0.27551964E+03</pdfrwt>
<pdfrwt beam="2">  1       -2 0.67995058E-02 0.27551964E+03</pdfrwt>
<totfact> 0.89439851E+03</totfact>
</mgrwt>
</event>
<event>
 5    1  0.1107336E+001  0.2747828E+03  0.7818608E-02  0.1098573E+00
         -3   -1    0    0    0  501 -0.00000000000E+00  0.00000000000E+00  0.56479446727E+03  0.56479446727E+03  0.00000000000E+00 0. -1.
          3   -1    0    0  501    0  0.00000000000E+00 -0.00000000000E+00 -0.33421701235E+02  0.33421701235E+02  0.00000000000E+00 0. -1.
         35    2    1    2    0    0  0.00000000000E+00  0.00000000000E+00  0.53137276604E+03  0.59821616851E+03  0.27478276470E+03 0.  0.
         25    1    3    3    0    0 -0.49946915347E+02 -0.24332940702E+02  0.18453154149E+03  0.22702131212E+03  0.12000000000E+03 0.  0.
         25    1    3    3    0    0  0.49946915347E+02  0.24332940702E+02  0.34684122455E+03  0.37119485638E+03  0.12000000000E+03 0.  0.
<mgrwt>
<rscale>  0 0.27478276E+03</rscale>
<asrwt>0</asrwt>
<pdfrwt beam="1">  1        3 0.51418006E-02 0.27478276E+03</pdfrwt>
<pdfrwt beam="2">  1       -3 0.86891450E-01 0.27478276E+03</pdfrwt>
<totfact> 0.68772603E+02</totfact>
</mgrwt>
</event>
<event>
 5    1  0.1107336E+001  0.2747391E+03  0.7818608E-02  0.1098598E+00
          2   -1    0    0  501    0  0.00000000000E+00  0.00000000000E+00  0.17588730761E+04  0.17588730761E+04  0.00000000000E+00 0. -1.
         -2   -1    0    0    0  501 -0.00000000000E+00 -0.00000000000E+00 -0.10728680263E+02  0.10728680263E+02  0.00000000000E+00 0. -1.
         35    2    1    2    0    0  0.00000000000E+00  0.00000000000E+00  0.17481443959E+04  0.17696017564E+04  0.27473905334E+03 0.  0.
         25    1    3    3    0    0  0.56584644352E+02 -0.13045437439E+02  0.10875396845E+04  0.10956799582E+04  0.12000000000E+03 0.  0.
         25    1    3    3    0    0 -0.56584644352E+02  0.13045437439E+02  0.66060471135E+03  0.67392179818E+03  0.12000000000E+03 0.  0.
<mgrwt>
<rscale>  0 0.27473905E+03</rscale>
<asrwt>0</asrwt>
<pdfrwt beam="1">  1        2 0.27059563E+00 0.27473905E+03</pdfrwt>
<pdfrwt beam="2">  1       -2 0.16505676E-02 0.27473905E+03</pdfrwt>
<totfact> 0.10199823E+04</totfact>
</mgrwt>
</event>
<event>
 5    1  0.1107336E+001  0.2754032E+03  0.7818608E-02  0.1098226E+00
          2   -1    0    0  501    0  0.00000000000E+00  0.00000000000E+00  0.13448792483E+04  0.13448792483E+04  0.00000000000E+00 0.  1.
         -2   -1    0    0    0  501 -0.00000000000E+00 -0.00000000000E+00 -0.14099207956E+02  0.14099207956E+02  0.00000000000E+00 0.  1.
         35    2    1    2    0    0  0.00000000000E+00  0.00000000000E+00  0.13307800403E+04  0.13589784562E+04  0.27540321128E+03 0.  0.
         25    1    3    3    0    0 -0.18573034601E+02 -0.20453760501E+02  0.96951000818E+03  0.97729881300E+03  0.12000000000E+03 0.  0.
         25    1    3    3    0    0  0.18573034601E+02  0.20453760501E+02  0.36127003213E+03  0.38167964321E+03  0.12000000000E+03 0.  0.
<mgrwt>
<rscale>  0 0.27540321E+03</rscale>
<asrwt>0</asrwt>
<pdfrwt beam="1">  1        2 0.20690440E+00 0.27540321E+03</pdfrwt>
<pdfrwt beam="2">  1       -2 0.21691100E-02 0.27540321E+03</pdfrwt>
<totfact> 0.11356886E+04</totfact>
</mgrwt>
</event>
<event>
 5    1  0.1107336E+001  0.2749128E+03  0.7818608E-02  0.1098500E+00
          1   -1    0    0  501    0  0.00000000000E+00  0.00000000000E+00  0.58826399902E+03  0.58826399902E+03  0.00000000000E+00 0.  1.
         -1   -1    0    0    0  501 -0.00000000000E+00 -0.00000000000E+00 -0.32118683733E+02  0.32118683733E+02  0.00000000000E+00 0.  1.
         35    2    1    2    0    0  0.00000000000E+00  0.00000000000E+00  0.55614531529E+03  0.62038268275E+03  0.27491282499E+03 0.  0.
         25    1    3    3    0    0  0.39478549803E+02 -0.48824555868E+02  0.22505946998E+03  0.26266739078E+03  0.12000000000E+03 0.  0.
         25    1    3    3    0    0 -0.39478549803E+02  0.48824555868E+02  0.33108584531E+03  0.35771529197E+03  0.12000000000E+03 0.  0.
<mgrwt>
<rscale>  0 0.27491282E+03</rscale>
<asrwt>0</asrwt>
<pdfrwt beam="1">  1        1 0.90502145E-01 0.27491282E+03</pdfrwt>
<pdfrwt beam="2">  1       -1 0.49413364E-02 0.27491282E+03</pdfrwt>
<totfact> 0.64527175E+03</totfact>
</mgrwt>
</event>
<event>
 5    1  0.1107336E+001  0.2772465E+03  0.7818608E-02  0.1097202E+00
          2   -1    0    0  501    0  0.00000000000E+00  0.00000000000E+00  0.24981956013E+04  0.24981956013E+04  0.00000000000E+00 0. -1.
         -2   -1    0    0    0  501 -0.00000000000E+00 -0.00000000000E+00 -0.76921118740E+01  0.76921118740E+01  0.00000000000E+00 0. -1.
         35    2    1    2    0    0  0.00000000000E+00  0.00000000000E+00  0.24905034895E+04  0.25058877132E+04  0.27724646110E+03 0.  0.
         25    1    3    3    0    0 -0.24779415896E+01 -0.16384987947E+02  0.63612282787E+03  0.64755452293E+03  0.12000000000E+03 0.  0.
         25    1    3    3    0    0  0.24779415896E+01  0.16384987947E+02  0.18543806616E+04  0.18583331903E+04  0.12000000000E+03 0.  0.
<mgrwt>
<rscale>  0 0.27724646E+03</rscale>
<asrwt>0</asrwt>
<pdfrwt beam="1">  1        2 0.38433714E+00 0.27724646E+03</pdfrwt>
<pdfrwt beam="2">  1       -2 0.11834038E-02 0.27724646E+03</pdfrwt>
<totfact> 0.67067103E+03</totfact>
</mgrwt>
</event>
<event>
 5    1  0.1107336E+001  0.2748091E+03  0.7818608E-02  0.1098558E+00
          1   -1    0    0  501    0  0.00000000000E+00  0.00000000000E+00  0.47670795204E+02  0.47670795204E+02  0.00000000000E+00 0.  1.
         -1   -1    0    0    0  501 -0.00000000000E+00 -0.00000000000E+00 -0.39604981449E+03  0.39604981449E+03  0.00000000000E+00 0.  1.
         35    2    1    2    0    0  0.00000000000E+00  0.00000000000E+00 -0.34837901929E+03  0.44372060969E+03  0.27480909444E+03 0.  0.
         25    1    3    3    0    0  0.51768950142E+02  0.37357755601E+02 -0.14172003881E+03  0.19636750114E+03  0.12000000000E+03 0.  0.
         25    1    3    3    0    0 -0.51768950142E+02 -0.37357755601E+02 -0.20665898047E+03  0.24735310855E+03  0.12000000000E+03 0.  0.
<mgrwt>
<rscale>  0 0.27480909E+03</rscale>
<asrwt>0</asrwt>
<pdfrwt beam="1">  1        1 0.73339688E-02 0.27480909E+03</pdfrwt>
<pdfrwt beam="2">  1       -1 0.60930738E-01 0.27480909E+03</pdfrwt>
<totfact> 0.27548661E+03</totfact>
</mgrwt>
</event>
<event>
 5    1  0.1107336E+001  0.2747090E+03  0.7818608E-02  0.1098614E+00
          2   -1    0    0  501    0  0.00000000000E+00  0.00000000000E+00  0.20628738384E+03  0.20628738384E+03  0.00000000000E+00 0. -1.
         -2   -1    0    0    0  501 -0.00000000000E+00 -0.00000000000E+00 -0.91456206498E+02  0.91456206498E+02  0.00000000000E+00 0. -1.
         35    2    1    2    0    0  0.00000000000E+00  0.00000000000E+00  0.11483117734E+03  0.29774359033E+03  0.27470902114E+03 0.  0.
         25    1    3    3    0    0  0.40457222680E+02 -0.52909073193E+02  0.51468745103E+02  0.14657826788E+03  0.12000000000E+03 0.  0.
         25    1    3    3    0    0 -0.40457222680E+02  0.52909073193E+02  0.63362432235E+02  0.15116532245E+03  0.12000000000E+03 0.  0.
<mgrwt>
<rscale>  0 0.27470902E+03</rscale>
<asrwt>0</asrwt>
<pdfrwt beam="1">  1        2 0.31736520E-01 0.27470902E+03</pdfrwt>
<pdfrwt beam="2">  1       -2 0.14070186E-01 0.27470902E+03</pdfrwt>
<totfact> 0.62250442E+03</totfact>
</mgrwt>
</event>
<event>
 5    1  0.1107336E+001  0.2798818E+03  0.7818608E-02  0.1095754E+00
         -2   -1    0    0    0  501 -0.00000000000E+00  0.00000000000E+00  0.73575978224E+01  0.73575978224E+01  0.00000000000E+00 0.  1.
          2   -1    0    0  501    0  0.00000000000E+00 -0.00000000000E+00 -0.26616648837E+04  0.26616648837E+04  0.00000000000E+00 0.  1.
         35    2    1    2    0    0  0.00000000000E+00  0.00000000000E+00 -0.26543072859E+04  0.26690224815E+04  0.27988183044E+03 0.  0.
         25    1    3    3    0    0  0.57739166153E+02 -0.40329208627E+02 -0.11846821728E+04  0.11928252626E+04  0.12000000000E+03 0.  0.
         25    1    3    3    0    0 -0.57739166153E+02  0.40329208627E+02 -0.14696251131E+04  0.14761972190E+04  0.12000000000E+03 0.  0.
<mgrwt>
<rscale>  0 0.27988183E+03</rscale>
<asrwt>0</asrwt>
<pdfrwt beam="1">  1        2 0.40948658E+00 0.27988183E+03</pdfrwt>
<pdfrwt beam="2">  1       -2 0.11319390E-02 0.27988183E+03</pdfrwt>
<totfact> 0.58079466E+03</totfact>
</mgrwt>
</event>
<event>
 5    1  0.1107336E+001  0.2739873E+03  0.7818608E-02  0.1099019E+00
         -2   -1    0    0    0  501 -0.00000000000E+00  0.00000000000E+00  0.17439008603E+02  0.17439008603E+02  0.00000000000E+00 0.  1.
          2   -1    0    0  501    0  0.00000000000E+00 -0.00000000000E+00 -0.10761652999E+04  0.10761652999E+04  0.00000000000E+00 0.  1.
         35    2    1    2    0    0  0.00000000000E+00  0.00000000000E+00 -0.10587262913E+04  0.10936043085E+04  0.27398726922E+03 0.  0.
         25    1    3    3    0    0  0.43965801967E+02  0.48480165573E+02 -0.56593175386E+03  0.58220449004E+03  0.12000000000E+03 0.  0.
         25    1    3    3    0    0 -0.43965801967E+02 -0.48480165573E+02 -0.49279453745E+03  0.51139981848E+03  0.12000000000E+03 0.  0.
<mgrwt>
<rscale>  0 0.27398727E+03</rscale>
<asrwt>0</asrwt>
<pdfrwt beam="1">  1        2 0.16556395E+00 0.27398727E+03</pdfrwt>
<pdfrwt beam="2">  1       -2 0.26829235E-02 0.27398727E+03</pdfrwt>
<totfact> 0.11784098E+04</totfact>
</mgrwt>
</event>
<event>
 5    1  0.1107336E+001  0.2753758E+03  0.7818608E-02  0.1098242E+00
          2   -1    0    0  501    0  0.00000000000E+00  0.00000000000E+00  0.55356040116E+03  0.55356040116E+03  0.00000000000E+00 0.  1.
         -2   -1    0    0    0  501 -0.00000000000E+00 -0.00000000000E+00 -0.34247304451E+02  0.34247304451E+02  0.00000000000E+00 0.  1.
         35    2    1    2    0    0  0.00000000000E+00  0.00000000000E+00  0.51931309671E+03  0.58780770561E+03  0.27537575485E+03 0.  0.
         25    1    3    3    0    0  0.20586358617E+02  0.63879704287E+02  0.27527492231E+03  0.30770228734E+03  0.12000000000E+03 0.  0.
         25    1    3    3    0    0 -0.20586358617E+02 -0.63879704287E+02  0.24403817439E+03  0.28010541827E+03  0.12000000000E+03 0.  0.
<mgrwt>
<rscale>  0 0.27537575E+03</rscale>
<asrwt>0</asrwt>
<pdfrwt beam="1">  1        2 0.85163132E-01 0.27537575E+03</pdfrwt>
<pdfrwt beam="2">  1       -2 0.52688165E-02 0.27537575E+03</pdfrwt>
<totfact> 0.99641013E+03</totfact>
</mgrwt>
</event>
<event>
 5    1  0.1107336E+001  0.2751961E+03  0.7818608E-02  0.1098342E+00
         -2   -1    0    0    0  501 -0.00000000000E+00  0.00000000000E+00  0.93708777374E+01  0.93708777374E+01  0.00000000000E+00 0.  1.
          2   -1    0    0  501    0  0.00000000000E+00 -0.00000000000E+00 -0.20204329004E+04  0.20204329004E+04  0.00000000000E+00 0.  1.
         35    2    1    2    0    0  0.00000000000E+00  0.00000000000E+00 -0.20110620226E+04  0.20298037781E+04  0.27519614595E+03 0.  0.
         25    1    3    3    0    0  0.22575128635E+02 -0.63426267311E+02 -0.10117103135E+04  0.10210241360E+04  0.12000000000E+03 0.  0.
         25    1    3    3    0    0 -0.22575128635E+02  0.63426267311E+02 -0.99935170911E+03  0.10087796421E+04  0.12000000000E+03 0.  0.
<mgrwt>
<rscale>  0 0.27519615E+03</rscale>
<asrwt>0</asrwt>
<pdfrwt beam="1">  1        2 0.31083554E+00 0.27519615E+03</pdfrwt>
<pdfrwt beam="2">  1       -2 0.14416748E-02 0.27519615E+03</pdfrwt>
<totfact> 0.90619605E+03</totfact>
</mgrwt>
</event>
<event>
 5    1  0.1107336E+001  0.2753073E+03  0.7818608E-02  0.1098280E+00
         -2   -1    0    0    0  501 -0.00000000000E+00  0.00000000000E+00  0.10965932378E+02  0.10965932378E+02  0.00000000000E+00 0.  1.
          2   -1    0    0  501    0  0.00000000000E+00 -0.00000000000E+00 -0.17279449082E+04  0.17279449082E+04  0.00000000000E+00 0.  1.
         35    2    1    2    0    0  0.00000000000E+00  0.00000000000E+00 -0.17169789758E+04  0.17389108405E+04  0.27530729751E+03 0.  0.
         25    1    3    3    0    0 -0.22645429452E+02 -0.59726142910E+02 -0.99520383975E+03  0.10044454740E+04  0.12000000000E+03 0.  0.
         25    1    3    3    0    0  0.22645429452E+02  0.59726142910E+02 -0.72177513602E+03  0.73446536651E+03  0.12000000000E+03 0.  0.
<mgrwt>
<rscale>  0 0.27530730E+03</rscale>
<asrwt>0</asrwt>
<pdfrwt beam="1">  1        2 0.26583762E+00 0.27530730E+03</pdfrwt>
<pdfrwt beam="2">  1       -2 0.16870669E-02 0.27530730E+03</pdfrwt>
<totfact> 0.10255194E+04</totfact>
</mgrwt>
</event>
<event>
 5    1  0.1107336E+001  0.2762629E+03  0.7818608E-02  0.1097748E+00
         -1   -1    0    0    0  501 -0.00000000000E+00  0.00000000000E+00  0.15045017933E+03  0.15045017933E+03  0.00000000000E+00 0. -1.
          1   -1    0    0  501    0  0.00000000000E+00 -0.00000000000E+00 -0.12682138260E+03  0.12682138260E+03  0.00000000000E+00 0. -1.
         35    2    1    2    0    0  0.00000000000E+00  0.00000000000E+00  0.23628796726E+02  0.27727156193E+03  0.27626291648E+03 0.  0.
         25    1    3    3    0    0  0.66985707902E+02  0.62673833453E+01 -0.63793842947E+00  0.13757460566E+03  0.12000000000E+03 0.  0.
         25    1    3    3    0    0 -0.66985707902E+02 -0.62673833453E+01  0.24266735156E+02  0.13969695627E+03  0.12000000000E+03 0.  0.
<mgrwt>
<rscale>  0 0.27626292E+03</rscale>
<asrwt>0</asrwt>
<pdfrwt beam="1">  1        1 0.19510982E-01 0.27626292E+03</pdfrwt>
<pdfrwt beam="2">  1       -1 0.23146181E-01 0.27626292E+03</pdfrwt>
<totfact> 0.41527014E+03</totfact>
</mgrwt>
</event>
<event>
 5    1  0.1107336E+001  0.2745342E+03  0.7818608E-02  0.1098712E+00
          2   -1    0    0  501    0  0.00000000000E+00  0.00000000000E+00  0.81965217902E+02  0.81965217902E+02  0.00000000000E+00 0.  1.
         -2   -1    0    0    0  501 -0.00000000000E+00 -0.00000000000E+00 -0.22988105832E+03  0.22988105832E+03  0.00000000000E+00 0.  1.
         35    2    1    2    0    0  0.00000000000E+00  0.00000000000E+00 -0.14791584041E+03  0.31184627622E+03  0.27453415843E+03 0.  0.
         25    1    3    3    0    0  0.24901962395E+02 -0.61767506705E+02 -0.76945693620E+02  0.15734030756E+03  0.12000000000E+03 0.  0.
         25    1    3    3    0    0 -0.24901962395E+02  0.61767506705E+02 -0.70970146793E+02  0.15450596866E+03  0.12000000000E+03 0.  0.
<mgrwt>
<rscale>  0 0.27453416E+03</rscale>
<asrwt>0</asrwt>
<pdfrwt beam="1">  1        2 0.12610034E-01 0.27453416E+03</pdfrwt>
<pdfrwt beam="2">  1       -2 0.35366315E-01 0.27453416E+03</pdfrwt>
<totfact> 0.36035191E+03</totfact>
</mgrwt>
</event>
<event>
 5    1  0.1107336E+001  0.2753059E+03  0.7818608E-02  0.1098281E+00
          1   -1    0    0  501    0  0.00000000000E+00  0.00000000000E+00  0.45881568941E+03  0.45881568941E+03  0.00000000000E+00 0.  1.
         -1   -1    0    0    0  501 -0.00000000000E+00 -0.00000000000E+00 -0.41298360001E+02  0.41298360001E+02  0.00000000000E+00 0.  1.
         35    2    1    2    0    0  0.00000000000E+00  0.00000000000E+00  0.41751732941E+03  0.50011404941E+03  0.27530590633E+03 0.  0.
         25    1    3    3    0    0 -0.36299197971E+02 -0.51645633369E+02  0.25187823209E+03  0.28605514682E+03  0.12000000000E+03 0.  0.
         25    1    3    3    0    0  0.36299197971E+02  0.51645633369E+02  0.16563909732E+03  0.21405890259E+03  0.12000000000E+03 0.  0.
<mgrwt>
<rscale>  0 0.27530591E+03</rscale>
<asrwt>0</asrwt>
<pdfrwt beam="1">  1        1 0.70587026E-01 0.27530591E+03</pdfrwt>
<pdfrwt beam="2">  1       -1 0.63535941E-02 0.27530591E+03</pdfrwt>
<totfact> 0.61697965E+03</totfact>
</mgrwt>
</event>
<event>
 5    1  0.1107336E+001  0.2747782E+03  0.7818608E-02  0.1098576E+00
         -1   -1    0    0    0  501 -0.00000000000E+00  0.00000000000E+00  0.34626814222E+02  0.34626814222E+02  0.00000000000E+00 0.  1.
          1   -1    0    0  501    0  0.00000000000E+00 -0.00000000000E+00 -0.54512005484E+03  0.54512005484E+03  0.00000000000E+00 0.  1.
         35    2    1    2    0    0  0.00000000000E+00  0.00000000000E+00 -0.51049324062E+03  0.57974686906E+03  0.27477824417E+03 0.  0.
         25    1    3    3    0    0 -0.24199430242E+01 -0.39315032378E+02 -0.14115262319E+03  0.18940852919E+03  0.12000000000E+03 0.  0.
         25    1    3    3    0    0  0.24199430242E+01  0.39315032378E+02 -0.36934061743E+03  0.39033833988E+03  0.12000000000E+03 0.  0.
<mgrwt>
<rscale>  0 0.27477824E+03</rscale>
<asrwt>0</asrwt>
<pdfrwt beam="1">  1        1 0.83864627E-01 0.27477824E+03</pdfrwt>
<pdfrwt beam="2">  1       -1 0.53272020E-02 0.27477824E+03</pdfrwt>
<totfact> 0.63974911E+03</totfact>
</mgrwt>
</event>
<event>
 5    1  0.1107336E+001  0.2746959E+03  0.7818608E-02  0.1098622E+00
          1   -1    0    0  501    0  0.00000000000E+00  0.00000000000E+00  0.61743580092E+03  0.61743580092E+03  0.00000000000E+00 0. -1.
         -1   -1    0    0    0  501 -0.00000000000E+00 -0.00000000000E+00 -0.30552917640E+02  0.30552917640E+02  0.00000000000E+00 0. -1.
         35    2    1    2    0    0  0.00000000000E+00  0.00000000000E+00  0.58688288328E+03  0.64798871856E+03  0.27469594226E+03 0.  0.
         25    1    3    3    0    0  0.63144217753E+02 -0.20308380647E+02  0.31243671093E+03  0.34119836004E+03  0.12000000000E+03 0.  0.
         25    1    3    3    0    0 -0.63144217753E+02  0.20308380647E+02  0.27444617235E+03  0.30679035851E+03  0.12000000000E+03 0.  0.
<mgrwt>
<rscale>  0 0.27469594E+03</rscale>
<asrwt>0</asrwt>
<pdfrwt beam="1">  1        1 0.94990114E-01 0.27469594E+03</pdfrwt>
<pdfrwt beam="2">  1       -1 0.47004493E-02 0.27469594E+03</pdfrwt>
<totfact> 0.65009857E+03</totfact>
</mgrwt>
</event>
<event>
 5    1  0.1107336E+001  0.2750560E+03  0.7818608E-02  0.1098420E+00
         -1   -1    0    0    0  501 -0.00000000000E+00  0.00000000000E+00  0.67522484989E+03  0.67522484989E+03  0.00000000000E+00 0. -1.
          1   -1    0    0  501    0  0.00000000000E+00 -0.00000000000E+00 -0.28011338124E+02  0.28011338124E+02  0.00000000000E+00 0. -1.
         35    2    1    2    0    0  0.00000000000E+00  0.00000000000E+00  0.64721351176E+03  0.70323618801E+03  0.27505600579E+03 0.  0.
         25    1    3    3    0    0  0.95164858606E+01  0.11066085682E+02  0.49127903101E+03  0.50593290866E+03  0.12000000000E+03 0.  0.
         25    1    3    3    0    0 -0.95164858606E+01 -0.11066085682E+02  0.15593448076E+03  0.19730327936E+03  0.12000000000E+03 0.  0.
<mgrwt>
<rscale>  0 0.27505601E+03</rscale>
<asrwt>0</asrwt>
<pdfrwt beam="1">  1        1 0.43094371E-02 0.27505601E+03</pdfrwt>
<pdfrwt beam="2">  1       -1 0.10388073E+00 0.27505601E+03</pdfrwt>
<totfact> 0.18930674E+03</totfact>
</mgrwt>
</event>
<event>
 5    1  0.1107336E+001  0.2748839E+03  0.7818608E-02  0.1098516E+00
          1   -1    0    0  501    0  0.00000000000E+00  0.00000000000E+00  0.16123931229E+03  0.16123931229E+03  0.00000000000E+00 0. -1.
         -1   -1    0    0    0  501 -0.00000000000E+00 -0.00000000000E+00 -0.11715687759E+03  0.11715687759E+03  0.00000000000E+00 0. -1.
         35    2    1    2    0    0  0.00000000000E+00  0.00000000000E+00  0.44082434698E+02  0.27839618988E+03  0.27488393458E+03 0.  0.
         25    1    3    3    0    0 -0.54576772931E+02  0.33519954437E+02  0.20896888503E+01  0.13603888521E+03  0.12000000000E+03 0.  0.
         25    1    3    3    0    0  0.54576772931E+02 -0.33519954437E+02  0.41992745848E+02  0.14235730467E+03  0.12000000000E+03 0.  0.
<mgrwt>
<rscale>  0 0.27488393E+03</rscale>
<asrwt>0</asrwt>
<pdfrwt beam="1">  1        1 0.24806048E-01 0.27488393E+03</pdfrwt>
<pdfrwt beam="2">  1       -1 0.18024135E-01 0.27488393E+03</pdfrwt>
<totfact> 0.45877788E+03</totfact>
</mgrwt>
</event>
<event>
 5    1  0.1107336E+001  0.2751011E+03  0.7818608E-02  0.1098395E+00
         -2   -1    0    0    0  501 -0.00000000000E+00  0.00000000000E+00  0.60802647405E+02  0.60802647405E+02  0.00000000000E+00 0. -1.
          2   -1    0    0  501    0  0.00000000000E+00 -0.00000000000E+00 -0.31117311607E+03  0.31117311607E+03  0.00000000000E+00 0. -1.
         35    2    1    2    0    0  0.00000000000E+00  0.00000000000E+00 -0.25037046866E+03  0.37197576347E+03  0.27510106694E+03 0.  0.
         25    1    3    3    0    0  0.65142126269E+02  0.15780051230E+02 -0.13229429173E+03  0.19077286562E+03  0.12000000000E+03 0.  0.
         25    1    3    3    0    0 -0.65142126269E+02 -0.15780051230E+02 -0.11807617693E+03  0.18120289785E+03  0.12000000000E+03 0.  0.
<mgrwt>
<rscale>  0 0.27510107E+03</rscale>
<asrwt>0</asrwt>
<pdfrwt beam="1">  1        2 0.47872787E-01 0.27510107E+03</pdfrwt>
<pdfrwt beam="2">  1       -2 0.93542534E-02 0.27510107E+03</pdfrwt>
<totfact> 0.76991062E+03</totfact>
</mgrwt>
</event>
<event>
 5    1  0.1107336E+001  0.2748189E+03  0.7818608E-02  0.1098553E+00
          2   -1    0    0  501    0  0.00000000000E+00  0.00000000000E+00  0.39089863413E+03  0.39089863413E+03  0.00000000000E+00 0. -1.
         -2   -1    0    0    0  501 -0.00000000000E+00 -0.00000000000E+00 -0.48302425913E+02  0.48302425913E+02  0.00000000000E+00 0. -1.
         35    2    1    2    0    0  0.00000000000E+00  0.00000000000E+00  0.34259620821E+03  0.43920106004E+03  0.27481886627E+03 0.  0.
         25    1    3    3    0    0  0.18820843801E+02 -0.29956002649E+02  0.26212246888E+03  0.29044754251E+03  0.12000000000E+03 0.  0.
         25    1    3    3    0    0 -0.18820843801E+02  0.29956002649E+02  0.80473739330E+02  0.14875351753E+03  0.12000000000E+03 0.  0.
<mgrwt>
<rscale>  0 0.27481887E+03</rscale>
<asrwt>0</asrwt>
<pdfrwt beam="1">  1        2 0.60138249E-01 0.27481887E+03</pdfrwt>
<pdfrwt beam="2">  1       -2 0.74311427E-02 0.27481887E+03</pdfrwt>
<totfact> 0.86323779E+03</totfact>
</mgrwt>
</event>
<event>
 5    1  0.1107336E+001  0.2748969E+03  0.7818608E-02  0.1098509E+00
          1   -1    0    0  501    0  0.00000000000E+00  0.00000000000E+00  0.15201550774E+03  0.15201550774E+03  0.00000000000E+00 0. -1.
         -1   -1    0    0    0  501 -0.00000000000E+00 -0.00000000000E+00 -0.12427727256E+03  0.12427727256E+03  0.00000000000E+00 0. -1.
         35    2    1    2    0    0  0.00000000000E+00  0.00000000000E+00  0.27738235188E+02  0.27629278030E+03  0.27489687295E+03 0.  0.
         25    1    3    3    0    0 -0.38510573742E+02 -0.31959312497E+01  0.68908440717E+02  0.14367202744E+03  0.12000000000E+03 0.  0.
         25    1    3    3    0    0  0.38510573742E+02  0.31959312497E+01 -0.41170205530E+02  0.13262075286E+03  0.12000000000E+03 0.  0.
<mgrwt>
<rscale>  0 0.27489687E+03</rscale>
<asrwt>0</asrwt>
<pdfrwt beam="1">  1        1 0.23387001E-01 0.27489687E+03</pdfrwt>
<pdfrwt beam="2">  1       -1 0.19119580E-01 0.27489687E+03</pdfrwt>
<totfact> 0.44963199E+03</totfact>
</mgrwt>
</event>
<event>
 5    1  0.1107336E+001  0.2746294E+03  0.7818608E-02  0.1098659E+00
         -2   -1    0    0    0  501 -0.00000000000E+00  0.00000000000E+00  0.35726505443E+03  0.35726505443E+03  0.00000000000E+00 0. -1.
          2   -1    0    0  501    0  0.00000000000E+00 -0.00000000000E+00 -0.52776869970E+02  0.52776869970E+02  0.00000000000E+00 0. -1.
         35    2    1    2    0    0  0.00000000000E+00  0.00000000000E+00  0.30448818446E+03  0.41004192440E+03  0.27462943267E+03 0.  0.
         25    1    3    3    0    0  0.45259092261E+02 -0.19000187699E+02  0.21977887358E+03  0.25517081698E+03  0.12000000000E+03 0.  0.
         25    1    3    3    0    0 -0.45259092261E+02  0.19000187699E+02  0.84709310885E+02  0.15487110743E+03  0.12000000000E+03 0.  0.
<mgrwt>
<rscale>  0 0.27462943E+03</rscale>
<asrwt>0</asrwt>
<pdfrwt beam="1">  1        2 0.81195187E-02 0.27462943E+03</pdfrwt>
<pdfrwt beam="2">  1       -2 0.54963853E-01 0.27462943E+03</pdfrwt>
<totfact> 0.26361412E+03</totfact>
</mgrwt>
</event>
<event>
 5    1  0.1107336E+001  0.2751580E+03  0.7818608E-02  0.1098363E+00
          2   -1    0    0  501    0  0.00000000000E+00  0.00000000000E+00  0.10303079007E+03  0.10303079007E+03  0.00000000000E+00 0. -1.
         -2   -1    0    0    0  501 -0.00000000000E+00 -0.00000000000E+00 -0.18371192450E+03  0.18371192450E+03  0.00000000000E+00 0. -1.
         35    2    1    2    0    0  0.00000000000E+00  0.00000000000E+00 -0.80681134435E+02  0.28674271457E+03  0.27515802534E+03 0.  0.
         25    1    3    3    0    0 -0.96914987207E+00 -0.66989569909E+02 -0.46885348987E+02  0.14521287022E+03  0.12000000000E+03 0.  0.
         25    1    3    3    0    0  0.96914987207E+00  0.66989569909E+02 -0.33795785448E+02  0.14152984435E+03  0.12000000000E+03 0.  0.
<mgrwt>
<rscale>  0 0.27515803E+03</rscale>
<asrwt>0</asrwt>
<pdfrwt beam="1">  1        2 0.15850891E-01 0.27515803E+03</pdfrwt>
<pdfrwt beam="2">  1       -2 0.28263373E-01 0.27515803E+03</pdfrwt>
<totfact> 0.41359756E+03</totfact>
</mgrwt>
</event>
<event>
 5    1  0.1107336E+001  0.2748805E+03  0.7818608E-02  0.1098518E+00
          2   -1    0    0  501    0  0.00000000000E+00  0.00000000000E+00  0.23727567371E+04  0.23727567371E+04  0.00000000000E+00 0. -1.
         -2   -1    0    0    0  501 -0.00000000000E+00 -0.00000000000E+00 -0.79611316277E+01  0.79611316277E+01  0.00000000000E+00 0. -1.
         35    2    1    2    0    0  0.00000000000E+00  0.00000000000E+00  0.23647956054E+04  0.23807178687E+04  0.27488054645E+03 0.  0.
         25    1    3    3    0    0 -0.45085057739E+02  0.34682753798E+02  0.87566520056E+03  0.88567776269E+03  0.12000000000E+03 0.  0.
         25    1    3    3    0    0  0.45085057739E+02 -0.34682753798E+02  0.14891304049E+04  0.14950401060E+04  0.12000000000E+03 0.  0.
<mgrwt>
<rscale>  0 0.27488055E+03</rscale>
<asrwt>0</asrwt>
<pdfrwt beam="1">  1        2 0.36503893E+00 0.27488055E+03</pdfrwt>
<pdfrwt beam="2">  1       -2 0.12247914E-02 0.27488055E+03</pdfrwt>
<totfact> 0.74646828E+03</totfact>
</mgrwt>
</event>
<event>
 5    1  0.1107336E+001  0.2748403E+03  0.7818608E-02  0.1098541E+00
         -2   -1    0    0    0  501 -0.00000000000E+00  0.00000000000E+00  0.28091454406E+02  0.28091454406E+02  0.00000000000E+00 0. -1.
          2   -1    0    0  501    0  0.00000000000E+00 -0.00000000000E+00 -0.67224344610E+03  0.67224344610E+03  0.00000000000E+00 0. -1.
         35    2    1    2    0    0  0.00000000000E+00  0.00000000000E+00 -0.64415199170E+03  0.70033490051E+03  0.27484028901E+03 0.  0.
         25    1    3    3    0    0 -0.11689586090E+02  0.49319648228E+02 -0.43359141804E+03  0.45273677996E+03  0.12000000000E+03 0.  0.
         25    1    3    3    0    0  0.11689586090E+02 -0.49319648228E+02 -0.21056057365E+03  0.24759812055E+03  0.12000000000E+03 0.  0.
<mgrwt>
<rscale>  0 0.27484029E+03</rscale>
<asrwt>0</asrwt>
<pdfrwt beam="1">  1        2 0.10342208E+00 0.27484029E+03</pdfrwt>
<pdfrwt beam="2">  1       -2 0.43217618E-02 0.27484029E+03</pdfrwt>
<totfact> 0.10725324E+04</totfact>
</mgrwt>
</event>
<event>
 5    1  0.1107336E+001  0.2753332E+03  0.7818608E-02  0.1098266E+00
          2   -1    0    0  501    0  0.00000000000E+00  0.00000000000E+00  0.86239591242E+03  0.86239591242E+03  0.00000000000E+00 0. -1.
         -2   -1    0    0    0  501 -0.00000000000E+00 -0.00000000000E+00 -0.21976088293E+02  0.21976088293E+02  0.00000000000E+00 0. -1.
         35    2    1    2    0    0  0.00000000000E+00  0.00000000000E+00  0.84041982413E+03  0.88437200071E+03  0.27533317065E+03 0.  0.
         25    1    3    3    0    0 -0.64727155881E+02 -0.15420541027E+02  0.38434301022E+03  0.40810163844E+03  0.12000000000E+03 0.  0.
         25    1    3    3    0    0  0.64727155881E+02  0.15420541027E+02  0.45607681390E+03  0.47627036227E+03  0.12000000000E+03 0.  0.
<mgrwt>
<rscale>  0 0.27533317E+03</rscale>
<asrwt>0</asrwt>
<pdfrwt beam="1">  1        2 0.13267627E+00 0.27533317E+03</pdfrwt>
<pdfrwt beam="2">  1       -2 0.33809373E-02 0.27533317E+03</pdfrwt>
<totfact> 0.11354538E+04</totfact>
</mgrwt>
</event>
<event>
 5    1  0.1107336E+001  0.2753421E+03  0.7818608E-02  0.1098261E+00
         -1   -1    0    0    0  501 -0.00000000000E+00  0.00000000000E+00  0.31976352491E+03  0.31976352491E+03  0.00000000000E+00 0. -1.
          1   -1    0    0  501    0  0.00000000000E+00 -0.00000000000E+00 -0.59272903003E+02  0.59272903003E+02  0.00000000000E+00 0. -1.
         35    2    1    2    0    0  0.00000000000E+00  0.00000000000E+00  0.26049062191E+03  0.37903642792E+03  0.27534205924E+03 0.  0.
         25    1    3    3    0    0  0.20749063935E+01 -0.59091669089E+02  0.85486016280E+02  0.15875764414E+03  0.12000000000E+03 0.  0.
         25    1    3    3    0    0 -0.20749063935E+01  0.59091669089E+02  0.17500460563E+03  0.22027878378E+03  0.12000000000E+03 0.  0.
<mgrwt>
<rscale>  0 0.27534206E+03</rscale>
<asrwt>0</asrwt>
<pdfrwt beam="1">  1        1 0.91189083E-02 0.27534206E+03</pdfrwt>
<pdfrwt beam="2">  1       -1 0.49194388E-01 0.27534206E+03</pdfrwt>
<totfact> 0.30676863E+03</totfact>
</mgrwt>
</event>
<event>
 5    1  0.1107336E+001  0.2748494E+03  0.7818608E-02  0.1098536E+00
         -1   -1    0    0    0  501 -0.00000000000E+00  0.00000000000E+00  0.12278431881E+03  0.12278431881E+03  0.00000000000E+00 0. -1.
          1   -1    0    0  501    0  0.00000000000E+00 -0.00000000000E+00 -0.15381076611E+03  0.15381076611E+03  0.00000000000E+00 0. -1.
         35    2    1    2    0    0  0.00000000000E+00  0.00000000000E+00 -0.31026447299E+02  0.27659508492E+03  0.27484941435E+03 0.  0.
         25    1    3    3    0    0  0.65168838427E+02  0.45859456844E+01 -0.30356198227E+02  0.13996252059E+03  0.12000000000E+03 0.  0.
         25    1    3    3    0    0 -0.65168838427E+02 -0.45859456844E+01 -0.67024907155E+00  0.13663256432E+03  0.12000000000E+03 0.  0.
<mgrwt>
<rscale>  0 0.27484941E+03</rscale>
<asrwt>0</asrwt>
<pdfrwt beam="1">  1        1 0.23663195E-01 0.27484941E+03</pdfrwt>
<pdfrwt beam="2">  1       -1 0.18889895E-01 0.27484941E+03</pdfrwt>
<totfact> 0.45168767E+03</totfact>
</mgrwt>
</event>
<event>
 5    1  0.1107336E+001  0.2750767E+03  0.7818608E-02  0.1098409E+00
          2   -1    0    0  501    0  0.00000000000E+00  0.00000000000E+00  0.32408876261E+04  0.32408876261E+04  0.00000000000E+00 0. -1.
         -2   -1    0    0    0  501 -0.00000000000E+00 -0.00000000000E+00 -0.58369181929E+01  0.58369181929E+01  0.00000000000E+00 0. -1.
         35    2    1    2    0    0  0.00000000000E+00  0.00000000000E+00  0.32350507079E+04  0.32467245442E+04  0.27507668709E+03 0.  0.
         25    1    3    3    0    0 -0.52572365643E+02  0.32361081418E+02  0.13039784214E+04  0.13109427206E+04  0.12000000000E+03 0.  0.
         25    1    3    3    0    0  0.52572365643E+02 -0.32361081418E+02  0.19310722865E+04  0.19357818237E+04  0.12000000000E+03 0.  0.
<mgrwt>
<rscale>  0 0.27507669E+03</rscale>
<asrwt>0</asrwt>
<pdfrwt beam="1">  1        2 0.49859666E+00 0.27507669E+03</pdfrwt>
<pdfrwt beam="2">  1       -2 0.89799000E-03 0.27507669E+03</pdfrwt>
<totfact> 0.37081126E+03</totfact>
</mgrwt>
</event>
<event>
 5    1  0.1107336E+001  0.2746446E+03  0.7818608E-02  0.1098650E+00
         -2   -1    0    0    0  501 -0.00000000000E+00  0.00000000000E+00  0.13673732791E+02  0.13673732791E+02  0.00000000000E+00 0.  1.
          2   -1    0    0  501    0  0.00000000000E+00 -0.00000000000E+00 -0.13790973785E+04  0.13790973785E+04  0.00000000000E+00 0.  1.
         35    2    1    2    0    0  0.00000000000E+00  0.00000000000E+00 -0.13654236457E+04  0.13927711113E+04  0.27464456337E+03 0.  0.
         25    1    3    3    0    0 -0.28393904785E+02  0.36255923584E+02 -0.92784975731E+03  0.93671013550E+03  0.12000000000E+03 0.  0.
         25    1    3    3    0    0  0.28393904785E+02 -0.36255923584E+02 -0.43757388842E+03  0.45606097580E+03  0.12000000000E+03 0.  0.
<mgrwt>
<rscale>  0 0.27464456E+03</rscale>
<asrwt>0</asrwt>
<pdfrwt beam="1">  1        2 0.21216877E+00 0.27464456E+03</pdfrwt>
<pdfrwt beam="2">  1       -2 0.21036518E-02 0.27464456E+03</pdfrwt>
<totfact> 0.11379742E+04</totfact>
</mgrwt>
</event>
<event>
 4    1  0.1107336E+001  0.3062163E+03  0.7818608E-02  0.1082174E+00
         -2   -1    0    0    0  501 -0.00000000000E+00  0.00000000000E+00  0.34775177697E+02  0.34775177697E+02  0.00000000000E+00 0. -1.
          2   -1    0    0  501    0  0.00000000000E+00 -0.00000000000E+00 -0.67410475787E+03  0.67410475787E+03  0.00000000000E+00 0. -1.
         25    1    1    2    0    0  0.26806887981E+02 -0.76193572523E+01 -0.53012865224E+03  0.54425458360E+03  0.12000000000E+03 0.  0.
         25    1    1    2    0    0 -0.26806887981E+02  0.76193572523E+01 -0.10920092794E+03  0.16462535197E+03  0.12000000000E+03 0.  0.
<mgrwt>
<rscale>  0 0.30621635E+03</rscale>
<asrwt>0</asrwt>
<pdfrwt beam="1">  1        2 0.10370841E+00 0.30621635E+03</pdfrwt>
<pdfrwt beam="2">  1       -2 0.53500280E-02 0.30621635E+03</pdfrwt>
<totfact> 0.77562342E+03</totfact>
</mgrwt>
</event>
<event>
 5    1  0.1107336E+001  0.2752778E+03  0.7818608E-02  0.1098296E+00
         -2   -1    0    0    0  501 -0.00000000000E+00  0.00000000000E+00  0.14543213591E+02  0.14543213591E+02  0.00000000000E+00 0.  1.
          2   -1    0    0  501    0  0.00000000000E+00 -0.00000000000E+00 -0.13026331759E+04  0.13026331759E+04  0.00000000000E+00 0.  1.
         35    2    1    2    0    0  0.00000000000E+00  0.00000000000E+00 -0.12880899623E+04  0.13171763895E+04  0.27527784152E+03 0.  0.
         25    1    3    3    0    0  0.17189214143E+02  0.55531266593E+02 -0.80738333532E+03  0.81831964464E+03  0.12000000000E+03 0.  0.
         25    1    3    3    0    0 -0.17189214143E+02 -0.55531266593E+02 -0.48070662701E+03  0.49885674487E+03  0.12000000000E+03 0.  0.
<mgrwt>
<rscale>  0 0.27527784E+03</rscale>
<asrwt>0</asrwt>
<pdfrwt beam="1">  1        2 0.20040510E+00 0.27527784E+03</pdfrwt>
<pdfrwt beam="2">  1       -2 0.22374175E-02 0.27527784E+03</pdfrwt>
<totfact> 0.11446477E+04</totfact>
</mgrwt>
</event>
<event>
 5    1  0.1107336E+001  0.2747739E+03  0.7818608E-02  0.1098578E+00
         -3   -1    0    0    0  501 -0.00000000000E+00  0.00000000000E+00  0.15921648688E+03  0.15921648688E+03  0.00000000000E+00 0.  1.
          3   -1    0    0  501    0  0.00000000000E+00 -0.00000000000E+00 -0.11855038319E+03  0.11855038319E+03  0.00000000000E+00 0.  1.
         35    2    1    2    0    0  0.00000000000E+00  0.00000000000E+00  0.40666103691E+02  0.27776687007E+03  0.27477391091E+03 0.  0.
         25    1    3    3    0    0  0.12991184928E+02  0.19533351460E+02 -0.42997990785E+02  0.12961153466E+03  0.12000000000E+03 0.  0.
         25    1    3    3    0    0 -0.12991184928E+02 -0.19533351460E+02  0.83664094476E+02  0.14815533541E+03  0.12000000000E+03 0.  0.
<mgrwt>
<rscale>  0 0.27477391E+03</rscale>
<asrwt>0</asrwt>
<pdfrwt beam="1">  1        3 0.18238520E-01 0.27477391E+03</pdfrwt>
<pdfrwt beam="2">  1       -3 0.24494844E-01 0.27477391E+03</pdfrwt>
<totfact> 0.10472961E+03</totfact>
</mgrwt>
</event>
<event>
 5    1  0.1107336E+001  0.2750983E+03  0.7818608E-02  0.1098397E+00
         -1   -1    0    0    0  501 -0.00000000000E+00  0.00000000000E+00  0.48639158491E+02  0.48639158491E+02  0.00000000000E+00 0.  1.
          1   -1    0    0  501    0  0.00000000000E+00 -0.00000000000E+00 -0.38898211419E+03  0.38898211419E+03  0.00000000000E+00 0.  1.
         35    2    1    2    0    0  0.00000000000E+00  0.00000000000E+00 -0.34034295570E+03  0.43762127268E+03  0.27509825664E+03 0.  0.
         25    1    3    3    0    0  0.39711728655E+02 -0.40436268233E+02 -0.11264652570E+03  0.17407283801E+03  0.12000000000E+03 0.  0.
         25    1    3    3    0    0 -0.39711728655E+02  0.40436268233E+02 -0.22769643000E+03  0.26354843466E+03  0.12000000000E+03 0.  0.
<mgrwt>
<rscale>  0 0.27509826E+03</rscale>
<asrwt>0</asrwt>
<pdfrwt beam="1">  1        1 0.59843401E-01 0.27509826E+03</pdfrwt>
<pdfrwt beam="2">  1       -1 0.74829476E-02 0.27509826E+03</pdfrwt>
<totfact> 0.59582446E+03</totfact>
</mgrwt>
</event>
<event>
 5    1  0.1107336E+001  0.2726893E+03  0.7818608E-02  0.1099750E+00
         -2   -1    0    0    0  501 -0.00000000000E+00  0.00000000000E+00  0.38493492887E+02  0.38493492887E+02  0.00000000000E+00 0. -1.
          2   -1    0    0  501    0  0.00000000000E+00 -0.00000000000E+00 -0.48293509281E+03  0.48293509281E+03  0.00000000000E+00 0. -1.
         35    2    1    2    0    0  0.00000000000E+00  0.00000000000E+00 -0.44444159992E+03  0.52142858570E+03  0.27268926316E+03 0.  0.
         25    1    3    3    0    0  0.49372355177E+02 -0.37199266724E+02 -0.25892471083E+03  0.29199900818E+03  0.12000000000E+03 0.  0.
         25    1    3    3    0    0 -0.49372355177E+02  0.37199266724E+02 -0.18551688909E+03  0.22942957752E+03  0.12000000000E+03 0.  0.
<mgrwt>
<rscale>  0 0.27268926E+03</rscale>
<asrwt>0</asrwt>
<pdfrwt beam="1">  1        2 0.74297711E-01 0.27268926E+03</pdfrwt>
<pdfrwt beam="2">  1       -2 0.59220755E-02 0.27268926E+03</pdfrwt>
<totfact> 0.97146304E+03</totfact>
</mgrwt>
</event>
<event>
 5    1  0.1107336E+001  0.2755410E+03  0.7818608E-02  0.1098150E+00
          4   -1    0    0  501    0  0.00000000000E+00  0.00000000000E+00  0.23569583322E+03  0.23569583322E+03  0.00000000000E+00 0. -1.
         -4   -1    0    0    0  501 -0.00000000000E+00 -0.00000000000E+00 -0.80530553622E+02  0.80530553622E+02  0.00000000000E+00 0. -1.
         35    2    1    2    0    0  0.00000000000E+00  0.00000000000E+00  0.15516527959E+03  0.31622638684E+03  0.27554103822E+03 0.  0.
         25    1    3    3    0    0  0.62695245434E+02 -0.82025669611E+01  0.49878208372E+02  0.14451924292E+03  0.12000000000E+03 0.  0.
         25    1    3    3    0    0 -0.62695245434E+02  0.82025669611E+01  0.10528707122E+03  0.17170714391E+03  0.12000000000E+03 0.  0.
<mgrwt>
<rscale>  0 0.27554104E+03</rscale>
<asrwt>0</asrwt>
<pdfrwt beam="1">  1        4 0.36260897E-01 0.27554104E+03</pdfrwt>
<pdfrwt beam="2">  1       -4 0.12389316E-01 0.27554104E+03</pdfrwt>
<totfact> 0.72777216E+02</totfact>
</mgrwt>
</event>
<event>
 5    1  0.1107336E+001  0.2745763E+03  0.7818608E-02  0.1098689E+00
         -2   -1    0    0    0  501 -0.00000000000E+00  0.00000000000E+00  0.17460294501E+02  0.17460294501E+02  0.00000000000E+00 0.  1.
          2   -1    0    0  501    0  0.00000000000E+00 -0.00000000000E+00 -0.10794794853E+04  0.10794794853E+04  0.00000000000E+00 0.  1.
         35    2    1    2    0    0  0.00000000000E+00  0.00000000000E+00 -0.10620191908E+04  0.10969397798E+04  0.27457625332E+03 0.  0.
         25    1    3    3    0    0  0.63864077921E+02  0.10193815968E+01 -0.45433314190E+03  0.47423439713E+03  0.12000000000E+03 0.  0.
         25    1    3    3    0    0 -0.63864077921E+02 -0.10193815968E+01 -0.60768604893E+03  0.62270538271E+03  0.12000000000E+03 0.  0.
<mgrwt>
<rscale>  0 0.27457625E+03</rscale>
<asrwt>0</asrwt>
<pdfrwt beam="1">  1        2 0.16607383E+00 0.27457625E+03</pdfrwt>
<pdfrwt beam="2">  1       -2 0.26861982E-02 0.27457625E+03</pdfrwt>
<totfact> 0.11710514E+04</totfact>
</mgrwt>
</event>
<event>
 5    1  0.1107336E+001  0.2766883E+03  0.7818608E-02  0.1097512E+00
         -2   -1    0    0    0  501 -0.00000000000E+00  0.00000000000E+00  0.12384973421E+02  0.12384973421E+02  0.00000000000E+00 0.  1.
          2   -1    0    0  501    0  0.00000000000E+00 -0.00000000000E+00 -0.15453488949E+04  0.15453488949E+04  0.00000000000E+00 0.  1.
         35    2    1    2    0    0  0.00000000000E+00  0.00000000000E+00 -0.15329639214E+04  0.15577338683E+04  0.27668830831E+03 0.  0.
         25    1    3    3    0    0 -0.68666945565E+02  0.46273739115E+00 -0.79391387250E+03  0.80586264368E+03  0.12000000000E+03 0.  0.
         25    1    3    3    0    0  0.68666945565E+02 -0.46273739115E+00 -0.73905004894E+03  0.75187122459E+03  0.12000000000E+03 0.  0.
<mgrwt>
<rscale>  0 0.27668831E+03</rscale>
<asrwt>0</asrwt>
<pdfrwt beam="1">  1        2 0.23774586E+00 0.27668831E+03</pdfrwt>
<pdfrwt beam="2">  1       -2 0.19053816E-02 0.27668831E+03</pdfrwt>
<totfact> 0.10714564E+04</totfact>
</mgrwt>
</event>
<event>
 5    1  0.1107336E+001  0.2749065E+03  0.7818608E-02  0.1098504E+00
         -2   -1    0    0    0  501 -0.00000000000E+00  0.00000000000E+00  0.11214102609E+02  0.11214102609E+02  0.00000000000E+00 0.  1.
          2   -1    0    0  501    0  0.00000000000E+00 -0.00000000000E+00 -0.16847892326E+04  0.16847892326E+04  0.00000000000E+00 0.  1.
         35    2    1    2    0    0  0.00000000000E+00  0.00000000000E+00 -0.16735751300E+04  0.16960033353E+04  0.27490652469E+03 0.  0.
         25    1    3    3    0    0  0.58374553803E+02 -0.25493803821E+02 -0.70798529614E+03  0.72090269948E+03  0.12000000000E+03 0.  0.
         25    1    3    3    0    0 -0.58374553803E+02  0.25493803821E+02 -0.96558983389E+03  0.97510063577E+03  0.12000000000E+03 0.  0.
<mgrwt>
<rscale>  0 0.27490652E+03</rscale>
<asrwt>0</asrwt>
<pdfrwt beam="1">  1        2 0.25919813E+00 0.27490652E+03</pdfrwt>
<pdfrwt beam="2">  1       -2 0.17252480E-02 0.27490652E+03</pdfrwt>
<totfact> 0.10456964E+04</totfact>
</mgrwt>
</event>
<event>
 5    1  0.1107336E+001  0.2773823E+03  0.7818608E-02  0.1097127E+00
         -1   -1    0    0    0  501 -0.00000000000E+00  0.00000000000E+00  0.12391678614E+03  0.12391678614E+03  0.00000000000E+00 0.  1.
          1   -1    0    0  501    0  0.00000000000E+00 -0.00000000000E+00 -0.15522698595E+03  0.15522698595E+03  0.00000000000E+00 0.  1.
         35    2    1    2    0    0  0.00000000000E+00  0.00000000000E+00 -0.31310199807E+02  0.27914377210E+03  0.27738225770E+03 0.  0.
         25    1    3    3    0    0  0.63557811516E+01  0.33078009020E+01 -0.85260019284E+02  0.14737913146E+03  0.12000000000E+03 0.  0.
         25    1    3    3    0    0 -0.63557811516E+01 -0.33078009020E+01  0.53949819477E+02  0.13176464064E+03  0.12000000000E+03 0.  0.
<mgrwt>
<rscale>  0 0.27738226E+03</rscale>
<asrwt>0</asrwt>
<pdfrwt beam="1">  1        1 0.23881075E-01 0.27738226E+03</pdfrwt>
<pdfrwt beam="2">  1       -1 0.19064121E-01 0.27738226E+03</pdfrwt>
<totfact> 0.43997653E+03</totfact>
</mgrwt>
</event>
<event>
 5    1  0.1107336E+001  0.2745898E+03  0.7818608E-02  0.1098681E+00
         -2   -1    0    0    0  501 -0.00000000000E+00  0.00000000000E+00  0.28957664689E+02  0.28957664689E+02  0.00000000000E+00 0. -1.
          2   -1    0    0  501    0  0.00000000000E+00 -0.00000000000E+00 -0.65094639113E+03  0.65094639113E+03  0.00000000000E+00 0. -1.
         35    2    1    2    0    0  0.00000000000E+00  0.00000000000E+00 -0.62198872644E+03  0.67990405582E+03  0.27458978368E+03 0.  0.
         25    1    3    3    0    0 -0.60943202616E+02 -0.15978758805E+02 -0.36527021276E+03  0.38960457262E+03  0.12000000000E+03 0.  0.
         25    1    3    3    0    0  0.60943202616E+02  0.15978758805E+02 -0.25671851369E+03  0.29029948320E+03  0.12000000000E+03 0.  0.
<mgrwt>
<rscale>  0 0.27458978E+03</rscale>
<asrwt>0</asrwt>
<pdfrwt beam="1">  1        2 0.10014559E+00 0.27458978E+03</pdfrwt>
<pdfrwt beam="2">  1       -2 0.44550256E-02 0.27458978E+03</pdfrwt>
<totfact> 0.10645099E+04</totfact>
</mgrwt>
</event>
<event>
 5    1  0.1107336E+001  0.2770232E+03  0.7818608E-02  0.1097326E+00
          1   -1    0    0  501    0  0.00000000000E+00  0.00000000000E+00  0.19335390967E+03  0.19335390967E+03  0.00000000000E+00 0. -1.
         -1   -1    0    0    0  501 -0.00000000000E+00 -0.00000000000E+00 -0.99224610850E+02  0.99224610850E+02  0.00000000000E+00 0. -1.
         35    2    1    2    0    0  0.00000000000E+00  0.00000000000E+00  0.94129298824E+02  0.29257852052E+03  0.27702322245E+03 0.  0.
         25    1    3    3    0    0  0.14018908070E+02  0.13274970357E+02 -0.23093648749E+02  0.12371770784E+03  0.12000000000E+03 0.  0.
         25    1    3    3    0    0 -0.14018908070E+02 -0.13274970357E+02  0.11722294757E+03  0.16886081268E+03  0.12000000000E+03 0.  0.
<mgrwt>
<rscale>  0 0.27702322E+03</rscale>
<asrwt>0</asrwt>
<pdfrwt beam="1">  1        1 0.29746755E-01 0.27702322E+03</pdfrwt>
<pdfrwt beam="2">  1       -1 0.15265325E-01 0.27702322E+03</pdfrwt>
<totfact> 0.47545581E+03</totfact>
</mgrwt>
</event>
<event>
 5    1  0.1107336E+001  0.2747666E+03  0.7818608E-02  0.1098582E+00
         -1   -1    0    0    0  501 -0.00000000000E+00  0.00000000000E+00  0.15581383790E+03  0.15581383790E+03  0.00000000000E+00 0. -1.
          1   -1    0    0  501    0  0.00000000000E+00 -0.00000000000E+00 -0.12113284741E+03  0.12113284741E+03  0.00000000000E+00 0. -1.
         35    2    1    2    0    0  0.00000000000E+00  0.00000000000E+00  0.34680990488E+02  0.27694668530E+03  0.27476661988E+03 0.  0.
         25    1    3    3    0    0  0.21675598726E+02 -0.15498645217E+02  0.79179822106E+02  0.14621724868E+03  0.12000000000E+03 0.  0.
         25    1    3    3    0    0 -0.21675598726E+02  0.15498645217E+02 -0.44498831617E+02  0.13072943662E+03  0.12000000000E+03 0.  0.
<mgrwt>
<rscale>  0 0.27476662E+03</rscale>
<asrwt>0</asrwt>
<pdfrwt beam="1">  1        1 0.18635823E-01 0.27476662E+03</pdfrwt>
<pdfrwt beam="2">  1       -1 0.23971360E-01 0.27476662E+03</pdfrwt>
<totfact> 0.41579216E+03</totfact>
</mgrwt>
</event>
<event>
 5    1  0.1107336E+001  0.2755233E+03  0.7818608E-02  0.1098159E+00
         -1   -1    0    0    0  501 -0.00000000000E+00  0.00000000000E+00  0.81402591201E+02  0.81402591201E+02  0.00000000000E+00 0.  1.
          1   -1    0    0  501    0  0.00000000000E+00 -0.00000000000E+00 -0.23314089333E+03  0.23314089333E+03  0.00000000000E+00 0.  1.
         35    2    1    2    0    0  0.00000000000E+00  0.00000000000E+00 -0.15173830213E+03  0.31454348453E+03  0.27552330451E+03 0.  0.
         25    1    3    3    0    0  0.18370202776E+02  0.31155158658E+02 -0.10585090409E+02  0.12577818730E+03  0.12000000000E+03 0.  0.
         25    1    3    3    0    0 -0.18370202776E+02 -0.31155158658E+02 -0.14115321172E+03  0.18876529724E+03  0.12000000000E+03 0.  0.
<mgrwt>
<rscale>  0 0.27552330E+03</rscale>
<asrwt>0</asrwt>
<pdfrwt beam="1">  1        1 0.35867829E-01 0.27552330E+03</pdfrwt>
<pdfrwt beam="2">  1       -1 0.12523476E-01 0.27552330E+03</pdfrwt>
<totfact> 0.51330258E+03</totfact>
</mgrwt>
</event>
<event>
 5    1  0.1107336E+001  0.2746404E+03  0.7818608E-02  0.1098653E+00
         -2   -1    0    0    0  501 -0.00000000000E+00  0.00000000000E+00  0.17689476317E+02  0.17689476317E+02  0.00000000000E+00 0.  1.
          2   -1    0    0  501    0  0.00000000000E+00 -0.00000000000E+00 -0.10659919283E+04  0.10659919283E+04  0.00000000000E+00 0.  1.
         35    2    1    2    0    0  0.00000000000E+00  0.00000000000E+00 -0.10483024520E+04  0.10836814046E+04  0.27464041195E+03 0.  0.
         25    1    3    3    0    0  0.68126837511E+01 -0.40876651289E+02 -0.73067728982E+03  0.74162430862E+03  0.12000000000E+03 0.  0.
         25    1    3    3    0    0 -0.68126837511E+01  0.40876651289E+02 -0.31762516215E+03  0.34205709598E+03  0.12000000000E+03 0.  0.
<mgrwt>
<rscale>  0 0.27464041E+03</rscale>
<asrwt>0</asrwt>
<pdfrwt beam="1">  1        2 0.16399869E+00 0.27464041E+03</pdfrwt>
<pdfrwt beam="2">  1       -2 0.27214590E-02 0.27464041E+03</pdfrwt>
<totfact> 0.11699962E+04</totfact>
</mgrwt>
</event>
<event>
 5    1  0.1107336E+001  0.2753192E+03  0.7818608E-02  0.1098273E+00
          2   -1    0    0  501    0  0.00000000000E+00  0.00000000000E+00  0.80481667913E+03  0.80481667913E+03  0.00000000000E+00 0. -1.
         -2   -1    0    0    0  501 -0.00000000000E+00 -0.00000000000E+00 -0.23545933491E+02  0.23545933491E+02  0.00000000000E+00 0. -1.
         35    2    1    2    0    0  0.00000000000E+00  0.00000000000E+00  0.78127074564E+03  0.82836261262E+03  0.27531916024E+03 0.  0.
         25    1    3    3    0    0  0.15373994298E+02 -0.38182318512E+02  0.22984635724E+03  0.26253303999E+03  0.12000000000E+03 0.  0.
         25    1    3    3    0    0 -0.15373994298E+02  0.38182318512E+02  0.55142438839E+03  0.56582957263E+03  0.12000000000E+03 0.  0.
<mgrwt>
<rscale>  0 0.27531916E+03</rscale>
<asrwt>0</asrwt>
<pdfrwt beam="1">  1        2 0.12381793E+00 0.27531916E+03</pdfrwt>
<pdfrwt beam="2">  1       -2 0.36224519E-02 0.27531916E+03</pdfrwt>
<totfact> 0.11198734E+04</totfact>
</mgrwt>
</event>
<event>
 5    1  0.1107336E+001  0.2748655E+03  0.7818608E-02  0.1098527E+00
         -1   -1    0    0    0  501 -0.00000000000E+00  0.00000000000E+00  0.65237124572E+01  0.65237124572E+01  0.00000000000E+00 0.  1.
          1   -1    0    0  501    0  0.00000000000E+00 -0.00000000000E+00 -0.28952481231E+04  0.28952481231E+04  0.00000000000E+00 0.  1.
         35    2    1    2    0    0  0.00000000000E+00  0.00000000000E+00 -0.28887244106E+04  0.29017718355E+04  0.27486553984E+03 0.  0.
         25    1    3    3    0    0 -0.53697399484E+02  0.75000886852E+01 -0.10289846165E+04  0.10373760181E+04  0.12000000000E+03 0.  0.
         25    1    3    3    0    0  0.53697399484E+02 -0.75000886852E+01 -0.18597397942E+04  0.18643958174E+04  0.12000000000E+03 0.  0.
<mgrwt>
<rscale>  0 0.27486554E+03</rscale>
<asrwt>0</asrwt>
<pdfrwt beam="1">  1        1 0.44542233E+00 0.27486554E+03</pdfrwt>
<pdfrwt beam="2">  1       -1 0.10036491E-02 0.27486554E+03</pdfrwt>
<totfact> 0.16017245E+03</totfact>
</mgrwt>
</event>
<event>
 5    1  0.1107336E+001  0.2754467E+03  0.7818608E-02  0.1098202E+00
          2   -1    0    0  501    0  0.00000000000E+00  0.00000000000E+00  0.67965161613E+03  0.67965161613E+03  0.00000000000E+00 0.  1.
         -2   -1    0    0    0  501 -0.00000000000E+00 -0.00000000000E+00 -0.27908011512E+02  0.27908011512E+02  0.00000000000E+00 0.  1.
         35    2    1    2    0    0  0.00000000000E+00  0.00000000000E+00  0.65174360461E+03  0.70755962764E+03  0.27544672898E+03 0.  0.
         25    1    3    3    0    0  0.23528843983E+02  0.23496632488E+02  0.47701570909E+03  0.49300069468E+03  0.12000000000E+03 0.  0.
         25    1    3    3    0    0 -0.23528843983E+02 -0.23496632488E+02  0.17472789553E+03  0.21455893296E+03  0.12000000000E+03 0.  0.
<mgrwt>
<rscale>  0 0.27544673E+03</rscale>
<asrwt>0</asrwt>
<pdfrwt beam="1">  1        2 0.10456177E+00 0.27544673E+03</pdfrwt>
<pdfrwt beam="2">  1       -2 0.42935408E-02 0.27544673E+03</pdfrwt>
<totfact> 0.10691195E+04</totfact>
</mgrwt>
</event>
<event>
 5    1  0.1107336E+001  0.2747195E+03  0.7818608E-02  0.1098608E+00
         -2   -1    0    0    0  501 -0.00000000000E+00  0.00000000000E+00  0.10216864548E+03  0.10216864548E+03  0.00000000000E+00 0. -1.
          2   -1    0    0  501    0  0.00000000000E+00 -0.00000000000E+00 -0.18467215712E+03  0.18467215712E+03  0.00000000000E+00 0. -1.
         35    2    1    2    0    0  0.00000000000E+00  0.00000000000E+00 -0.82503511644E+02  0.28684080260E+03  0.27471952352E+03 0.  0.
         25    1    3    3    0    0  0.61955177253E+02 -0.23315710938E+02 -0.31589375714E+02  0.14064122803E+03  0.12000000000E+03 0.  0.
         25    1    3    3    0    0 -0.61955177253E+02  0.23315710938E+02 -0.50914135929E+02  0.14619957456E+03  0.12000000000E+03 0.  0.
<mgrwt>
<rscale>  0 0.27471952E+03</rscale>
<asrwt>0</asrwt>
<pdfrwt beam="1">  1        2 0.28411101E-01 0.27471952E+03</pdfrwt>
<pdfrwt beam="2">  1       -2 0.15718253E-01 0.27471952E+03</pdfrwt>
<totfact> 0.58546250E+03</totfact>
</mgrwt>
</event>
<event>
 5    1  0.1107336E+001  0.2739882E+03  0.7818608E-02  0.1099019E+00
         -2   -1    0    0    0  501 -0.00000000000E+00  0.00000000000E+00  0.74235583817E+03  0.74235583817E+03  0.00000000000E+00 0.  1.
          2   -1    0    0  501    0  0.00000000000E+00 -0.00000000000E+00 -0.25280837245E+02  0.25280837245E+02  0.00000000000E+00 0.  1.
         35    2    1    2    0    0  0.00000000000E+00  0.00000000000E+00  0.71707500093E+03  0.76763667542E+03  0.27398815392E+03 0.  0.
         25    1    3    3    0    0  0.31120868670E+02  0.57985188036E+02  0.34159080210E+03  0.36798786200E+03  0.12000000000E+03 0.  0.
         25    1    3    3    0    0 -0.31120868670E+02 -0.57985188036E+02  0.37548419882E+03  0.39964881342E+03  0.12000000000E+03 0.  0.
<mgrwt>
<rscale>  0 0.27398815E+03</rscale>
<asrwt>0</asrwt>
<pdfrwt beam="1">  1        2 0.38893601E-02 0.27398815E+03</pdfrwt>
<pdfrwt beam="2">  1       -2 0.11420857E+00 0.27398815E+03</pdfrwt>
<totfact> 0.13770890E+03</totfact>
</mgrwt>
</event>
<event>
 5    1  0.1107336E+001  0.2734421E+03  0.7818608E-02  0.1099326E+00
          2   -1    0    0  501    0  0.00000000000E+00  0.00000000000E+00  0.23408727956E+02  0.23408727956E+02  0.00000000000E+00 0. -1.
         -2   -1    0    0    0  501 -0.00000000000E+00 -0.00000000000E+00 -0.79853333927E+03  0.79853333927E+03  0.00000000000E+00 0. -1.
         35    2    1    2    0    0  0.00000000000E+00  0.00000000000E+00 -0.77512461132E+03  0.82194206723E+03  0.27344213065E+03 0.  0.
         25    1    3    3    0    0 -0.62173289271E+02  0.13292060212E+02 -0.33999168194E+03  0.36611001154E+03  0.12000000000E+03 0.  0.
         25    1    3    3    0    0  0.62173289271E+02 -0.13292060212E+02 -0.43513292938E+03  0.45583205569E+03  0.12000000000E+03 0.  0.
<mgrwt>
<rscale>  0 0.27344213E+03</rscale>
<asrwt>0</asrwt>
<pdfrwt beam="1">  1        2 0.36013427E-02 0.27344213E+03</pdfrwt>
<pdfrwt beam="2">  1       -2 0.12285129E+00 0.27344213E+03</pdfrwt>
<totfact> 0.12803737E+03</totfact>
</mgrwt>
</event>
<event>
 5    1  0.1107336E+001  0.2744129E+03  0.7818608E-02  0.1098780E+00
         -1   -1    0    0    0  501 -0.00000000000E+00  0.00000000000E+00  0.12211490139E+02  0.12211490139E+02  0.00000000000E+00 0. -1.
          1   -1    0    0  501    0  0.00000000000E+00 -0.00000000000E+00 -0.15416312173E+04  0.15416312173E+04  0.00000000000E+00 0. -1.
         35    2    1    2    0    0  0.00000000000E+00  0.00000000000E+00 -0.15294197272E+04  0.15538427075E+04  0.27441293270E+03 0.  0.
         25    1    3    3    0    0 -0.55154887226E+02  0.11123170551E+02 -0.96569229216E+03  0.97474478180E+03  0.12000000000E+03 0.  0.
         25    1    3    3    0    0  0.55154887226E+02 -0.11123170551E+02 -0.56372743505E+03  0.57909792568E+03  0.12000000000E+03 0.  0.
<mgrwt>
<rscale>  0 0.27441293E+03</rscale>
<asrwt>0</asrwt>
<pdfrwt beam="1">  1        1 0.23717404E+00 0.27441293E+03</pdfrwt>
<pdfrwt beam="2">  1       -1 0.18786907E-02 0.27441293E+03</pdfrwt>
<totfact> 0.50468570E+03</totfact>
</mgrwt>
</event>
<event>
 5    1  0.1107336E+001  0.2764440E+03  0.7818608E-02  0.1097647E+00
         -2   -1    0    0    0  501 -0.00000000000E+00  0.00000000000E+00  0.11043341740E+02  0.11043341740E+02  0.00000000000E+00 0.  1.
          2   -1    0    0  501    0  0.00000000000E+00 -0.00000000000E+00 -0.17300307440E+04  0.17300307440E+04  0.00000000000E+00 0.  1.
         35    2    1    2    0    0  0.00000000000E+00  0.00000000000E+00 -0.17189874023E+04  0.17410740858E+04  0.27644399597E+03 0.  0.
         25    1    3    3    0    0  0.45817790637E+02  0.36439030688E+02 -0.10846673791E+04  0.10928542429E+04  0.12000000000E+03 0.  0.
         25    1    3    3    0    0 -0.45817790637E+02 -0.36439030688E+02 -0.63432002317E+03  0.64821984287E+03  0.12000000000E+03 0.  0.
<mgrwt>
<rscale>  0 0.27644400E+03</rscale>
<asrwt>0</asrwt>
<pdfrwt beam="1">  1        2 0.26615838E+00 0.27644400E+03</pdfrwt>
<pdfrwt beam="2">  1       -2 0.16989769E-02 0.27644400E+03</pdfrwt>
<totfact> 0.10125008E+04</totfact>
</mgrwt>
</event>
<event>
 5    1  0.1107336E+001  0.2749567E+03  0.7818608E-02  0.1098476E+00
          1   -1    0    0  501    0  0.00000000000E+00  0.00000000000E+00  0.12647186908E+04  0.12647186908E+04  0.00000000000E+00 0. -1.
         -1   -1    0    0    0  501 -0.00000000000E+00 -0.00000000000E+00 -0.14944271306E+02  0.14944271306E+02  0.00000000000E+00 0. -1.
         35    2    1    2    0    0  0.00000000000E+00  0.00000000000E+00  0.12497744195E+04  0.12796629621E+04  0.27495671835E+03 0.  0.
         25    1    3    3    0    0  0.36199448527E+02 -0.52264916301E+02  0.72451846976E+03  0.73713569618E+03  0.12000000000E+03 0.  0.
         25    1    3    3    0    0 -0.36199448527E+02  0.52264916301E+02  0.52525594975E+03  0.54252726595E+03  0.12000000000E+03 0.  0.
<mgrwt>
<rscale>  0 0.27495672E+03</rscale>
<asrwt>0</asrwt>
<pdfrwt beam="1">  1        1 0.19457202E+00 0.27495672E+03</pdfrwt>
<pdfrwt beam="2">  1       -1 0.22991197E-02 0.27495672E+03</pdfrwt>
<totfact> 0.57660631E+03</totfact>
</mgrwt>
</event>
<event>
 5    1  0.1107336E+001  0.2751065E+03  0.7818608E-02  0.1098392E+00
          2   -1    0    0  501    0  0.00000000000E+00  0.00000000000E+00  0.21205903193E+04  0.21205903193E+04  0.00000000000E+00 0. -1.
         -2   -1    0    0    0  501 -0.00000000000E+00 -0.00000000000E+00 -0.89224655502E+01  0.89224655502E+01  0.00000000000E+00 0. -1.
         35    2    1    2    0    0  0.00000000000E+00  0.00000000000E+00  0.21116678538E+04  0.21295127849E+04  0.27510648172E+03 0.  0.
         25    1    3    3    0    0 -0.31366915366E+02 -0.48770252716E+02  0.79236923992E+03  0.80349949179E+03  0.12000000000E+03 0.  0.
         25    1    3    3    0    0  0.31366915366E+02  0.48770252716E+02  0.13192986139E+04  0.13260132931E+04  0.12000000000E+03 0.  0.
<mgrwt>
<rscale>  0 0.27510648E+03</rscale>
<asrwt>0</asrwt>
<pdfrwt beam="1">  1        2 0.32624426E+00 0.27510648E+03</pdfrwt>
<pdfrwt beam="2">  1       -2 0.13726887E-02 0.27510648E+03</pdfrwt>
<totfact> 0.86194420E+03</totfact>
</mgrwt>
</event>
<event>
 5    1  0.1107336E+001  0.2744780E+03  0.7818608E-02  0.1098744E+00
         -3   -1    0    0    0  501 -0.00000000000E+00  0.00000000000E+00  0.12050325483E+03  0.12050325483E+03  0.00000000000E+00 0.  1.
          3   -1    0    0  501    0  0.00000000000E+00 -0.00000000000E+00 -0.15629900418E+03  0.15629900418E+03  0.00000000000E+00 0.  1.
         35    2    1    2    0    0  0.00000000000E+00  0.00000000000E+00 -0.35795749355E+02  0.27680225901E+03  0.27447796801E+03 0.  0.
         25    1    3    3    0    0 -0.22317211894E+02  0.60559842878E+02 -0.13581928201E+01  0.13626223690E+03  0.12000000000E+03 0.  0.
         25    1    3    3    0    0  0.22317211894E+02 -0.60559842878E+02 -0.34437556535E+02  0.14054002212E+03  0.12000000000E+03 0.  0.
<mgrwt>
<rscale>  0 0.27447797E+03</rscale>
<asrwt>0</asrwt>
<pdfrwt beam="1">  1        3 0.24046001E-01 0.27447797E+03</pdfrwt>
<pdfrwt beam="2">  1       -3 0.18538962E-01 0.27447797E+03</pdfrwt>
<totfact> 0.10523055E+03</totfact>
</mgrwt>
</event>
<event>
 5    1  0.1107336E+001  0.2744739E+03  0.7818608E-02  0.1098746E+00
          1   -1    0    0  501    0  0.00000000000E+00  0.00000000000E+00  0.83372273502E+02  0.83372273502E+02  0.00000000000E+00 0.  1.
         -1   -1    0    0    0  501 -0.00000000000E+00 -0.00000000000E+00 -0.22590220815E+03  0.22590220815E+03  0.00000000000E+00 0.  1.
         35    2    1    2    0    0  0.00000000000E+00  0.00000000000E+00 -0.14252993465E+03  0.30927448165E+03  0.27447390173E+03 0.  0.
         25    1    3    3    0    0  0.49066640766E+02 -0.42682318121E+02 -0.55144968791E+02  0.14720829834E+03  0.12000000000E+03 0.  0.
         25    1    3    3    0    0 -0.49066640766E+02  0.42682318121E+02 -0.87384965855E+02  0.16206618331E+03  0.12000000000E+03 0.  0.
<mgrwt>
<rscale>  0 0.27447390E+03</rscale>
<asrwt>0</asrwt>
<pdfrwt beam="1">  1        1 0.12826504E-01 0.27447390E+03</pdfrwt>
<pdfrwt beam="2">  1       -1 0.34754185E-01 0.27447390E+03</pdfrwt>
<totfact> 0.36152278E+03</totfact>
</mgrwt>
</event>
<event>
 5    1  0.1107336E+001  0.2755004E+03  0.7818608E-02  0.1098172E+00
         -2   -1    0    0    0  501 -0.00000000000E+00  0.00000000000E+00  0.51940857303E+02  0.51940857303E+02  0.00000000000E+00 0. -1.
          2   -1    0    0  501    0  0.00000000000E+00 -0.00000000000E+00 -0.36532154345E+03  0.36532154345E+03  0.00000000000E+00 0. -1.
         35    2    1    2    0    0  0.00000000000E+00  0.00000000000E+00 -0.31338068615E+03  0.41726240076E+03  0.27550037501E+03 0.  0.
         25    1    3    3    0    0  0.10377953621E+02 -0.55890982171E+02 -0.21220705396E+03  0.25032646197E+03  0.12000000000E+03 0.  0.
         25    1    3    3    0    0 -0.10377953621E+02  0.55890982171E+02 -0.10117363219E+03  0.16693593879E+03  0.12000000000E+03 0.  0.
<mgrwt>
<rscale>  0 0.27550038E+03</rscale>
<asrwt>0</asrwt>
<pdfrwt beam="1">  1        2 0.56203313E-01 0.27550038E+03</pdfrwt>
<pdfrwt beam="2">  1       -2 0.79909013E-02 0.27550038E+03</pdfrwt>
<totfact> 0.82955161E+03</totfact>
</mgrwt>
</event>
<event>
 5    1  0.1107336E+001  0.2751956E+03  0.7818608E-02  0.1098342E+00
         -3   -1    0    0    0  501 -0.00000000000E+00  0.00000000000E+00  0.66875679745E+03  0.66875679745E+03  0.00000000000E+00 0.  1.
          3   -1    0    0  501    0  0.00000000000E+00 -0.00000000000E+00 -0.28310981660E+02  0.28310981660E+02  0.00000000000E+00 0.  1.
         35    2    1    2    0    0  0.00000000000E+00  0.00000000000E+00  0.64044581579E+03  0.69706777911E+03  0.27519564987E+03 0.  0.
         25    1    3    3    0    0 -0.21040430277E+00  0.90003388156E+01  0.15121133686E+03  0.19325092177E+03  0.12000000000E+03 0.  0.
         25    1    3    3    0    0  0.21040430277E+00 -0.90003388156E+01  0.48923447893E+03  0.50381685734E+03  0.12000000000E+03 0.  0.
<mgrwt>
<rscale>  0 0.27519565E+03</rscale>
<asrwt>0</asrwt>
<pdfrwt beam="1">  1        3 0.43555362E-02 0.27519565E+03</pdfrwt>
<pdfrwt beam="2">  1       -3 0.10288565E+00 0.27519565E+03</pdfrwt>
<totfact> 0.61049681E+02</totfact>
</mgrwt>
</event>
<event>
 5    1  0.1107336E+001  0.2733719E+03  0.7818608E-02  0.1099365E+00
         -2   -1    0    0    0  501 -0.00000000000E+00  0.00000000000E+00  0.73629417110E+02  0.73629417110E+02  0.00000000000E+00 0. -1.
          2   -1    0    0  501    0  0.00000000000E+00 -0.00000000000E+00 -0.25374431017E+03  0.25374431017E+03  0.00000000000E+00 0. -1.
         35    2    1    2    0    0  0.00000000000E+00  0.00000000000E+00 -0.18011489306E+03  0.32737372727E+03  0.27337187604E+03 0.  0.
         25    1    3    3    0    0  0.25615336116E+02  0.24584366415E+01 -0.16211767494E+03  0.20333305163E+03  0.12000000000E+03 0.  0.
         25    1    3    3    0    0 -0.25615336116E+02 -0.24584366415E+01 -0.17997218110E+02  0.12404067565E+03  0.12000000000E+03 0.  0.
<mgrwt>
<rscale>  0 0.27337188E+03</rscale>
<asrwt>0</asrwt>
<pdfrwt beam="1">  1        2 0.39037587E-01 0.27337188E+03</pdfrwt>
<pdfrwt beam="2">  1       -2 0.11327603E-01 0.27337188E+03</pdfrwt>
<totfact> 0.70671750E+03</totfact>
</mgrwt>
</event>
<event>
 5    1  0.1107336E+001  0.2746986E+03  0.7818608E-02  0.1098620E+00
         -2   -1    0    0    0  501 -0.00000000000E+00  0.00000000000E+00  0.80341289273E+01  0.80341289273E+01  0.00000000000E+00 0. -1.
          2   -1    0    0  501    0  0.00000000000E+00 -0.00000000000E+00 -0.23480857698E+04  0.23480857698E+04  0.00000000000E+00 0. -1.
         35    2    1    2    0    0  0.00000000000E+00  0.00000000000E+00 -0.23400516409E+04  0.23561198987E+04  0.27469855338E+03 0.  0.
         25    1    3    3    0    0  0.18551740532E+02  0.34902040759E+02 -0.70793488501E+03  0.71912038000E+03  0.12000000000E+03 0.  0.
         25    1    3    3    0    0 -0.18551740532E+02 -0.34902040759E+02 -0.16321167559E+04  0.16369995187E+04  0.12000000000E+03 0.  0.
<mgrwt>
<rscale>  0 0.27469855E+03</rscale>
<asrwt>0</asrwt>
<pdfrwt beam="1">  1        2 0.36124413E+00 0.27469855E+03</pdfrwt>
<pdfrwt beam="2">  1       -2 0.12360193E-02 0.27469855E+03</pdfrwt>
<totfact> 0.75952631E+03</totfact>
</mgrwt>
</event>
<event>
 5    1  0.1107336E+001  0.2739339E+03  0.7818608E-02  0.1099049E+00
         -1   -1    0    0    0  501 -0.00000000000E+00  0.00000000000E+00  0.96602272662E+02  0.96602272662E+02  0.00000000000E+00 0.  1.
          1   -1    0    0  501    0  0.00000000000E+00 -0.00000000000E+00 -0.19419778041E+03  0.19419778041E+03  0.00000000000E+00 0.  1.
         35    2    1    2    0    0  0.00000000000E+00  0.00000000000E+00 -0.97595507748E+02  0.29080005307E+03  0.27393391125E+03 0.  0.
         25    1    3    3    0    0 -0.11191550543E+02  0.53610263750E+02 -0.87955674517E+02  0.15854183001E+03  0.12000000000E+03 0.  0.
         25    1    3    3    0    0  0.11191550543E+02 -0.53610263750E+02 -0.96398332310E+01  0.13225822306E+03  0.12000000000E+03 0.  0.
<mgrwt>
<rscale>  0 0.27393391E+03</rscale>
<asrwt>0</asrwt>
<pdfrwt beam="1">  1        1 0.29876581E-01 0.27393391E+03</pdfrwt>
<pdfrwt beam="2">  1       -1 0.14861888E-01 0.27393391E+03</pdfrwt>
<totfact> 0.49320873E+03</totfact>
</mgrwt>
</event>
<event>
 5    1  0.1107336E+001  0.2746341E+03  0.7818608E-02  0.1098656E+00
          2   -1    0    0  501    0  0.00000000000E+00  0.00000000000E+00  0.11290290754E+04  0.11290290754E+04  0.00000000000E+00 0.  1.
         -2   -1    0    0    0  501 -0.00000000000E+00 -0.00000000000E+00 -0.16701055790E+02  0.16701055790E+02  0.00000000000E+00 0.  1.
         35    2    1    2    0    0  0.00000000000E+00  0.00000000000E+00  0.11123280196E+04  0.11457301311E+04  0.27463413900E+03 0.  0.
         25    1    3    3    0    0  0.56430639948E+02 -0.31908395807E+02  0.62257557838E+03  0.63734050055E+03  0.12000000000E+03 0.  0.
         25    1    3    3    0    0 -0.56430639948E+02  0.31908395807E+02  0.48975244118E+03  0.50838963059E+03  0.12000000000E+03 0.  0.
<mgrwt>
<rscale>  0 0.27463414E+03</rscale>
<asrwt>0</asrwt>
<pdfrwt beam="1">  1        2 0.17369672E+00 0.27463414E+03</pdfrwt>
<pdfrwt beam="2">  1       -2 0.25693941E-02 0.27463414E+03</pdfrwt>
<totfact> 0.11698530E+04</totfact>
</mgrwt>
</event>
<event>
 5    1  0.1107336E+001  0.2756048E+03  0.7818608E-02  0.1098114E+00
         -2   -1    0    0    0  501 -0.00000000000E+00  0.00000000000E+00  0.14036834597E+03  0.14036834597E+03  0.00000000000E+00 0. -1.
          2   -1    0    0  501    0  0.00000000000E+00 -0.00000000000E+00 -0.13528338268E+03  0.13528338268E+03  0.00000000000E+00 0. -1.
         35    2    1    2    0    0  0.00000000000E+00  0.00000000000E+00  0.50849632893E+01  0.27565172864E+03  0.27560482335E+03 0.  0.
         25    1    3    3    0    0  0.65950089418E+02 -0.12826928806E+02 -0.61515385683E+01  0.13766548523E+03  0.12000000000E+03 0.  0.
         25    1    3    3    0    0 -0.65950089418E+02  0.12826928806E+02  0.11236501858E+02  0.13798624341E+03  0.12000000000E+03 0.  0.
<mgrwt>
<rscale>  0 0.27560482E+03</rscale>
<asrwt>0</asrwt>
<pdfrwt beam="1">  1        2 0.20812828E-01 0.27560482E+03</pdfrwt>
<pdfrwt beam="2">  1       -2 0.21595130E-01 0.27560482E+03</pdfrwt>
<totfact> 0.48472113E+03</totfact>
</mgrwt>
</event>
<event>
 5    1  0.1107336E+001  0.2757184E+03  0.7818608E-02  0.1098051E+00
         -1   -1    0    0    0  501 -0.00000000000E+00  0.00000000000E+00  0.33872424265E+02  0.33872424265E+02  0.00000000000E+00 0.  1.
          1   -1    0    0  501    0  0.00000000000E+00 -0.00000000000E+00 -0.56108037794E+03  0.56108037794E+03  0.00000000000E+00 0.  1.
         35    2    1    2    0    0  0.00000000000E+00  0.00000000000E+00 -0.52720795367E+03  0.59495280220E+03  0.27571835346E+03 0.  0.
         25    1    3    3    0    0 -0.24064803774E+01  0.64458648323E+02 -0.30909497005E+03  0.33778752049E+03  0.12000000000E+03 0.  0.
         25    1    3    3    0    0  0.24064803774E+01 -0.64458648323E+02 -0.21811298363E+03  0.25716528171E+03  0.12000000000E+03 0.  0.
<mgrwt>
<rscale>  0 0.27571835E+03</rscale>
<asrwt>0</asrwt>
<pdfrwt beam="1">  1        1 0.86320047E-01 0.27571835E+03</pdfrwt>
<pdfrwt beam="2">  1       -1 0.52111428E-02 0.27571835E+03</pdfrwt>
<totfact> 0.63587945E+03</totfact>
</mgrwt>
</event>
<event>
 5    1  0.1107336E+001  0.2747553E+03  0.7818608E-02  0.1098588E+00
         -1   -1    0    0    0  501 -0.00000000000E+00  0.00000000000E+00  0.94664194891E+03  0.94664194891E+03  0.00000000000E+00 0.  1.
          1   -1    0    0  501    0  0.00000000000E+00 -0.00000000000E+00 -0.19936382944E+02  0.19936382944E+02  0.00000000000E+00 0.  1.
         35    2    1    2    0    0  0.00000000000E+00  0.00000000000E+00  0.92670556597E+03  0.96657833185E+03  0.27475528315E+03 0.  0.
         25    1    3    3    0    0 -0.61016497083E+01  0.40111654732E+02  0.65038266431E+03  0.66260379187E+03  0.12000000000E+03 0.  0.
         25    1    3    3    0    0  0.61016497083E+01 -0.40111654732E+02  0.27632290166E+03  0.30397453998E+03  0.12000000000E+03 0.  0.
<mgrwt>
<rscale>  0 0.27475528E+03</rscale>
<asrwt>0</asrwt>
<pdfrwt beam="1">  1        1 0.30671366E-02 0.27475528E+03</pdfrwt>
<pdfrwt beam="2">  1       -1 0.14563719E+00 0.27475528E+03</pdfrwt>
<totfact> 0.13486675E+03</totfact>
</mgrwt>
</event>
<event>
 5    1  0.1107336E+001  0.2762453E+03  0.7818608E-02  0.1097758E+00
          1   -1    0    0  501    0  0.00000000000E+00  0.00000000000E+00  0.12239468766E+04  0.12239468766E+04  0.00000000000E+00 0. -1.
         -1   -1    0    0    0  501 -0.00000000000E+00 -0.00000000000E+00 -0.15587165656E+02  0.15587165656E+02  0.00000000000E+00 0. -1.
         35    2    1    2    0    0  0.00000000000E+00  0.00000000000E+00  0.12083597109E+04  0.12395340423E+04  0.27624527305E+03 0.  0.
         25    1    3    3    0    0 -0.60434923046E+02 -0.17996986768E+02  0.72303163523E+03  0.73562967382E+03  0.12000000000E+03 0.  0.
         25    1    3    3    0    0  0.60434923046E+02  0.17996986768E+02  0.48532807572E+03  0.50390436844E+03  0.12000000000E+03 0.  0.
<mgrwt>
<rscale>  0 0.27624527E+03</rscale>
<asrwt>0</asrwt>
<pdfrwt beam="1">  1        1 0.18829944E+00 0.27624527E+03</pdfrwt>
<pdfrwt beam="2">  1       -1 0.23980265E-02 0.27624527E+03</pdfrwt>
<totfact> 0.57848434E+03</totfact>
</mgrwt>
</event>
<event>
 5    1  0.1107336E+001  0.2752715E+03  0.7818608E-02  0.1098300E+00
          2   -1    0    0  501    0  0.00000000000E+00  0.00000000000E+00  0.28003494837E+04  0.28003494837E+04  0.00000000000E+00 0. -1.
         -2   -1    0    0    0  501 -0.00000000000E+00 -0.00000000000E+00 -0.67647277721E+01  0.67647277721E+01  0.00000000000E+00 0. -1.
         35    2    1    2    0    0  0.00000000000E+00  0.00000000000E+00  0.27935847560E+04  0.28071142115E+04  0.27527151632E+03 0.  0.
         25    1    3    3    0    0  0.30576493877E+02  0.29377540324E+02  0.19311359754E+04  0.19353253259E+04  0.12000000000E+03 0.  0.
         25    1    3    3    0    0 -0.30576493877E+02 -0.29377540324E+02  0.86244878058E+03  0.87178888555E+03  0.12000000000E+03 0.  0.
<mgrwt>
<rscale>  0 0.27527152E+03</rscale>
<asrwt>0</asrwt>
<pdfrwt beam="1">  1        2 0.43082207E+00 0.27527152E+03</pdfrwt>
<pdfrwt beam="2">  1       -2 0.10407296E-02 0.27527152E+03</pdfrwt>
<totfact> 0.54787195E+03</totfact>
</mgrwt>
</event>
<event>
 5    1  0.1107336E+001  0.2752253E+03  0.7818608E-02  0.1098326E+00
         -2   -1    0    0    0  501 -0.00000000000E+00  0.00000000000E+00  0.30729504477E+02  0.30729504477E+02  0.00000000000E+00 0. -1.
          2   -1    0    0  501    0  0.00000000000E+00 -0.00000000000E+00 -0.61625606397E+03  0.61625606397E+03  0.00000000000E+00 0. -1.
         35    2    1    2    0    0  0.00000000000E+00  0.00000000000E+00 -0.58552655949E+03  0.64698556845E+03  0.27522531480E+03 0.  0.
         25    1    3    3    0    0 -0.21349768400E+02 -0.25853187770E+02 -0.15542957649E+03  0.19920480209E+03  0.12000000000E+03 0.  0.
         25    1    3    3    0    0  0.21349768400E+02  0.25853187770E+02 -0.43009698300E+03  0.44778076635E+03  0.12000000000E+03 0.  0.
<mgrwt>
<rscale>  0 0.27522531E+03</rscale>
<asrwt>0</asrwt>
<pdfrwt beam="1">  1        2 0.94808616E-01 0.27522531E+03</pdfrwt>
<pdfrwt beam="2">  1       -2 0.47276165E-02 0.27522531E+03</pdfrwt>
<totfact> 0.10379383E+04</totfact>
</mgrwt>
</event>
<event>
 5    1  0.1107336E+001  0.2749003E+03  0.7818608E-02  0.1098507E+00
          1   -1    0    0  501    0  0.00000000000E+00  0.00000000000E+00  0.10631539496E+03  0.10631539496E+03  0.00000000000E+00 0. -1.
         -1   -1    0    0    0  501 -0.00000000000E+00 -0.00000000000E+00 -0.17770284661E+03  0.17770284661E+03  0.00000000000E+00 0. -1.
         35    2    1    2    0    0  0.00000000000E+00  0.00000000000E+00 -0.71387451644E+02  0.28401824157E+03  0.27490033338E+03 0.  0.
         25    1    3    3    0    0 -0.46288650284E+02 -0.11094125509E+02  0.13060746044E+02  0.12975477584E+03  0.12000000000E+03 0.  0.
         25    1    3    3    0    0  0.46288650284E+02  0.11094125509E+02 -0.84448197688E+02  0.15426346573E+03  0.12000000000E+03 0.  0.
<mgrwt>
<rscale>  0 0.27490033E+03</rscale>
<asrwt>0</asrwt>
<pdfrwt beam="1">  1        1 0.16356215E-01 0.27490033E+03</pdfrwt>
<pdfrwt beam="2">  1       -1 0.27338899E-01 0.27490033E+03</pdfrwt>
<totfact> 0.39565648E+03</totfact>
</mgrwt>
</event>
<event>
 5    1  0.1107336E+001  0.2730373E+03  0.7818608E-02  0.1099554E+00
          2   -1    0    0  501    0  0.00000000000E+00  0.00000000000E+00  0.82422045555E+03  0.82422045555E+03  0.00000000000E+00 0.  1.
         -2   -1    0    0    0  501 -0.00000000000E+00 -0.00000000000E+00 -0.22612079402E+02  0.22612079402E+02  0.00000000000E+00 0.  1.
         35    2    1    2    0    0  0.00000000000E+00  0.00000000000E+00  0.80160837615E+03  0.84683253495E+03  0.27303727501E+03 0.  0.
         25    1    3    3    0    0  0.23449669965E+02 -0.56013721168E+02  0.32807258795E+03  0.35456881835E+03  0.12000000000E+03 0.  0.
         25    1    3    3    0    0 -0.23449669965E+02  0.56013721168E+02  0.47353578820E+03  0.49226371661E+03  0.12000000000E+03 0.  0.
<mgrwt>
<rscale>  0 0.27303728E+03</rscale>
<asrwt>0</asrwt>
<pdfrwt beam="1">  1        2 0.12680312E+00 0.27303728E+03</pdfrwt>
<pdfrwt beam="2">  1       -2 0.34787821E-02 0.27303728E+03</pdfrwt>
<totfact> 0.11536923E+04</totfact>
</mgrwt>
</event>
<event>
 5    1  0.1107336E+001  0.2763436E+03  0.7818608E-02  0.1097703E+00
         -2   -1    0    0    0  501 -0.00000000000E+00  0.00000000000E+00  0.60706397327E+02  0.60706397327E+02  0.00000000000E+00 0. -1.
          2   -1    0    0  501    0  0.00000000000E+00 -0.00000000000E+00 -0.31448829843E+03  0.31448829843E+03  0.00000000000E+00 0. -1.
         35    2    1    2    0    0  0.00000000000E+00  0.00000000000E+00 -0.25378190111E+03  0.37519469576E+03  0.27634363824E+03 0.  0.
         25    1    3    3    0    0  0.61918044259E+02 -0.22421683242E+02 -0.15246769340E+03  0.20489747098E+03  0.12000000000E+03 0.  0.
         25    1    3    3    0    0 -0.61918044259E+02  0.22421683242E+02 -0.10131420771E+03  0.17029722478E+03  0.12000000000E+03 0.  0.
<mgrwt>
<rscale>  0 0.27634364E+03</rscale>
<asrwt>0</asrwt>
<pdfrwt beam="1">  1        2 0.48382816E-01 0.27634364E+03</pdfrwt>
<pdfrwt beam="2">  1       -2 0.93394456E-02 0.27634364E+03</pdfrwt>
<totfact> 0.76322264E+03</totfact>
</mgrwt>
</event>
<event>
 5    1  0.1107336E+001  0.2748064E+03  0.7818608E-02  0.1098560E+00
          1   -1    0    0  501    0  0.00000000000E+00  0.00000000000E+00  0.27208655374E+02  0.27208655374E+02  0.00000000000E+00 0. -1.
         -1   -1    0    0    0  501 -0.00000000000E+00 -0.00000000000E+00 -0.69388375498E+03  0.69388375498E+03  0.00000000000E+00 0. -1.
         35    2    1    2    0    0  0.00000000000E+00  0.00000000000E+00 -0.66667509960E+03  0.72109241035E+03  0.27480643340E+03 0.  0.
         25    1    3    3    0    0  0.25260635735E+02 -0.20574783731E+02 -0.48675126743E+03  0.50238254129E+03  0.12000000000E+03 0.  0.
         25    1    3    3    0    0 -0.25260635735E+02  0.20574783731E+02 -0.17992383217E+03  0.21870986907E+03  0.12000000000E+03 0.  0.
<mgrwt>
<rscale>  0 0.27480643E+03</rscale>
<asrwt>0</asrwt>
<pdfrwt beam="1">  1        1 0.41859473E-02 0.27480643E+03</pdfrwt>
<pdfrwt beam="2">  1       -1 0.10675134E+00 0.27480643E+03</pdfrwt>
<totfact> 0.18529646E+03</totfact>
</mgrwt>
</event>
<event>
 5    1  0.1107336E+001  0.2750058E+03  0.7818608E-02  0.1098448E+00
         -1   -1    0    0    0  501 -0.00000000000E+00  0.00000000000E+00  0.82780752281E+02  0.82780752281E+02  0.00000000000E+00 0.  1.
          1   -1    0    0  501    0  0.00000000000E+00 -0.00000000000E+00 -0.22839910264E+03  0.22839910264E+03  0.00000000000E+00 0.  1.
         35    2    1    2    0    0  0.00000000000E+00  0.00000000000E+00 -0.14561835036E+03  0.31117985492E+03  0.27500581475E+03 0.  0.
         25    1    3    3    0    0 -0.54579573220E+01  0.29422008921E+02 -0.48074770541E+01  0.12376815318E+03  0.12000000000E+03 0.  0.
         25    1    3    3    0    0  0.54579573220E+01 -0.29422008921E+02 -0.14081087331E+03  0.18741170174E+03  0.12000000000E+03 0.  0.
<mgrwt>
<rscale>  0 0.27500581E+03</rscale>
<asrwt>0</asrwt>
<pdfrwt beam="1">  1        1 0.35138323E-01 0.27500581E+03</pdfrwt>
<pdfrwt beam="2">  1       -1 0.12735500E-01 0.27500581E+03</pdfrwt>
<totfact> 0.51301770E+03</totfact>
</mgrwt>
</event>
<event>
 5    1  0.1107336E+001  0.2755042E+03  0.7818608E-02  0.1098170E+00
         -2   -1    0    0    0  501 -0.00000000000E+00  0.00000000000E+00  0.14176673306E+03  0.14176673306E+03  0.00000000000E+00 0. -1.
          2   -1    0    0  501    0  0.00000000000E+00 -0.00000000000E+00 -0.13385117206E+03  0.13385117206E+03  0.00000000000E+00 0. -1.
         35    2    1    2    0    0  0.00000000000E+00  0.00000000000E+00  0.79155610059E+01  0.27561790512E+03  0.27550421688E+03 0.  0.
         25    1    3    3    0    0  0.58162722669E+02  0.33324807918E+02 -0.51122857283E+01  0.13754846635E+03  0.12000000000E+03 0.  0.
         25    1    3    3    0    0 -0.58162722669E+02 -0.33324807918E+02  0.13027846734E+02  0.13806943877E+03  0.12000000000E+03 0.  0.
<mgrwt>
<rscale>  0 0.27550422E+03</rscale>
<asrwt>0</asrwt>
<pdfrwt beam="1">  1        2 0.20592488E-01 0.27550422E+03</pdfrwt>
<pdfrwt beam="2">  1       -2 0.21810267E-01 0.27550422E+03</pdfrwt>
<totfact> 0.48229538E+03</totfact>
</mgrwt>
</event>
<event>
 5    1  0.1107336E+001  0.2741477E+03  0.7818608E-02  0.1098929E+00
          1   -1    0    0  501    0  0.00000000000E+00  0.00000000000E+00  0.18654177235E+03  0.18654177235E+03  0.00000000000E+00 0.  1.
         -1   -1    0    0    0  501 -0.00000000000E+00 -0.00000000000E+00 -0.10072406419E+03  0.10072406419E+03  0.00000000000E+00 0.  1.
         35    2    1    2    0    0  0.00000000000E+00  0.00000000000E+00  0.85817708158E+02  0.28726583653E+03  0.27414773719E+03 0.  0.
         25    1    3    3    0    0 -0.10265124082E+02  0.25070177562E+01 -0.25623991944E+02  0.12315943680E+03  0.12000000000E+03 0.  0.
         25    1    3    3    0    0  0.10265124082E+02 -0.25070177562E+01  0.11144170010E+03  0.16410639973E+03  0.12000000000E+03 0.  0.
<mgrwt>
<rscale>  0 0.27414774E+03</rscale>
<asrwt>0</asrwt>
<pdfrwt beam="1">  1        1 0.28698734E-01 0.27414774E+03</pdfrwt>
<pdfrwt beam="2">  1       -1 0.15496010E-01 0.27414774E+03</pdfrwt>
<totfact> 0.48560759E+03</totfact>
</mgrwt>
</event>
<event>
 5    1  0.1107336E+001  0.2750246E+03  0.7818608E-02  0.1098438E+00
         -2   -1    0    0    0  501 -0.00000000000E+00  0.00000000000E+00  0.80127383186E+01  0.80127383186E+01  0.00000000000E+00 0.  1.
          2   -1    0    0  501    0  0.00000000000E+00 -0.00000000000E+00 -0.23599468225E+04  0.23599468225E+04  0.00000000000E+00 0.  1.
         35    2    1    2    0    0  0.00000000000E+00  0.00000000000E+00 -0.23519340842E+04  0.23679595608E+04  0.27502462678E+03 0.  0.
         25    1    3    3    0    0 -0.31054037187E+02 -0.53796744612E+02 -0.95625306513E+03  0.96575274658E+03  0.12000000000E+03 0.  0.
         25    1    3    3    0    0  0.31054037187E+02  0.53796744612E+02 -0.13956810190E+04  0.14022068142E+04  0.12000000000E+03 0.  0.
<mgrwt>
<rscale>  0 0.27502463E+03</rscale>
<asrwt>0</asrwt>
<pdfrwt beam="1">  1        2 0.36306887E+00 0.27502463E+03</pdfrwt>
<pdfrwt beam="2">  1       -2 0.12327285E-02 0.27502463E+03</pdfrwt>
<totfact> 0.75133777E+03</totfact>
</mgrwt>
</event>
<event>
 5    1  0.1107336E+001  0.2738406E+03  0.7818608E-02  0.1099101E+00
         -2   -1    0    0    0  501 -0.00000000000E+00  0.00000000000E+00  0.20891445197E+03  0.20891445197E+03  0.00000000000E+00 0. -1.
          2   -1    0    0  501    0  0.00000000000E+00 -0.00000000000E+00 -0.89736092465E+02  0.89736092465E+02  0.00000000000E+00 0. -1.
         35    2    1    2    0    0  0.00000000000E+00  0.00000000000E+00  0.11917835950E+03  0.29865054443E+03  0.27384058559E+03 0.  0.
         25    1    3    3    0    0  0.40831300512E+02 -0.91390955213E+01  0.40172670358E+01  0.12714895439E+03  0.12000000000E+03 0.  0.
         25    1    3    3    0    0 -0.40831300512E+02  0.91390955213E+01  0.11516109246E+03  0.17150159004E+03  0.12000000000E+03 0.  0.
<mgrwt>
<rscale>  0 0.27384059E+03</rscale>
<asrwt>0</asrwt>
<pdfrwt beam="1">  1        2 0.13805553E-01 0.27384059E+03</pdfrwt>
<pdfrwt beam="2">  1       -2 0.32140685E-01 0.27384059E+03</pdfrwt>
<totfact> 0.38571943E+03</totfact>
</mgrwt>
</event>
<event>
 5    1  0.1107336E+001  0.2840579E+03  0.7818608E-02  0.1093493E+00
          2   -1    0    0  501    0  0.00000000000E+00  0.00000000000E+00  0.15615719385E+03  0.15615719385E+03  0.00000000000E+00 0. -1.
         -2   -1    0    0    0  501 -0.00000000000E+00 -0.00000000000E+00 -0.12917899437E+03  0.12917899437E+03  0.00000000000E+00 0. -1.
         35    2    1    2    0    0  0.00000000000E+00  0.00000000000E+00  0.26978199473E+02  0.28533618822E+03  0.28405794666E+03 0.  0.
         25    1    3    3    0    0  0.27689410752E+02 -0.62706538190E+02  0.46399557035E+02  0.14577973896E+03  0.12000000000E+03 0.  0.
         25    1    3    3    0    0 -0.27689410752E+02  0.62706538190E+02 -0.19421357562E+02  0.13955644926E+03  0.12000000000E+03 0.  0.
<mgrwt>
<rscale>  0 0.28405795E+03</rscale>
<asrwt>0</asrwt>
<pdfrwt beam="1">  1        2 0.24024184E-01 0.28405795E+03</pdfrwt>
<pdfrwt beam="2">  1       -2 0.19873691E-01 0.28405795E+03</pdfrwt>
<totfact> 0.47582113E+03</totfact>
</mgrwt>
</event>
<event>
 5    1  0.1107336E+001  0.2754019E+03  0.7818608E-02  0.1098227E+00
         -1   -1    0    0    0  501 -0.00000000000E+00  0.00000000000E+00  0.34217245805E+03  0.34217245805E+03  0.00000000000E+00 0.  1.
          1   -1    0    0  501    0  0.00000000000E+00 -0.00000000000E+00 -0.55415177220E+02  0.55415177220E+02  0.00000000000E+00 0.  1.
         35    2    1    2    0    0  0.00000000000E+00  0.00000000000E+00  0.28675728082E+03  0.39758763527E+03  0.27540186929E+03 0.  0.
         25    1    3    3    0    0 -0.67218956701E+02  0.65689816894E+01  0.14325161304E+03  0.19870220004E+03  0.12000000000E+03 0.  0.
         25    1    3    3    0    0  0.67218956701E+02 -0.65689816894E+01  0.14350566778E+03  0.19888543523E+03  0.12000000000E+03 0.  0.
<mgrwt>
<rscale>  0 0.27540187E+03</rscale>
<asrwt>0</asrwt>
<pdfrwt beam="1">  1        1 0.85254121E-02 0.27540187E+03</pdfrwt>
<pdfrwt beam="2">  1       -1 0.52641915E-01 0.27540187E+03</pdfrwt>
<totfact> 0.29633098E+03</totfact>
</mgrwt>
</event>
<event>
 5    1  0.1107336E+001  0.2760544E+03  0.7818608E-02  0.1097864E+00
         -1   -1    0    0    0  501 -0.00000000000E+00  0.00000000000E+00  0.18282897530E+02  0.18282897530E+02  0.00000000000E+00 0. -1.
          1   -1    0    0  501    0  0.00000000000E+00 -0.00000000000E+00 -0.10420397509E+04  0.10420397509E+04  0.00000000000E+00 0. -1.
         35    2    1    2    0    0  0.00000000000E+00  0.00000000000E+00 -0.10237568534E+04  0.10603226484E+04  0.27605438586E+03 0.  0.
         25    1    3    3    0    0  0.37388793049E+02 -0.54461995804E+02 -0.57700279819E+03  0.59303984685E+03  0.12000000000E+03 0.  0.
         25    1    3    3    0    0 -0.37388793049E+02  0.54461995804E+02 -0.44675405517E+03  0.46728280157E+03  0.12000000000E+03 0.  0.
<mgrwt>
<rscale>  0 0.27605439E+03</rscale>
<asrwt>0</asrwt>
<pdfrwt beam="1">  1        1 0.16031377E+00 0.27605439E+03</pdfrwt>
<pdfrwt beam="2">  1       -1 0.28127541E-02 0.27605439E+03</pdfrwt>
<totfact> 0.61705002E+03</totfact>
</mgrwt>
</event>
<event>
 5    1  0.1107336E+001  0.2752963E+03  0.7818608E-02  0.1098286E+00
          1   -1    0    0  501    0  0.00000000000E+00  0.00000000000E+00  0.42352744106E+02  0.42352744106E+02  0.00000000000E+00 0. -1.
         -1   -1    0    0    0  501 -0.00000000000E+00 -0.00000000000E+00 -0.44736221096E+03  0.44736221096E+03  0.00000000000E+00 0. -1.
         35    2    1    2    0    0  0.00000000000E+00  0.00000000000E+00 -0.40500946685E+03  0.48971495506E+03  0.27529632939E+03 0.  0.
         25    1    3    3    0    0 -0.77442559389E+01 -0.18210853042E+02 -0.87834733611E+02  0.15002182874E+03  0.12000000000E+03 0.  0.
         25    1    3    3    0    0  0.77442559389E+01  0.18210853042E+02 -0.31717473324E+03  0.33969312633E+03  0.12000000000E+03 0.  0.
<mgrwt>
<rscale>  0 0.27529633E+03</rscale>
<asrwt>0</asrwt>
<pdfrwt beam="1">  1        1 0.65158068E-02 0.27529633E+03</pdfrwt>
<pdfrwt beam="2">  1       -1 0.68824956E-01 0.27529633E+03</pdfrwt>
<totfact> 0.25511117E+03</totfact>
</mgrwt>
</event>
<event>
 5    1  0.1107336E+001  0.2740140E+03  0.7818608E-02  0.1099004E+00
          1   -1    0    0  501    0  0.00000000000E+00  0.00000000000E+00  0.16049831182E+04  0.16049831182E+04  0.00000000000E+00 0. -1.
         -1   -1    0    0    0  501 -0.00000000000E+00 -0.00000000000E+00 -0.11695402850E+02  0.11695402850E+02  0.00000000000E+00 0. -1.
         35    2    1    2    0    0  0.00000000000E+00  0.00000000000E+00  0.15932877154E+04  0.16166785211E+04  0.27401404443E+03 0.  0.
         25    1    3    3    0    0  0.54170571663E+02 -0.20722943952E+02  0.98387266647E+03  0.99285916175E+03  0.12000000000E+03 0.  0.
         25    1    3    3    0    0 -0.54170571663E+02  0.20722943952E+02  0.60941504890E+03  0.62381935933E+03  0.12000000000E+03 0.  0.
<mgrwt>
<rscale>  0 0.27401404E+03</rscale>
<asrwt>0</asrwt>
<pdfrwt beam="1">  1        1 0.24692031E+00 0.27401404E+03</pdfrwt>
<pdfrwt beam="2">  1       -1 0.17992940E-02 0.27401404E+03</pdfrwt>
<totfact> 0.48831667E+03</totfact>
</mgrwt>
</event>
<event>
 5    1  0.1107336E+001  0.2760418E+03  0.7818608E-02  0.1097871E+00
         -1   -1    0    0    0  501 -0.00000000000E+00  0.00000000000E+00  0.15564500289E+03  0.15564500289E+03  0.00000000000E+00 0. -1.
          1   -1    0    0  501    0  0.00000000000E+00 -0.00000000000E+00 -0.12239244612E+03  0.12239244612E+03  0.00000000000E+00 0. -1.
         35    2    1    2    0    0  0.00000000000E+00  0.00000000000E+00  0.33252556778E+02  0.27803744901E+03  0.27604182748E+03 0.  0.
         25    1    3    3    0    0 -0.43829457970E+02  0.45306818399E+02 -0.95625280668E+01  0.13588661127E+03  0.12000000000E+03 0.  0.
         25    1    3    3    0    0  0.43829457970E+02 -0.45306818399E+02  0.42815084845E+02  0.14215083774E+03  0.12000000000E+03 0.  0.
<mgrwt>
<rscale>  0 0.27604183E+03</rscale>
<asrwt>0</asrwt>
<pdfrwt beam="1">  1        1 0.18829607E-01 0.27604183E+03</pdfrwt>
<pdfrwt beam="2">  1       -1 0.23945385E-01 0.27604183E+03</pdfrwt>
<totfact> 0.41105770E+03</totfact>
</mgrwt>
</event>
<event>
 5    1  0.1107336E+001  0.2743351E+03  0.7818608E-02  0.1098824E+00
         -2   -1    0    0    0  501 -0.00000000000E+00  0.00000000000E+00  0.34414341808E+02  0.34414341808E+02  0.00000000000E+00 0. -1.
          2   -1    0    0  501    0  0.00000000000E+00 -0.00000000000E+00 -0.54671803244E+03  0.54671803244E+03  0.00000000000E+00 0. -1.
         35    2    1    2    0    0  0.00000000000E+00  0.00000000000E+00 -0.51230369063E+03  0.58113237425E+03  0.27433513257E+03 0.  0.
         25    1    3    3    0    0 -0.53063111322E+01 -0.64493500314E+02 -0.22420979272E+03  0.26240731634E+03  0.12000000000E+03 0.  0.
         25    1    3    3    0    0  0.53063111322E+01  0.64493500314E+02 -0.28809389792E+03  0.31872505791E+03  0.12000000000E+03 0.  0.
<mgrwt>
<rscale>  0 0.27433513E+03</rscale>
<asrwt>0</asrwt>
<pdfrwt beam="1">  1        2 0.84110460E-01 0.27433513E+03</pdfrwt>
<pdfrwt beam="2">  1       -2 0.52945145E-02 0.27433513E+03</pdfrwt>
<totfact> 0.10030106E+04</totfact>
</mgrwt>
</event>
<event>
 5    1  0.1107336E+001  0.2746217E+03  0.7818608E-02  0.1098663E+00
          1   -1    0    0  501    0  0.00000000000E+00  0.00000000000E+00  0.28226297567E+04  0.28226297567E+04  0.00000000000E+00 0.  1.
         -1   -1    0    0    0  501 -0.00000000000E+00 -0.00000000000E+00 -0.66796820572E+01  0.66796820572E+01  0.00000000000E+00 0.  1.
         35    2    1    2    0    0  0.00000000000E+00  0.00000000000E+00  0.28159500746E+04  0.28293094387E+04  0.27462169863E+03 0.  0.
         25    1    3    3    0    0  0.27241525732E+01 -0.64231567557E+01  0.20918043399E+04  0.20952551335E+04  0.12000000000E+03 0.  0.
         25    1    3    3    0    0 -0.27241525732E+01  0.64231567557E+01  0.72414573475E+03  0.73405430529E+03  0.12000000000E+03 0.  0.
<mgrwt>
<rscale>  0 0.27462170E+03</rscale>
<asrwt>0</asrwt>
<pdfrwt beam="1">  1        1 0.43424978E+00 0.27462170E+03</pdfrwt>
<pdfrwt beam="2">  1       -1 0.10276456E-02 0.27462170E+03</pdfrwt>
<totfact> 0.17367383E+03</totfact>
</mgrwt>
</event>
<event>
 5    1  0.1107336E+001  0.2750098E+03  0.7818608E-02  0.1098446E+00
          2   -1    0    0  501    0  0.00000000000E+00  0.00000000000E+00  0.89737468679E+03  0.89737468679E+03  0.00000000000E+00 0.  1.
         -2   -1    0    0    0  501 -0.00000000000E+00 -0.00000000000E+00 -0.21069902001E+02  0.21069902001E+02  0.00000000000E+00 0.  1.
         35    2    1    2    0    0  0.00000000000E+00  0.00000000000E+00  0.87630478479E+03  0.91844458879E+03  0.27500979407E+03 0.  0.
         25    1    3    3    0    0  0.23658393756E+02 -0.42930499851E+02  0.59137233740E+03  0.60541224703E+03  0.12000000000E+03 0.  0.
         25    1    3    3    0    0 -0.23658393756E+02  0.42930499851E+02  0.28493244739E+03  0.31303234176E+03  0.12000000000E+03 0.  0.
<mgrwt>
<rscale>  0 0.27500979E+03</rscale>
<asrwt>0</asrwt>
<pdfrwt beam="1">  1        2 0.13805761E+00 0.27500979E+03</pdfrwt>
<pdfrwt beam="2">  1       -2 0.32415241E-02 0.27500979E+03</pdfrwt>
<totfact> 0.11470559E+04</totfact>
</mgrwt>
</event>
<event>
 5    1  0.1107336E+001  0.2751478E+03  0.7818608E-02  0.1098369E+00
          2   -1    0    0  501    0  0.00000000000E+00  0.00000000000E+00  0.15911475559E+04  0.15911475559E+04  0.00000000000E+00 0. -1.
         -2   -1    0    0    0  501 -0.00000000000E+00 -0.00000000000E+00 -0.11894919555E+02  0.11894919555E+02  0.00000000000E+00 0. -1.
         35    2    1    2    0    0  0.00000000000E+00  0.00000000000E+00  0.15792526364E+04  0.16030424755E+04  0.27514775796E+03 0.  0.
         25    1    3    3    0    0 -0.43507396345E+02 -0.20951335607E+02  0.10625672248E+04  0.10704115840E+04  0.12000000000E+03 0.  0.
         25    1    3    3    0    0  0.43507396345E+02  0.20951335607E+02  0.51668541157E+03  0.53263089146E+03  0.12000000000E+03 0.  0.
<mgrwt>
<rscale>  0 0.27514776E+03</rscale>
<asrwt>0</asrwt>
<pdfrwt beam="1">  1        2 0.24479176E+00 0.27514776E+03</pdfrwt>
<pdfrwt beam="2">  1       -2 0.18299889E-02 0.27514776E+03</pdfrwt>
<totfact> 0.10748400E+04</totfact>
</mgrwt>
</event>
<event>
 5    1  0.1107336E+001  0.2745372E+03  0.7818608E-02  0.1098711E+00
         -2   -1    0    0    0  501 -0.00000000000E+00  0.00000000000E+00  0.15882409857E+02  0.15882409857E+02  0.00000000000E+00 0. -1.
          2   -1    0    0  501    0  0.00000000000E+00 -0.00000000000E+00 -0.11863856442E+04  0.11863856442E+04  0.00000000000E+00 0. -1.
         35    2    1    2    0    0  0.00000000000E+00  0.00000000000E+00 -0.11705032343E+04  0.12022680540E+04  0.27453715996E+03 0.  0.
         25    1    3    3    0    0  0.39061177507E+02  0.15062572325E+02 -0.35812040144E+03  0.38000378761E+03  0.12000000000E+03 0.  0.
         25    1    3    3    0    0 -0.39061177507E+02 -0.15062572325E+02 -0.81238283290E+03  0.82226426644E+03  0.12000000000E+03 0.  0.
<mgrwt>
<rscale>  0 0.27453716E+03</rscale>
<asrwt>0</asrwt>
<pdfrwt beam="1">  1        2 0.18252087E+00 0.27453716E+03</pdfrwt>
<pdfrwt beam="2">  1       -2 0.24434477E-02 0.27453716E+03</pdfrwt>
<totfact> 0.11679077E+04</totfact>
</mgrwt>
</event>
<event>
 5    1  0.1107336E+001  0.2752929E+03  0.7818608E-02  0.1098288E+00
          1   -1    0    0  501    0  0.00000000000E+00  0.00000000000E+00  0.10973174737E+04  0.10973174737E+04  0.00000000000E+00 0. -1.
         -1   -1    0    0    0  501 -0.00000000000E+00 -0.00000000000E+00 -0.17266235420E+02  0.17266235420E+02  0.00000000000E+00 0. -1.
         35    2    1    2    0    0  0.00000000000E+00  0.00000000000E+00  0.10800512383E+04  0.11145837092E+04  0.27529287555E+03 0.  0.
         25    1    3    3    0    0 -0.15600996110E+02 -0.60643149707E+02  0.64128887988E+03  0.65541773713E+03  0.12000000000E+03 0.  0.
         25    1    3    3    0    0  0.15600996110E+02  0.60643149707E+02  0.43876235843E+03  0.45916597202E+03  0.12000000000E+03 0.  0.
<mgrwt>
<rscale>  0 0.27529288E+03</rscale>
<asrwt>0</asrwt>
<pdfrwt beam="1">  1        1 0.16881802E+00 0.27529288E+03</pdfrwt>
<pdfrwt beam="2">  1       -1 0.26563448E-02 0.27529288E+03</pdfrwt>
<totfact> 0.61178841E+03</totfact>
</mgrwt>
</event>
<event>
 5    1  0.1107336E+001  0.2740669E+03  0.7818608E-02  0.1098974E+00
          2   -1    0    0  501    0  0.00000000000E+00  0.00000000000E+00  0.63098532886E+02  0.63098532886E+02  0.00000000000E+00 0.  1.
         -2   -1    0    0    0  501 -0.00000000000E+00 -0.00000000000E+00 -0.29760065996E+03  0.29760065996E+03  0.00000000000E+00 0.  1.
         35    2    1    2    0    0  0.00000000000E+00  0.00000000000E+00 -0.23450212707E+03  0.36069919284E+03  0.27406688986E+03 0.  0.
         25    1    3    3    0    0  0.48368600081E+02  0.45134010042E+02 -0.11889734143E+03  0.18141989454E+03  0.12000000000E+03 0.  0.
         25    1    3    3    0    0 -0.48368600081E+02 -0.45134010042E+02 -0.11560478564E+03  0.17927929830E+03  0.12000000000E+03 0.  0.
<mgrwt>
<rscale>  0 0.27406689E+03</rscale>
<asrwt>0</asrwt>
<pdfrwt beam="1">  1        2 0.97074667E-02 0.27406689E+03</pdfrwt>
<pdfrwt beam="2">  1       -2 0.45784717E-01 0.27406689E+03</pdfrwt>
<totfact> 0.30324972E+03</totfact>
</mgrwt>
</event>
<event>
 5    1  0.1107336E+001  0.2746964E+03  0.7818608E-02  0.1098621E+00
         -1   -1    0    0    0  501 -0.00000000000E+00  0.00000000000E+00  0.10285942122E+04  0.10285942122E+04  0.00000000000E+00 0.  1.
          1   -1    0    0  501    0  0.00000000000E+00 -0.00000000000E+00 -0.18340104896E+02  0.18340104896E+02  0.00000000000E+00 0.  1.
         35    2    1    2    0    0  0.00000000000E+00  0.00000000000E+00  0.10102541073E+04  0.10469343171E+04  0.27469638328E+03 0.  0.
         25    1    3    3    0    0 -0.53679815749E+02 -0.16443373065E+02  0.36704546569E+03  0.39022337324E+03  0.12000000000E+03 0.  0.
         25    1    3    3    0    0  0.53679815749E+02  0.16443373065E+02  0.64320864161E+03  0.65671094385E+03  0.12000000000E+03 0.  0.
<mgrwt>
<rscale>  0 0.27469638E+03</rscale>
<asrwt>0</asrwt>
<pdfrwt beam="1">  1        1 0.28215554E-02 0.27469638E+03</pdfrwt>
<pdfrwt beam="2">  1       -1 0.15824522E+00 0.27469638E+03</pdfrwt>
<totfact> 0.12180098E+03</totfact>
</mgrwt>
</event>
<event>
 5    1  0.1107336E+001  0.2752571E+03  0.7818608E-02  0.1098308E+00
         -1   -1    0    0    0  501 -0.00000000000E+00  0.00000000000E+00  0.28191187589E+02  0.28191187589E+02  0.00000000000E+00 0.  1.
          1   -1    0    0  501    0  0.00000000000E+00 -0.00000000000E+00 -0.67189870475E+03  0.67189870475E+03  0.00000000000E+00 0.  1.
         35    2    1    2    0    0  0.00000000000E+00  0.00000000000E+00 -0.64370751716E+03  0.70008989234E+03  0.27525713380E+03 0.  0.
         25    1    3    3    0    0 -0.49861661932E+02 -0.25711604995E+02 -0.22688053108E+03  0.26272047378E+03  0.12000000000E+03 0.  0.
         25    1    3    3    0    0  0.49861661932E+02  0.25711604995E+02 -0.41682698608E+03  0.43736941856E+03  0.12000000000E+03 0.  0.
<mgrwt>
<rscale>  0 0.27525713E+03</rscale>
<asrwt>0</asrwt>
<pdfrwt beam="1">  1        1 0.10336902E+00 0.27525713E+03</pdfrwt>
<pdfrwt beam="2">  1       -1 0.43371064E-02 0.27525713E+03</pdfrwt>
<totfact> 0.65023482E+03</totfact>
</mgrwt>
</event>
<event>
 5    1  0.1107336E+001  0.2770439E+03  0.7818608E-02  0.1097315E+00
         -2   -1    0    0    0  501 -0.00000000000E+00  0.00000000000E+00  0.14113049038E+02  0.14113049038E+02  0.00000000000E+00 0. -1.
          2   -1    0    0  501    0  0.00000000000E+00 -0.00000000000E+00 -0.13596163336E+04  0.13596163336E+04  0.00000000000E+00 0. -1.
         35    2    1    2    0    0  0.00000000000E+00  0.00000000000E+00 -0.13455032846E+04  0.13737293827E+04  0.27704390980E+03 0.  0.
         25    1    3    3    0    0 -0.41075677080E+02 -0.55504602786E+02 -0.65037785729E+03  0.66495062180E+03  0.12000000000E+03 0.  0.
         25    1    3    3    0    0  0.41075677080E+02  0.55504602786E+02 -0.69512542730E+03  0.70877876087E+03  0.12000000000E+03 0.  0.
<mgrwt>
<rscale>  0 0.27704391E+03</rscale>
<asrwt>0</asrwt>
<pdfrwt beam="1">  1        2 0.20917179E+00 0.27704391E+03</pdfrwt>
<pdfrwt beam="2">  1       -2 0.21712378E-02 0.27704391E+03</pdfrwt>
<totfact> 0.11133143E+04</totfact>
</mgrwt>
</event>
<event>
 5    1  0.1107336E+001  0.2748161E+03  0.7818608E-02  0.1098554E+00
          2   -1    0    0  501    0  0.00000000000E+00  0.00000000000E+00  0.58896677457E+03  0.58896677457E+03  0.00000000000E+00 0.  1.
         -2   -1    0    0    0  501 -0.00000000000E+00 -0.00000000000E+00 -0.32057785179E+02  0.32057785179E+02  0.00000000000E+00 0.  1.
         35    2    1    2    0    0  0.00000000000E+00  0.00000000000E+00  0.55690898939E+03  0.62102455975E+03  0.27481608640E+03 0.  0.
         25    1    3    3    0    0  0.16051119391E+02 -0.56661291510E+02  0.20653694336E+03  0.24601961174E+03  0.12000000000E+03 0.  0.
         25    1    3    3    0    0 -0.16051119391E+02  0.56661291510E+02  0.35037204603E+03  0.37500494801E+03  0.12000000000E+03 0.  0.
<mgrwt>
<rscale>  0 0.27481609E+03</rscale>
<asrwt>0</asrwt>
<pdfrwt beam="1">  1        2 0.90610265E-01 0.27481609E+03</pdfrwt>
<pdfrwt beam="2">  1       -2 0.49319674E-02 0.27481609E+03</pdfrwt>
<totfact> 0.10259780E+04</totfact>
</mgrwt>
</event>
<event>
 5    1  0.1107336E+001  0.2750144E+03  0.7818608E-02  0.1098444E+00
         -2   -1    0    0    0  501 -0.00000000000E+00  0.00000000000E+00  0.13204403792E+02  0.13204403792E+02  0.00000000000E+00 0. -1.
          2   -1    0    0  501    0  0.00000000000E+00 -0.00000000000E+00 -0.14319639468E+04  0.14319639468E+04  0.00000000000E+00 0. -1.
         35    2    1    2    0    0  0.00000000000E+00  0.00000000000E+00 -0.14187595430E+04  0.14451683506E+04  0.27501440085E+03 0.  0.
         25    1    3    3    0    0  0.62326352250E+02  0.16762315031E+02 -0.61210328450E+03  0.62708530543E+03  0.12000000000E+03 0.  0.
         25    1    3    3    0    0 -0.62326352250E+02 -0.16762315031E+02 -0.80665625849E+03  0.81808304514E+03  0.12000000000E+03 0.  0.
<mgrwt>
<rscale>  0 0.27501440E+03</rscale>
<asrwt>0</asrwt>
<pdfrwt beam="1">  1        2 0.22030207E+00 0.27501440E+03</pdfrwt>
<pdfrwt beam="2">  1       -2 0.20314475E-02 0.27501440E+03</pdfrwt>
<totfact> 0.11214966E+04</totfact>
</mgrwt>
</event>
<event>
 5    1  0.1107336E+001  0.2832788E+03  0.7818608E-02  0.1093911E+00
         -1   -1    0    0    0  501 -0.00000000000E+00  0.00000000000E+00  0.15898463473E+02  0.15898463473E+02  0.00000000000E+00 0.  1.
          1   -1    0    0  501    0  0.00000000000E+00 -0.00000000000E+00 -0.12618652702E+04  0.12618652702E+04  0.00000000000E+00 0.  1.
         35    2    1    2    0    0  0.00000000000E+00  0.00000000000E+00 -0.12459668068E+04  0.12777637337E+04  0.28327879487E+03 0.  0.
         25    1    3    3    0    0  0.91951920055E+01 -0.40489700342E+02 -0.90603176482E+03  0.91488661935E+03  0.12000000000E+03 0.  0.
         25    1    3    3    0    0 -0.91951920055E+01  0.40489700342E+02 -0.33993504195E+03  0.36287711437E+03  0.12000000000E+03 0.  0.
<mgrwt>
<rscale>  0 0.28327879E+03</rscale>
<asrwt>0</asrwt>
<pdfrwt beam="1">  1        1 0.19413319E+00 0.28327879E+03</pdfrwt>
<pdfrwt beam="2">  1       -1 0.24459166E-02 0.28327879E+03</pdfrwt>
<totfact> 0.52912335E+03</totfact>
</mgrwt>
</event>
<event>
 5    1  0.1107336E+001  0.2746070E+03  0.7818608E-02  0.1098671E+00
         -3   -1    0    0    0  501 -0.00000000000E+00  0.00000000000E+00  0.49059092293E+02  0.49059092293E+02  0.00000000000E+00 0.  1.
          3   -1    0    0  501    0  0.00000000000E+00 -0.00000000000E+00 -0.38427639900E+03  0.38427639900E+03  0.00000000000E+00 0.  1.
         35    2    1    2    0    0  0.00000000000E+00  0.00000000000E+00 -0.33521730670E+03  0.43333549129E+03  0.27460700154E+03 0.  0.
         25    1    3    3    0    0  0.81150055131E+01 -0.45264032101E+02 -0.24390338330E+03  0.27568740686E+03  0.12000000000E+03 0.  0.
         25    1    3    3    0    0 -0.81150055131E+01  0.45264032101E+02 -0.91313923405E+02  0.15764808443E+03  0.12000000000E+03 0.  0.
<mgrwt>
<rscale>  0 0.27460700E+03</rscale>
<asrwt>0</asrwt>
<pdfrwt beam="1">  1        3 0.59119446E-01 0.27460700E+03</pdfrwt>
<pdfrwt beam="2">  1       -3 0.75475527E-02 0.27460700E+03</pdfrwt>
<totfact> 0.84692073E+02</totfact>
</mgrwt>
</event>
<event>
 5    1  0.1107336E+001  0.2761926E+03  0.7818608E-02  0.1097787E+00
          1   -1    0    0  501    0  0.00000000000E+00  0.00000000000E+00  0.22944813172E+04  0.22944813172E+04  0.00000000000E+00 0. -1.
         -1   -1    0    0    0  501 -0.00000000000E+00 -0.00000000000E+00 -0.83115037031E+01  0.83115037031E+01  0.00000000000E+00 0. -1.
         35    2    1    2    0    0  0.00000000000E+00  0.00000000000E+00  0.22861698135E+04  0.23027928209E+04  0.27619261369E+03 0.  0.
         25    1    3    3    0    0 -0.17183805706E+02 -0.49124518174E+02  0.77376552223E+03  0.78474300561E+03  0.12000000000E+03 0.  0.
         25    1    3    3    0    0  0.17183805706E+02  0.49124518174E+02  0.15124042913E+04  0.15180498153E+04  0.12000000000E+03 0.  0.
<mgrwt>
<rscale>  0 0.27619261E+03</rscale>
<asrwt>0</asrwt>
<pdfrwt beam="1">  1        1 0.35299662E+00 0.27619261E+03</pdfrwt>
<pdfrwt beam="2">  1       -1 0.12786947E-02 0.27619261E+03</pdfrwt>
<totfact> 0.28540728E+03</totfact>
</mgrwt>
</event>
<event>
 5    1  0.1107336E+001  0.2752848E+03  0.7818608E-02  0.1098292E+00
          1   -1    0    0  501    0  0.00000000000E+00  0.00000000000E+00  0.41760648529E+03  0.41760648529E+03  0.00000000000E+00 0.  1.
         -1   -1    0    0    0  501 -0.00000000000E+00 -0.00000000000E+00 -0.45366720341E+02  0.45366720341E+02  0.00000000000E+00 0.  1.
         35    2    1    2    0    0  0.00000000000E+00  0.00000000000E+00  0.37223976495E+03  0.46297320564E+03  0.27528484616E+03 0.  0.
         25    1    3    3    0    0  0.53163749830E+02  0.40878066254E+02  0.17446367886E+03  0.22211478078E+03  0.12000000000E+03 0.  0.
         25    1    3    3    0    0 -0.53163749830E+02 -0.40878066254E+02  0.19777608609E+03  0.24085842486E+03  0.12000000000E+03 0.  0.
<mgrwt>
<rscale>  0 0.27528485E+03</rscale>
<asrwt>0</asrwt>
<pdfrwt beam="1">  1        1 0.64247149E-01 0.27528485E+03</pdfrwt>
<pdfrwt beam="2">  1       -1 0.69794957E-02 0.27528485E+03</pdfrwt>
<totfact> 0.60466856E+03</totfact>
</mgrwt>
</event>
<event>
 5    1  0.1107336E+001  0.2745563E+03  0.7818608E-02  0.1098700E+00
          2   -1    0    0  501    0  0.00000000000E+00  0.00000000000E+00  0.10675880904E+04  0.10675880904E+04  0.00000000000E+00 0. -1.
         -2   -1    0    0    0  501 -0.00000000000E+00 -0.00000000000E+00 -0.17652209822E+02  0.17652209822E+02  0.00000000000E+00 0. -1.
         35    2    1    2    0    0  0.00000000000E+00  0.00000000000E+00  0.10499358806E+04  0.10852403002E+04  0.27455628913E+03 0.  0.
         25    1    3    3    0    0  0.36483010403E+01 -0.59394826855E+02  0.64382768500E+03  0.65761321727E+03  0.12000000000E+03 0.  0.
         25    1    3    3    0    0 -0.36483010403E+01  0.59394826855E+02  0.40610819560E+03  0.42762708297E+03  0.12000000000E+03 0.  0.
<mgrwt>
<rscale>  0 0.27455629E+03</rscale>
<asrwt>0</asrwt>
<pdfrwt beam="1">  1        2 0.16424427E+00 0.27455629E+03</pdfrwt>
<pdfrwt beam="2">  1       -2 0.27157254E-02 0.27455629E+03</pdfrwt>
<totfact> 0.11710878E+04</totfact>
</mgrwt>
</event>
<event>
 5    1  0.1107336E+001  0.2750822E+03  0.7818608E-02  0.1098406E+00
         -2   -1    0    0    0  501 -0.00000000000E+00  0.00000000000E+00  0.13230281121E+02  0.13230281121E+02  0.00000000000E+00 0.  1.
          2   -1    0    0  501    0  0.00000000000E+00 -0.00000000000E+00 -0.14298680592E+04  0.14298680592E+04  0.00000000000E+00 0.  1.
         35    2    1    2    0    0  0.00000000000E+00  0.00000000000E+00 -0.14166377781E+04  0.14430983403E+04  0.27508221599E+03 0.  0.
         25    1    3    3    0    0 -0.63043309896E+02 -0.11298722355E+02 -0.81524546354E+03  0.82651514558E+03  0.12000000000E+03 0.  0.
         25    1    3    3    0    0  0.63043309896E+02  0.11298722355E+02 -0.60139231452E+03  0.61658319472E+03  0.12000000000E+03 0.  0.
<mgrwt>
<rscale>  0 0.27508222E+03</rscale>
<asrwt>0</asrwt>
<pdfrwt beam="1">  1        2 0.21997966E+00 0.27508222E+03</pdfrwt>
<pdfrwt beam="2">  1       -2 0.20354283E-02 0.27508222E+03</pdfrwt>
<totfact> 0.11211954E+04</totfact>
</mgrwt>
</event>
<event>
 5    1  0.1107336E+001  0.2752017E+03  0.7818608E-02  0.1098339E+00
         -1   -1    0    0    0  501 -0.00000000000E+00  0.00000000000E+00  0.50992722542E+02  0.50992722542E+02  0.00000000000E+00 0.  1.
          1   -1    0    0  501    0  0.00000000000E+00 -0.00000000000E+00 -0.37130787494E+03  0.37130787494E+03  0.00000000000E+00 0.  1.
         35    2    1    2    0    0  0.00000000000E+00  0.00000000000E+00 -0.32031515240E+03  0.42230059748E+03  0.27520174014E+03 0.  0.
         25    1    3    3    0    0  0.46612370282E+02  0.25994806375E+02 -0.97157341470E+02  0.16336459844E+03  0.12000000000E+03 0.  0.
         25    1    3    3    0    0 -0.46612370282E+02 -0.25994806375E+02 -0.22315781093E+03  0.25893599904E+03  0.12000000000E+03 0.  0.
<mgrwt>
<rscale>  0 0.27520174E+03</rscale>
<asrwt>0</asrwt>
<pdfrwt beam="1">  1        1 0.57124291E-01 0.27520174E+03</pdfrwt>
<pdfrwt beam="2">  1       -1 0.78450339E-02 0.27520174E+03</pdfrwt>
<totfact> 0.58831417E+03</totfact>
</mgrwt>
</event>
<event>
 5    1  0.1107336E+001  0.2749732E+03  0.7818608E-02  0.1098467E+00
         -2   -1    0    0    0  501 -0.00000000000E+00  0.00000000000E+00  0.53922051734E+01  0.53922051734E+01  0.00000000000E+00 0. -1.
          2   -1    0    0  501    0  0.00000000000E+00 -0.00000000000E+00 -0.35055353447E+04  0.35055353447E+04  0.00000000000E+00 0. -1.
         35    2    1    2    0    0  0.00000000000E+00  0.00000000000E+00 -0.35001431395E+04  0.35109275498E+04  0.27497320467E+03 0.  0.
         25    1    3    3    0    0  0.12205836983E+02  0.18618876582E+02 -0.94183802452E+03  0.94971285632E+03  0.12000000000E+03 0.  0.
         25    1    3    3    0    0 -0.12205836983E+02 -0.18618876582E+02 -0.25583051150E+04  0.25612146935E+04  0.12000000000E+03 0.  0.
<mgrwt>
<rscale>  0 0.27497320E+03</rscale>
<asrwt>0</asrwt>
<pdfrwt beam="1">  1        2 0.53931183E+00 0.27497320E+03</pdfrwt>
<pdfrwt beam="2">  1       -2 0.82957203E-03 0.27497320E+03</pdfrwt>
<totfact> 0.28120618E+03</totfact>
</mgrwt>
</event>
<event>
 5    1  0.1107336E+001  0.2748185E+03  0.7818608E-02  0.1098553E+00
         -1   -1    0    0    0  501 -0.00000000000E+00  0.00000000000E+00  0.16791976068E+02  0.16791976068E+02  0.00000000000E+00 0.  1.
          1   -1    0    0  501    0  0.00000000000E+00 -0.00000000000E+00 -0.11244242460E+04  0.11244242460E+04  0.00000000000E+00 0.  1.
         35    2    1    2    0    0  0.00000000000E+00  0.00000000000E+00 -0.11076322700E+04  0.11412162221E+04  0.27481852215E+03 0.  0.
         25    1    3    3    0    0  0.47170612469E+02 -0.47221824040E+02 -0.57512747304E+03  0.59129229455E+03  0.12000000000E+03 0.  0.
         25    1    3    3    0    0 -0.47170612469E+02  0.47221824040E+02 -0.53250479693E+03  0.54992392756E+03  0.12000000000E+03 0.  0.
<mgrwt>
<rscale>  0 0.27481852E+03</rscale>
<asrwt>0</asrwt>
<pdfrwt beam="1">  1        1 0.17298839E+00 0.27481852E+03</pdfrwt>
<pdfrwt beam="2">  1       -1 0.25833802E-02 0.27481852E+03</pdfrwt>
<totfact> 0.60940651E+03</totfact>
</mgrwt>
</event>
<event>
 5    1  0.1107336E+001  0.2768475E+03  0.7818608E-02  0.1097423E+00
         -2   -1    0    0    0  501 -0.00000000000E+00  0.00000000000E+00  0.52242086378E+02  0.52242086378E+02  0.00000000000E+00 0.  1.
          2   -1    0    0  501    0  0.00000000000E+00 -0.00000000000E+00 -0.36677579241E+03  0.36677579241E+03  0.00000000000E+00 0.  1.
         35    2    1    2    0    0  0.00000000000E+00  0.00000000000E+00 -0.31453370603E+03  0.41901787879E+03  0.27684748602E+03 0.  0.
         25    1    3    3    0    0  0.43515980712E+02  0.53536423440E+02 -0.15902112652E+03  0.21082577616E+03  0.12000000000E+03 0.  0.
         25    1    3    3    0    0 -0.43515980712E+02 -0.53536423440E+02 -0.15551257951E+03  0.20819210263E+03  0.12000000000E+03 0.  0.
<mgrwt>
<rscale>  0 0.27684749E+03</rscale>
<asrwt>0</asrwt>
<pdfrwt beam="1">  1        2 0.56427047E-01 0.27684749E+03</pdfrwt>
<pdfrwt beam="2">  1       -2 0.80372438E-02 0.27684749E+03</pdfrwt>
<totfact> 0.81871612E+03</totfact>
</mgrwt>
</event>
<event>
 5    1  0.1107336E+001  0.2745876E+03  0.7818608E-02  0.1098682E+00
         -2   -1    0    0    0  501 -0.00000000000E+00  0.00000000000E+00  0.20018759138E+02  0.20018759138E+02  0.00000000000E+00 0. -1.
          2   -1    0    0  501    0  0.00000000000E+00 -0.00000000000E+00 -0.94159621263E+03  0.94159621263E+03  0.00000000000E+00 0. -1.
         35    2    1    2    0    0  0.00000000000E+00  0.00000000000E+00 -0.92157745349E+03  0.96161497177E+03  0.27458760195E+03 0.  0.
         25    1    3    3    0    0 -0.61463444812E+02  0.82362067603E+01 -0.37472147977E+03  0.39832370950E+03  0.12000000000E+03 0.  0.
         25    1    3    3    0    0  0.61463444812E+02 -0.82362067603E+01 -0.54685597373E+03  0.56329126227E+03  0.12000000000E+03 0.  0.
<mgrwt>
<rscale>  0 0.27458760E+03</rscale>
<asrwt>0</asrwt>
<pdfrwt beam="1">  1        2 0.14486092E+00 0.27458760E+03</pdfrwt>
<pdfrwt beam="2">  1       -2 0.30798099E-02 0.27458760E+03</pdfrwt>
<totfact> 0.11599808E+04</totfact>
</mgrwt>
</event>
<event>
 5    1  0.1107336E+001  0.2744566E+03  0.7818608E-02  0.1098756E+00
         -2   -1    0    0    0  501 -0.00000000000E+00  0.00000000000E+00  0.19842428240E+02  0.19842428240E+02  0.00000000000E+00 0.  1.
          2   -1    0    0  501    0  0.00000000000E+00 -0.00000000000E+00 -0.94905782693E+03  0.94905782693E+03  0.00000000000E+00 0.  1.
         35    2    1    2    0    0  0.00000000000E+00  0.00000000000E+00 -0.92921539869E+03  0.96890025517E+03  0.27445664012E+03 0.  0.
         25    1    3    3    0    0  0.30782133596E+02 -0.43151277892E+02 -0.32242851670E+03  0.34809441379E+03  0.12000000000E+03 0.  0.
         25    1    3    3    0    0 -0.30782133596E+02  0.43151277892E+02 -0.60678688199E+03  0.62080584138E+03  0.12000000000E+03 0.  0.
<mgrwt>
<rscale>  0 0.27445664E+03</rscale>
<asrwt>0</asrwt>
<pdfrwt beam="1">  1        2 0.14600889E+00 0.27445664E+03</pdfrwt>
<pdfrwt beam="2">  1       -2 0.30526814E-02 0.27445664E+03</pdfrwt>
<totfact> 0.11627030E+04</totfact>
</mgrwt>
</event>
<event>
 5    1  0.1107336E+001  0.2744257E+03  0.7818608E-02  0.1098773E+00
          3   -1    0    0  501    0  0.00000000000E+00  0.00000000000E+00  0.91068836084E+02  0.91068836084E+02  0.00000000000E+00 0. -1.
         -3   -1    0    0    0  501 -0.00000000000E+00 -0.00000000000E+00 -0.20673782269E+03  0.20673782269E+03  0.00000000000E+00 0. -1.
         35    2    1    2    0    0  0.00000000000E+00  0.00000000000E+00 -0.11566898660E+03  0.29780665877E+03  0.27442574869E+03 0.  0.
         25    1    3    3    0    0  0.12206551184E+01  0.60642001468E+02 -0.87522791144E+02  0.16043435203E+03  0.12000000000E+03 0.  0.
         25    1    3    3    0    0 -0.12206551184E+01 -0.60642001468E+02 -0.28146195459E+02  0.13737230674E+03  0.12000000000E+03 0.  0.
<mgrwt>
<rscale>  0 0.27442575E+03</rscale>
<asrwt>0</asrwt>
<pdfrwt beam="1">  1        3 0.14010590E-01 0.27442575E+03</pdfrwt>
<pdfrwt beam="2">  1       -3 0.31805818E-01 0.27442575E+03</pdfrwt>
<totfact> 0.10212236E+03</totfact>
</mgrwt>
</event>
<event>
 5    1  0.1107336E+001  0.2754681E+03  0.7818608E-02  0.1098190E+00
         -1   -1    0    0    0  501 -0.00000000000E+00  0.00000000000E+00  0.21531423893E+03  0.21531423893E+03  0.00000000000E+00 0.  1.
          1   -1    0    0  501    0  0.00000000000E+00 -0.00000000000E+00 -0.88106910997E+02  0.88106910997E+02  0.00000000000E+00 0.  1.
         35    2    1    2    0    0  0.00000000000E+00  0.00000000000E+00  0.12720732794E+03  0.30342114993E+03  0.27546812873E+03 0.  0.
         25    1    3    3    0    0 -0.37645429688E+02 -0.23670411884E+02  0.75126906993E+01  0.12819480214E+03  0.12000000000E+03 0.  0.
         25    1    3    3    0    0  0.37645429688E+02  0.23670411884E+02  0.11969463724E+03  0.17522634779E+03  0.12000000000E+03 0.  0.
<mgrwt>
<rscale>  0 0.27546813E+03</rscale>
<asrwt>0</asrwt>
<pdfrwt beam="1">  1        1 0.13554909E-01 0.27546813E+03</pdfrwt>
<pdfrwt beam="2">  1       -1 0.33125267E-01 0.27546813E+03</pdfrwt>
<totfact> 0.36519215E+03</totfact>
</mgrwt>
</event>
<event>
 5    1  0.1107336E+001  0.2747983E+03  0.7818608E-02  0.1098564E+00
         -1   -1    0    0    0  501 -0.00000000000E+00  0.00000000000E+00  0.15341307093E+03  0.15341307093E+03  0.00000000000E+00 0.  1.
          1   -1    0    0  501    0  0.00000000000E+00 -0.00000000000E+00 -0.12305682821E+03  0.12305682821E+03  0.00000000000E+00 0.  1.
         35    2    1    2    0    0  0.00000000000E+00  0.00000000000E+00  0.30356242721E+02  0.27646989915E+03  0.27479829632E+03 0.  0.
         25    1    3    3    0    0 -0.53528813056E+02  0.26987659976E+02  0.45105638072E+02  0.14152097443E+03  0.12000000000E+03 0.  0.
         25    1    3    3    0    0  0.53528813056E+02 -0.26987659976E+02 -0.14749395350E+02  0.13494892471E+03  0.12000000000E+03 0.  0.
<mgrwt>
<rscale>  0 0.27479830E+03</rscale>
<asrwt>0</asrwt>
<pdfrwt beam="1">  1        1 0.18931820E-01 0.27479830E+03</pdfrwt>
<pdfrwt beam="2">  1       -1 0.23602011E-01 0.27479830E+03</pdfrwt>
<totfact> 0.41800371E+03</totfact>
</mgrwt>
</event>
<event>
 5    1  0.1107336E+001  0.2757320E+03  0.7818608E-02  0.1098043E+00
          1   -1    0    0  501    0  0.00000000000E+00  0.00000000000E+00  0.33420871167E+02  0.33420871167E+02  0.00000000000E+00 0.  1.
         -1   -1    0    0    0  501 -0.00000000000E+00 -0.00000000000E+00 -0.56871763722E+03  0.56871763722E+03  0.00000000000E+00 0.  1.
         35    2    1    2    0    0  0.00000000000E+00  0.00000000000E+00 -0.53529676605E+03  0.60213850839E+03  0.27573203575E+03 0.  0.
         25    1    3    3    0    0 -0.46858588586E+02  0.69401135718E+01 -0.37380681312E+03  0.39544332848E+03  0.12000000000E+03 0.  0.
         25    1    3    3    0    0  0.46858588586E+02 -0.69401135718E+01 -0.16148995293E+03  0.20669517991E+03  0.12000000000E+03 0.  0.
<mgrwt>
<rscale>  0 0.27573204E+03</rscale>
<asrwt>0</asrwt>
<pdfrwt beam="1">  1        1 0.51416727E-02 0.27573204E+03</pdfrwt>
<pdfrwt beam="2">  1       -1 0.87495017E-01 0.27573204E+03</pdfrwt>
<totfact> 0.21584325E+03</totfact>
</mgrwt>
</event>
<event>
 5    1  0.1107336E+001  0.2805868E+03  0.7818608E-02  0.1095369E+00
          2   -1    0    0  501    0  0.00000000000E+00  0.00000000000E+00  0.14418995432E+04  0.14418995432E+04  0.00000000000E+00 0.  1.
         -2   -1    0    0    0  501 -0.00000000000E+00 -0.00000000000E+00 -0.13650215340E+02  0.13650215340E+02  0.00000000000E+00 0.  1.
         35    2    1    2    0    0  0.00000000000E+00  0.00000000000E+00  0.14282493278E+04  0.14555497585E+04  0.28058680840E+03 0.  0.
         25    1    3    3    0    0 -0.58339850078E+01  0.43725195943E+02  0.41448929300E+03  0.43375949806E+03  0.12000000000E+03 0.  0.
         25    1    3    3    0    0  0.58339850078E+01 -0.43725195943E+02  0.10137600348E+04  0.10217902605E+04  0.12000000000E+03 0.  0.
<mgrwt>
<rscale>  0 0.28058681E+03</rscale>
<asrwt>0</asrwt>
<pdfrwt beam="1">  1        2 0.22183058E+00 0.28058681E+03</pdfrwt>
<pdfrwt beam="2">  1       -2 0.21000343E-02 0.28058681E+03</pdfrwt>
<totfact> 0.10553056E+04</totfact>
</mgrwt>
</event>
<event>
 5    1  0.1107336E+001  0.2753710E+03  0.7818608E-02  0.1098244E+00
         -1   -1    0    0    0  501 -0.00000000000E+00  0.00000000000E+00  0.11957703592E+02  0.11957703592E+02  0.00000000000E+00 0. -1.
          1   -1    0    0  501    0  0.00000000000E+00 -0.00000000000E+00 -0.15853621008E+04  0.15853621008E+04  0.00000000000E+00 0. -1.
         35    2    1    2    0    0  0.00000000000E+00  0.00000000000E+00 -0.15734043972E+04  0.15973198044E+04  0.27537095044E+03 0.  0.
         25    1    3    3    0    0 -0.34367834014E+02 -0.48717450947E+02 -0.60301853580E+03  0.61772638972E+03  0.12000000000E+03 0.  0.
         25    1    3    3    0    0  0.34367834014E+02  0.48717450947E+02 -0.97038586138E+03  0.97959341464E+03  0.12000000000E+03 0.  0.
<mgrwt>
<rscale>  0 0.27537095E+03</rscale>
<asrwt>0</asrwt>
<pdfrwt beam="1">  1        1 0.24390172E+00 0.27537095E+03</pdfrwt>
<pdfrwt beam="2">  1       -1 0.18396478E-02 0.27537095E+03</pdfrwt>
<totfact> 0.48701631E+03</totfact>
</mgrwt>
</event>
<event>
 5    1  0.1107336E+001  0.2745462E+03  0.7818608E-02  0.1098706E+00
         -2   -1    0    0    0  501 -0.00000000000E+00  0.00000000000E+00  0.10469124946E+02  0.10469124946E+02  0.00000000000E+00 0.  1.
          2   -1    0    0  501    0  0.00000000000E+00 -0.00000000000E+00 -0.17999501427E+04  0.17999501427E+04  0.00000000000E+00 0.  1.
         35    2    1    2    0    0  0.00000000000E+00  0.00000000000E+00 -0.17894810178E+04  0.18104192677E+04  0.27454619241E+03 0.  0.
         25    1    3    3    0    0 -0.18446565034E+02  0.40606802742E+02 -0.56802913481E+03  0.58227681233E+03  0.12000000000E+03 0.  0.
         25    1    3    3    0    0  0.18446565034E+02 -0.40606802742E+02 -0.12214518830E+04  0.12281424553E+04  0.12000000000E+03 0.  0.
<mgrwt>
<rscale>  0 0.27454619E+03</rscale>
<asrwt>0</asrwt>
<pdfrwt beam="1">  1        2 0.27691535E+00 0.27454619E+03</pdfrwt>
<pdfrwt beam="2">  1       -2 0.16106349E-02 0.27454619E+03</pdfrwt>
<totfact> 0.10059918E+04</totfact>
</mgrwt>
</event>
<event>
 5    1  0.1107336E+001  0.2748934E+03  0.7818608E-02  0.1098511E+00
         -2   -1    0    0    0  501 -0.00000000000E+00  0.00000000000E+00  0.16396826524E+03  0.16396826524E+03  0.00000000000E+00 0. -1.
          2   -1    0    0  501    0  0.00000000000E+00 -0.00000000000E+00 -0.11521495172E+03  0.11521495172E+03  0.00000000000E+00 0. -1.
         35    2    1    2    0    0  0.00000000000E+00  0.00000000000E+00  0.48753313521E+02  0.27918321696E+03  0.27489340307E+03 0.  0.
         25    1    3    3    0    0  0.26197277605E+02  0.61684462600E+02  0.23797242589E+02  0.13949042632E+03  0.12000000000E+03 0.  0.
         25    1    3    3    0    0 -0.26197277605E+02 -0.61684462600E+02  0.24956070932E+02  0.13969279064E+03  0.12000000000E+03 0.  0.
<mgrwt>
<rscale>  0 0.27489340E+03</rscale>
<asrwt>0</asrwt>
<pdfrwt beam="1">  1        2 0.17725377E-01 0.27489340E+03</pdfrwt>
<pdfrwt beam="2">  1       -2 0.25225887E-01 0.27489340E+03</pdfrwt>
<totfact> 0.44441346E+03</totfact>
</mgrwt>
</event>
<event>
 5    1  0.1107336E+001  0.2743564E+03  0.7818608E-02  0.1098812E+00
          1   -1    0    0  501    0  0.00000000000E+00  0.00000000000E+00  0.57771409015E+03  0.57771409015E+03  0.00000000000E+00 0.  1.
         -1   -1    0    0    0  501 -0.00000000000E+00 -0.00000000000E+00 -0.32572951063E+02  0.32572951063E+02  0.00000000000E+00 0.  1.
         35    2    1    2    0    0  0.00000000000E+00  0.00000000000E+00  0.54514113909E+03  0.61028704121E+03  0.27435635795E+03 0.  0.
         25    1    3    3    0    0  0.67404710771E+01  0.23673598718E+02  0.40990973400E+03  0.42782223324E+03  0.12000000000E+03 0.  0.
         25    1    3    3    0    0 -0.67404710771E+01 -0.23673598718E+02  0.13523140508E+03  0.18246480797E+03  0.12000000000E+03 0.  0.
<mgrwt>
<rscale>  0 0.27435636E+03</rscale>
<asrwt>0</asrwt>
<pdfrwt beam="1">  1        1 0.88879084E-01 0.27435636E+03</pdfrwt>
<pdfrwt beam="2">  1       -1 0.50112237E-02 0.27435636E+03</pdfrwt>
<totfact> 0.64775272E+03</totfact>
</mgrwt>
</event>
<event>
 5    1  0.1107336E+001  0.2716639E+03  0.7818608E-02  0.1100331E+00
          2   -1    0    0  501    0  0.00000000000E+00  0.00000000000E+00  0.10758848982E+03  0.10758848982E+03  0.00000000000E+00 0. -1.
         -2   -1    0    0    0  501 -0.00000000000E+00 -0.00000000000E+00 -0.17148972167E+03  0.17148972167E+03  0.00000000000E+00 0. -1.
         35    2    1    2    0    0  0.00000000000E+00  0.00000000000E+00 -0.63901231846E+02  0.27907821149E+03  0.27166391129E+03 0.  0.
         25    1    3    3    0    0  0.34923869523E+02 -0.38881940363E+02  0.53563340811E+01  0.13099684066E+03  0.12000000000E+03 0.  0.
         25    1    3    3    0    0 -0.34923869523E+02  0.38881940363E+02 -0.69257565927E+02  0.14808137083E+03  0.12000000000E+03 0.  0.
<mgrwt>
<rscale>  0 0.27166391E+03</rscale>
<asrwt>0</asrwt>
<pdfrwt beam="1">  1        2 0.16552075E-01 0.27166391E+03</pdfrwt>
<pdfrwt beam="2">  1       -2 0.26383034E-01 0.27166391E+03</pdfrwt>
<totfact> 0.44441610E+03</totfact>
</mgrwt>
</event>
<event>
 5    1  0.1107336E+001  0.2753644E+03  0.7818608E-02  0.1098248E+00
         -2   -1    0    0    0  501 -0.00000000000E+00  0.00000000000E+00  0.84260598269E+02  0.84260598269E+02  0.00000000000E+00 0. -1.
          2   -1    0    0  501    0  0.00000000000E+00 -0.00000000000E+00 -0.22497337580E+03  0.22497337580E+03  0.00000000000E+00 0. -1.
         35    2    1    2    0    0  0.00000000000E+00  0.00000000000E+00 -0.14071277753E+03  0.30923397407E+03  0.27536442210E+03 0.  0.
         25    1    3    3    0    0 -0.53257872422E+02  0.64754770700E+01 -0.11635904593E+03  0.17554987995E+03  0.12000000000E+03 0.  0.
         25    1    3    3    0    0  0.53257872422E+02 -0.64754770700E+01 -0.24353731594E+02  0.13368409412E+03  0.12000000000E+03 0.  0.
<mgrwt>
<rscale>  0 0.27536442E+03</rscale>
<asrwt>0</asrwt>
<pdfrwt beam="1">  1        2 0.34611288E-01 0.27536442E+03</pdfrwt>
<pdfrwt beam="2">  1       -2 0.12963169E-01 0.27536442E+03</pdfrwt>
<totfact> 0.64759707E+03</totfact>
</mgrwt>
</event>
<event>
 5    1  0.1107336E+001  0.2746734E+03  0.7818608E-02  0.1098634E+00
          2   -1    0    0  501    0  0.00000000000E+00  0.00000000000E+00  0.92187189346E+02  0.92187189346E+02  0.00000000000E+00 0. -1.
         -2   -1    0    0    0  501 -0.00000000000E+00 -0.00000000000E+00 -0.20459862356E+03  0.20459862356E+03  0.00000000000E+00 0. -1.
         35    2    1    2    0    0  0.00000000000E+00  0.00000000000E+00 -0.11241143421E+03  0.29678581290E+03  0.27467342099E+03 0.  0.
         25    1    3    3    0    0  0.26631015265E+02  0.57147822257E+02 -0.80032919152E+02  0.15741776492E+03  0.12000000000E+03 0.  0.
         25    1    3    3    0    0 -0.26631015265E+02 -0.57147822257E+02 -0.32378515060E+02  0.13936804799E+03  0.12000000000E+03 0.  0.
<mgrwt>
<rscale>  0 0.27467342E+03</rscale>
<asrwt>0</asrwt>
<pdfrwt beam="1">  1        2 0.14182645E-01 0.27467342E+03</pdfrwt>
<pdfrwt beam="2">  1       -2 0.31476711E-01 0.27467342E+03</pdfrwt>
<totfact> 0.38810630E+03</totfact>
</mgrwt>
</event>
<event>
 5    1  0.1107336E+001  0.2748704E+03  0.7818608E-02  0.1098524E+00
         -1   -1    0    0    0  501 -0.00000000000E+00  0.00000000000E+00  0.10024681964E+02  0.10024681964E+02  0.00000000000E+00 0.  1.
          1   -1    0    0  501    0  0.00000000000E+00 -0.00000000000E+00 -0.18841922256E+04  0.18841922256E+04  0.00000000000E+00 0.  1.
         35    2    1    2    0    0  0.00000000000E+00  0.00000000000E+00 -0.18741675436E+04  0.18942169075E+04  0.27487035359E+03 0.  0.
         25    1    3    3    0    0 -0.16202399263E+02  0.96884865607E+01 -0.49410364827E+03  0.50881705921E+03  0.12000000000E+03 0.  0.
         25    1    3    3    0    0  0.16202399263E+02 -0.96884865607E+01 -0.13800638953E+04  0.13853998483E+04  0.12000000000E+03 0.  0.
<mgrwt>
<rscale>  0 0.27487035E+03</rscale>
<asrwt>0</asrwt>
<pdfrwt beam="1">  1        1 0.28987550E+00 0.27487035E+03</pdfrwt>
<pdfrwt beam="2">  1       -1 0.15422599E-02 0.27487035E+03</pdfrwt>
<totfact> 0.40209295E+03</totfact>
</mgrwt>
</event>
<event>
 5    1  0.1107336E+001  0.2747323E+03  0.7818608E-02  0.1098601E+00
          2   -1    0    0  501    0  0.00000000000E+00  0.00000000000E+00  0.14760940583E+02  0.14760940583E+02  0.00000000000E+00 0. -1.
         -2   -1    0    0    0  501 -0.00000000000E+00 -0.00000000000E+00 -0.12783374211E+04  0.12783374211E+04  0.00000000000E+00 0. -1.
         35    2    1    2    0    0  0.00000000000E+00  0.00000000000E+00 -0.12635764805E+04  0.12930983616E+04  0.27473232585E+03 0.  0.
         25    1    3    3    0    0 -0.56992347959E+02 -0.28449767571E+02 -0.53625779671E+03  0.55319973023E+03  0.12000000000E+03 0.  0.
         25    1    3    3    0    0  0.56992347959E+02  0.28449767571E+02 -0.72731868377E+03  0.73989863141E+03  0.12000000000E+03 0.  0.
<mgrwt>
<rscale>  0 0.27473233E+03</rscale>
<asrwt>0</asrwt>
<pdfrwt beam="1">  1        2 0.22709138E-02 0.27473233E+03</pdfrwt>
<pdfrwt beam="2">  1       -2 0.19666731E+00 0.27473233E+03</pdfrwt>
<totfact> 0.69567035E+02</totfact>
</mgrwt>
</event>
<event>
 5    1  0.1107336E+001  0.2760909E+03  0.7818608E-02  0.1097843E+00
          1   -1    0    0  501    0  0.00000000000E+00  0.00000000000E+00  0.45284637668E+03  0.45284637668E+03  0.00000000000E+00 0. -1.
         -1   -1    0    0    0  501 -0.00000000000E+00 -0.00000000000E+00 -0.42081709499E+02  0.42081709499E+02  0.00000000000E+00 0. -1.
         35    2    1    2    0    0  0.00000000000E+00  0.00000000000E+00  0.41076466719E+03  0.49492808618E+03  0.27609092467E+03 0.  0.
         25    1    3    3    0    0  0.48018601370E+01  0.32233047195E+02  0.31285810490E+03  0.33666336449E+03  0.12000000000E+03 0.  0.
         25    1    3    3    0    0 -0.48018601370E+01 -0.32233047195E+02  0.97906562289E+02  0.15826472169E+03  0.12000000000E+03 0.  0.
<mgrwt>
<rscale>  0 0.27609092E+03</rscale>
<asrwt>0</asrwt>
<pdfrwt beam="1">  1        1 0.69668670E-01 0.27609092E+03</pdfrwt>
<pdfrwt beam="2">  1       -1 0.64741095E-02 0.27609092E+03</pdfrwt>
<totfact> 0.61009222E+03</totfact>
</mgrwt>
</event>
<event>
 5    1  0.1107336E+001  0.2740857E+03  0.7818608E-02  0.1098964E+00
          2   -1    0    0  501    0  0.00000000000E+00  0.00000000000E+00  0.41270659964E+03  0.41270659964E+03  0.00000000000E+00 0.  1.
         -2   -1    0    0    0  501 -0.00000000000E+00 -0.00000000000E+00 -0.45506296630E+02  0.45506296630E+02  0.00000000000E+00 0.  1.
         35    2    1    2    0    0  0.00000000000E+00  0.00000000000E+00  0.36720030301E+03  0.45821289627E+03  0.27408574530E+03 0.  0.
         25    1    3    3    0    0 -0.26948948811E+02  0.22902533585E+02  0.90070043476E+02  0.15415376939E+03  0.12000000000E+03 0.  0.
         25    1    3    3    0    0  0.26948948811E+02 -0.22902533585E+02  0.27713025953E+03  0.30405912688E+03  0.12000000000E+03 0.  0.
<mgrwt>
<rscale>  0 0.27408575E+03</rscale>
<asrwt>0</asrwt>
<pdfrwt beam="1">  1        2 0.63493321E-01 0.27408575E+03</pdfrwt>
<pdfrwt beam="2">  1       -2 0.70009690E-02 0.27408575E+03</pdfrwt>
<totfact> 0.89253997E+03</totfact>
</mgrwt>
</event>
<event>
 4    1  0.1107336E+001  0.2952829E+03  0.7818608E-02  0.1087623E+00
          2   -1    0    0  501    0  0.00000000000E+00  0.00000000000E+00  0.56517022115E+03  0.56517022115E+03  0.00000000000E+00 0.  1.
         -2   -1    0    0    0  501 -0.00000000000E+00 -0.00000000000E+00 -0.38568910977E+02  0.38568910977E+02  0.00000000000E+00 0.  1.
         25    1    1    2    0    0 -0.21664005938E+02 -0.51847703166E+02  0.39644381127E+03  0.41800144614E+03  0.12000000000E+03 0.  0.
         25    1    1    2    0    0  0.21664005938E+02  0.51847703166E+02  0.13015749890E+03  0.18573768599E+03  0.12000000000E+03 0.  0.
<mgrwt>
<rscale>  0 0.29528291E+03</rscale>
<asrwt>0</asrwt>
<pdfrwt beam="1">  1        2 0.86949259E-01 0.29528291E+03</pdfrwt>
<pdfrwt beam="2">  1       -2 0.59336790E-02 0.29528291E+03</pdfrwt>
<totfact> 0.81321805E+03</totfact>
</mgrwt>
</event>
<event>
 5    1  0.1107336E+001  0.2742849E+03  0.7818608E-02  0.1098852E+00
         -2   -1    0    0    0  501 -0.00000000000E+00  0.00000000000E+00  0.21428680946E+02  0.21428680946E+02  0.00000000000E+00 0. -1.
          2   -1    0    0  501    0  0.00000000000E+00 -0.00000000000E+00 -0.87770451115E+03  0.87770451115E+03  0.00000000000E+00 0. -1.
         35    2    1    2    0    0  0.00000000000E+00  0.00000000000E+00 -0.85627583020E+03  0.89913319210E+03  0.27428488791E+03 0.  0.
         25    1    3    3    0    0  0.20067867503E+02  0.21122115449E+02 -0.23257002736E+03  0.26332049045E+03  0.12000000000E+03 0.  0.
         25    1    3    3    0    0 -0.20067867503E+02 -0.21122115449E+02 -0.62370580285E+03  0.63581270164E+03  0.12000000000E+03 0.  0.
<mgrwt>
<rscale>  0 0.27428489E+03</rscale>
<asrwt>0</asrwt>
<pdfrwt beam="1">  1        2 0.13503146E+00 0.27428489E+03</pdfrwt>
<pdfrwt beam="2">  1       -2 0.32967202E-02 0.27428489E+03</pdfrwt>
<totfact> 0.11518701E+04</totfact>
</mgrwt>
</event>
<event>
 5    1  0.1107336E+001  0.2753074E+03  0.7818608E-02  0.1098280E+00
          3   -1    0    0  501    0  0.00000000000E+00  0.00000000000E+00  0.38927130221E+03  0.38927130221E+03  0.00000000000E+00 0. -1.
         -3   -1    0    0    0  501 -0.00000000000E+00 -0.00000000000E+00 -0.48676967632E+02  0.48676967632E+02  0.00000000000E+00 0. -1.
         35    2    1    2    0    0  0.00000000000E+00  0.00000000000E+00  0.34059433458E+03  0.43794826984E+03  0.27530743962E+03 0.  0.
         25    1    3    3    0    0  0.45011000812E+01 -0.98900155626E+01  0.27618107888E+03  0.30132052808E+03  0.12000000000E+03 0.  0.
         25    1    3    3    0    0 -0.45011000812E+01  0.98900155626E+01  0.64413255697E+02  0.13662774176E+03  0.12000000000E+03 0.  0.
<mgrwt>
<rscale>  0 0.27530744E+03</rscale>
<asrwt>0</asrwt>
<pdfrwt beam="1">  1        3 0.59887891E-01 0.27530744E+03</pdfrwt>
<pdfrwt beam="2">  1       -3 0.74887645E-02 0.27530744E+03</pdfrwt>
<totfact> 0.83534922E+02</totfact>
</mgrwt>
</event>
<event>
 5    1  0.1107336E+001  0.2746325E+03  0.7818608E-02  0.1098657E+00
         -2   -1    0    0    0  501 -0.00000000000E+00  0.00000000000E+00  0.10722224871E+02  0.10722224871E+02  0.00000000000E+00 0.  1.
          2   -1    0    0  501    0  0.00000000000E+00 -0.00000000000E+00 -0.17585669081E+04  0.17585669081E+04  0.00000000000E+00 0.  1.
         35    2    1    2    0    0  0.00000000000E+00  0.00000000000E+00 -0.17478446833E+04  0.17692891330E+04  0.27463248053E+03 0.  0.
         25    1    3    3    0    0  0.49268104808E+02 -0.44541626145E+02 -0.91687294360E+03  0.92707459102E+03  0.12000000000E+03 0.  0.
         25    1    3    3    0    0 -0.49268104808E+02  0.44541626145E+02 -0.83097173968E+03  0.84221454200E+03  0.12000000000E+03 0.  0.
<mgrwt>
<rscale>  0 0.27463248E+03</rscale>
<asrwt>0</asrwt>
<pdfrwt beam="1">  1        2 0.27054865E+00 0.27463248E+03</pdfrwt>
<pdfrwt beam="2">  1       -2 0.16495737E-02 0.27463248E+03</pdfrwt>
<totfact> 0.10212542E+04</totfact>
</mgrwt>
</event>
<event>
 5    1  0.1107336E+001  0.2762932E+03  0.7818608E-02  0.1097731E+00
          2   -1    0    0  501    0  0.00000000000E+00  0.00000000000E+00  0.24322621265E+02  0.24322621265E+02  0.00000000000E+00 0.  1.
         -2   -1    0    0    0  501 -0.00000000000E+00 -0.00000000000E+00 -0.78463924571E+03  0.78463924571E+03  0.00000000000E+00 0.  1.
         35    2    1    2    0    0  0.00000000000E+00  0.00000000000E+00 -0.76031662444E+03  0.80896186697E+03  0.27629320081E+03 0.  0.
         25    1    3    3    0    0 -0.84179452947E+00 -0.38965110246E+02 -0.54489057069E+03  0.55930735956E+03  0.12000000000E+03 0.  0.
         25    1    3    3    0    0  0.84179452947E+00  0.38965110246E+02 -0.21542605375E+03  0.24965450741E+03  0.12000000000E+03 0.  0.
<mgrwt>
<rscale>  0 0.27629320E+03</rscale>
<asrwt>0</asrwt>
<pdfrwt beam="1">  1        2 0.37419425E-02 0.27629320E+03</pdfrwt>
<pdfrwt beam="2">  1       -2 0.12071371E+00 0.27629320E+03</pdfrwt>
<totfact> 0.12695340E+03</totfact>
</mgrwt>
</event>
<event>
 5    1  0.1107336E+001  0.2754269E+03  0.7818608E-02  0.1098213E+00
         -3   -1    0    0    0  501 -0.00000000000E+00  0.00000000000E+00  0.33145556445E+03  0.33145556445E+03  0.00000000000E+00 0. -1.
          3   -1    0    0  501    0  0.00000000000E+00 -0.00000000000E+00 -0.57217296799E+02  0.57217296799E+02  0.00000000000E+00 0. -1.
         35    2    1    2    0    0  0.00000000000E+00  0.00000000000E+00  0.27423826765E+03  0.38867286125E+03  0.27542687891E+03 0.  0.
         25    1    3    3    0    0  0.42467088964E+02 -0.51227888558E+02  0.15365093383E+03  0.20600087300E+03  0.12000000000E+03 0.  0.
         25    1    3    3    0    0 -0.42467088964E+02  0.51227888558E+02  0.12058733381E+03  0.18267198824E+03  0.12000000000E+03 0.  0.
<mgrwt>
<rscale>  0 0.27542688E+03</rscale>
<asrwt>0</asrwt>
<pdfrwt beam="1">  1        3 0.88026612E-02 0.27542688E+03</pdfrwt>
<pdfrwt beam="2">  1       -3 0.50993163E-01 0.27542688E+03</pdfrwt>
<totfact> 0.88991727E+02</totfact>
</mgrwt>
</event>
<event>
 5    1  0.1107336E+001  0.2742654E+03  0.7818608E-02  0.1098863E+00
         -2   -1    0    0    0  501 -0.00000000000E+00  0.00000000000E+00  0.92802167222E+02  0.92802167222E+02  0.00000000000E+00 0. -1.
          2   -1    0    0  501    0  0.00000000000E+00 -0.00000000000E+00 -0.20263939270E+03  0.20263939270E+03  0.00000000000E+00 0. -1.
         35    2    1    2    0    0  0.00000000000E+00  0.00000000000E+00 -0.10983722548E+03  0.29544155992E+03  0.27426538103E+03 0.  0.
         25    1    3    3    0    0 -0.35886340555E+02  0.53585079508E+02 -0.38016886748E+02  0.14143717284E+03  0.12000000000E+03 0.  0.
         25    1    3    3    0    0  0.35886340555E+02 -0.53585079508E+02 -0.71820338732E+02  0.15400438708E+03  0.12000000000E+03 0.  0.
<mgrwt>
<rscale>  0 0.27426538E+03</rscale>
<asrwt>0</asrwt>
<pdfrwt beam="1">  1        2 0.31175291E-01 0.27426538E+03</pdfrwt>
<pdfrwt beam="2">  1       -2 0.14277257E-01 0.27426538E+03</pdfrwt>
<totfact> 0.61968392E+03</totfact>
</mgrwt>
</event>
<event>
 5    1  0.1107336E+001  0.2841876E+03  0.7818608E-02  0.1093424E+00
          2   -1    0    0  501    0  0.00000000000E+00  0.00000000000E+00  0.17789184443E+04  0.17789184443E+04  0.00000000000E+00 0. -1.
         -2   -1    0    0    0  501 -0.00000000000E+00 -0.00000000000E+00 -0.11349954301E+02  0.11349954301E+02  0.00000000000E+00 0. -1.
         35    2    1    2    0    0  0.00000000000E+00  0.00000000000E+00  0.17675684900E+04  0.17902683986E+04  0.28418756516E+03 0.  0.
         25    1    3    3    0    0  0.60282211227E+02 -0.16099503462E+02  0.60937140414E+03  0.62420080678E+03  0.12000000000E+03 0.  0.
         25    1    3    3    0    0 -0.60282211227E+02  0.16099503462E+02  0.11581970858E+04  0.11660675918E+04  0.12000000000E+03 0.  0.
<mgrwt>
<rscale>  0 0.28418757E+03</rscale>
<asrwt>0</asrwt>
<pdfrwt beam="1">  1        2 0.27367954E+00 0.28418757E+03</pdfrwt>
<pdfrwt beam="2">  1       -2 0.17461482E-02 0.28418757E+03</pdfrwt>
<totfact> 0.91705342E+03</totfact>
</mgrwt>
</event>
<event>
 5    1  0.1107336E+001  0.2736525E+03  0.7818608E-02  0.1099207E+00
         -3   -1    0    0    0  501 -0.00000000000E+00  0.00000000000E+00  0.37887254557E+02  0.37887254557E+02  0.00000000000E+00 0. -1.
          3   -1    0    0  501    0  0.00000000000E+00 -0.00000000000E+00 -0.49413515239E+03  0.49413515239E+03  0.00000000000E+00 0. -1.
         35    2    1    2    0    0  0.00000000000E+00  0.00000000000E+00 -0.45624789783E+03  0.53202240694E+03  0.27365251180E+03 0.  0.
         25    1    3    3    0    0 -0.17712709776E+02 -0.29405861821E+02 -0.11913028312E+03  0.17254121001E+03  0.12000000000E+03 0.  0.
         25    1    3    3    0    0  0.17712709776E+02  0.29405861821E+02 -0.33711761471E+03  0.35948119693E+03  0.12000000000E+03 0.  0.
<mgrwt>
<rscale>  0 0.27365251E+03</rscale>
<asrwt>0</asrwt>
<pdfrwt beam="1">  1        3 0.76020792E-01 0.27365251E+03</pdfrwt>
<pdfrwt beam="2">  1       -3 0.58288084E-02 0.27365251E+03</pdfrwt>
<totfact> 0.75537007E+02</totfact>
</mgrwt>
</event>
<event>
 5    1  0.1107336E+001  0.2749734E+03  0.7818608E-02  0.1098466E+00
         -1   -1    0    0    0  501 -0.00000000000E+00  0.00000000000E+00  0.47565824414E+02  0.47565824414E+02  0.00000000000E+00 0. -1.
          1   -1    0    0  501    0  0.00000000000E+00 -0.00000000000E+00 -0.39739854019E+03  0.39739854019E+03  0.00000000000E+00 0. -1.
         35    2    1    2    0    0  0.00000000000E+00  0.00000000000E+00 -0.34983271578E+03  0.44496436461E+03  0.27497337460E+03 0.  0.
         25    1    3    3    0    0  0.63391582493E+02 -0.88067697138E+00 -0.13934074762E+03  0.19451249901E+03  0.12000000000E+03 0.  0.
         25    1    3    3    0    0 -0.63391582493E+02  0.88067697138E+00 -0.21049196815E+03  0.25045186560E+03  0.12000000000E+03 0.  0.
<mgrwt>
<rscale>  0 0.27497337E+03</rscale>
<asrwt>0</asrwt>
<pdfrwt beam="1">  1        1 0.61138236E-01 0.27497337E+03</pdfrwt>
<pdfrwt beam="2">  1       -1 0.73178193E-02 0.27497337E+03</pdfrwt>
<totfact> 0.59973289E+03</totfact>
</mgrwt>
</event>
<event>
 5    1  0.1107336E+001  0.2742980E+03  0.7818608E-02  0.1098845E+00
         -2   -1    0    0    0  501 -0.00000000000E+00  0.00000000000E+00  0.23211214690E+02  0.23211214690E+02  0.00000000000E+00 0.  1.
          2   -1    0    0  501    0  0.00000000000E+00 -0.00000000000E+00 -0.81037785965E+03  0.81037785965E+03  0.00000000000E+00 0.  1.
         35    2    1    2    0    0  0.00000000000E+00  0.00000000000E+00 -0.78716664496E+03  0.83358907434E+03  0.27429804579E+03 0.  0.
         25    1    3    3    0    0  0.42338092333E+02 -0.47198332677E+02 -0.33359440939E+03  0.36014639613E+03  0.12000000000E+03 0.  0.
         25    1    3    3    0    0 -0.42338092333E+02  0.47198332677E+02 -0.45357223558E+03  0.47344267822E+03  0.12000000000E+03 0.  0.
<mgrwt>
<rscale>  0 0.27429805E+03</rscale>
<asrwt>0</asrwt>
<pdfrwt beam="1">  1        2 0.12467350E+00 0.27429805E+03</pdfrwt>
<pdfrwt beam="2">  1       -2 0.35709565E-02 0.27429805E+03</pdfrwt>
<totfact> 0.11339795E+04</totfact>
</mgrwt>
</event>
<event>
 5    1  0.1107336E+001  0.2741008E+03  0.7818608E-02  0.1098955E+00
          4   -1    0    0  501    0  0.00000000000E+00  0.00000000000E+00  0.20981955293E+03  0.20981955293E+03  0.00000000000E+00 0.  1.
         -4   -1    0    0    0  501 -0.00000000000E+00 -0.00000000000E+00 -0.89518870767E+02  0.89518870767E+02  0.00000000000E+00 0.  1.
         35    2    1    2    0    0  0.00000000000E+00  0.00000000000E+00  0.12030068216E+03  0.29933842370E+03  0.27410078032E+03 0.  0.
         25    1    3    3    0    0  0.33394576928E+02 -0.56247779849E+02  0.71276586850E+02  0.15414072252E+03  0.12000000000E+03 0.  0.
         25    1    3    3    0    0 -0.33394576928E+02  0.56247779849E+02  0.49024095314E+02  0.14519770118E+03  0.12000000000E+03 0.  0.
<mgrwt>
<rscale>  0 0.27410078E+03</rscale>
<asrwt>0</asrwt>
<pdfrwt beam="1">  1        4 0.32279931E-01 0.27410078E+03</pdfrwt>
<pdfrwt beam="2">  1       -4 0.13772134E-01 0.27410078E+03</pdfrwt>
<totfact> 0.75831637E+02</totfact>
</mgrwt>
</event>
<event>
 5    1  0.1107336E+001  0.2750256E+03  0.7818608E-02  0.1098437E+00
         -1   -1    0    0    0  501 -0.00000000000E+00  0.00000000000E+00  0.14139935009E+02  0.14139935009E+02  0.00000000000E+00 0. -1.
          1   -1    0    0  501    0  0.00000000000E+00 -0.00000000000E+00 -0.13373306709E+04  0.13373306709E+04  0.00000000000E+00 0. -1.
         35    2    1    2    0    0  0.00000000000E+00  0.00000000000E+00 -0.13231907359E+04  0.13514706059E+04  0.27502558988E+03 0.  0.
         25    1    3    3    0    0  0.58811850413E+02 -0.28530397835E+02 -0.73723739528E+03  0.74979450141E+03  0.12000000000E+03 0.  0.
         25    1    3    3    0    0 -0.58811850413E+02  0.28530397835E+02 -0.58595334062E+03  0.60167610451E+03  0.12000000000E+03 0.  0.
<mgrwt>
<rscale>  0 0.27502559E+03</rscale>
<asrwt>0</asrwt>
<pdfrwt beam="1">  1        1 0.20574324E+00 0.27502559E+03</pdfrwt>
<pdfrwt beam="2">  1       -1 0.21753740E-02 0.27502559E+03</pdfrwt>
<totfact> 0.55776577E+03</totfact>
</mgrwt>
</event>
<event>
 5    1  0.1107336E+001  0.2753549E+03  0.7818608E-02  0.1098253E+00
         -1   -1    0    0    0  501 -0.00000000000E+00  0.00000000000E+00  0.93628219448E+01  0.93628219448E+01  0.00000000000E+00 0. -1.
          1   -1    0    0  501    0  0.00000000000E+00 -0.00000000000E+00 -0.20245051378E+04  0.20245051378E+04  0.00000000000E+00 0. -1.
         35    2    1    2    0    0  0.00000000000E+00  0.00000000000E+00 -0.20151423159E+04  0.20338679598E+04  0.27535490649E+03 0.  0.
         25    1    3    3    0    0  0.23875993574E+02  0.21156150812E+02 -0.56825802058E+03  0.58166556004E+03  0.12000000000E+03 0.  0.
         25    1    3    3    0    0 -0.23875993574E+02 -0.21156150812E+02 -0.14468842953E+04  0.14522023997E+04  0.12000000000E+03 0.  0.
<mgrwt>
<rscale>  0 0.27535491E+03</rscale>
<asrwt>0</asrwt>
<pdfrwt beam="1">  1        1 0.31146245E+00 0.27535491E+03</pdfrwt>
<pdfrwt beam="2">  1       -1 0.14404336E-02 0.27535491E+03</pdfrwt>
<totfact> 0.36008722E+03</totfact>
</mgrwt>
</event>
<event>
 5    1  0.1107336E+001  0.2749898E+03  0.7818608E-02  0.1098457E+00
          2   -1    0    0  501    0  0.00000000000E+00  0.00000000000E+00  0.18397490514E+03  0.18397490514E+03  0.00000000000E+00 0.  1.
         -2   -1    0    0    0  501 -0.00000000000E+00 -0.00000000000E+00 -0.10275771603E+03  0.10275771603E+03  0.00000000000E+00 0.  1.
         35    2    1    2    0    0  0.00000000000E+00  0.00000000000E+00  0.81217189106E+02  0.28673262117E+03  0.27498975297E+03 0.  0.
         25    1    3    3    0    0  0.33031874379E+02 -0.30496071223E+02  0.92573774263E+02  0.15808547930E+03  0.12000000000E+03 0.  0.
         25    1    3    3    0    0 -0.33031874379E+02  0.30496071223E+02 -0.11356585158E+02  0.12864714187E+03  0.12000000000E+03 0.  0.
<mgrwt>
<rscale>  0 0.27498975E+03</rscale>
<asrwt>0</asrwt>
<pdfrwt beam="1">  1        2 0.28303832E-01 0.27498975E+03</pdfrwt>
<pdfrwt beam="2">  1       -2 0.15808879E-01 0.27498975E+03</pdfrwt>
<totfact> 0.58234280E+03</totfact>
</mgrwt>
</event>
<event>
 5    1  0.1107336E+001  0.2678498E+03  0.7818608E-02  0.1102517E+00
         -2   -1    0    0    0  501 -0.00000000000E+00  0.00000000000E+00  0.78889640447E+01  0.78889640447E+01  0.00000000000E+00 0.  1.
          2   -1    0    0  501    0  0.00000000000E+00 -0.00000000000E+00 -0.22735411401E+04  0.22735411401E+04  0.00000000000E+00 0.  1.
         35    2    1    2    0    0  0.00000000000E+00  0.00000000000E+00 -0.22656521761E+04  0.22814301042E+04  0.26784984083E+03 0.  0.
         25    1    3    3    0    0 -0.51703674362E+02  0.27170216751E+02 -0.10378279820E+04  0.10463739345E+04  0.12000000000E+03 0.  0.
         25    1    3    3    0    0  0.51703674362E+02 -0.27170216751E+02 -0.12278241941E+04  0.12350561697E+04  0.12000000000E+03 0.  0.
<mgrwt>
<rscale>  0 0.26784984E+03</rscale>
<asrwt>0</asrwt>
<pdfrwt beam="1">  1        2 0.34977509E+00 0.26784984E+03</pdfrwt>
<pdfrwt beam="2">  1       -2 0.12136884E-02 0.26784984E+03</pdfrwt>
<totfact> 0.85520025E+03</totfact>
</mgrwt>
</event>
<event>
 5    1  0.1107336E+001  0.2749423E+03  0.7818608E-02  0.1098484E+00
          2   -1    0    0  501    0  0.00000000000E+00  0.00000000000E+00  0.23631069960E+04  0.23631069960E+04  0.00000000000E+00 0.  1.
         -2   -1    0    0    0  501 -0.00000000000E+00 -0.00000000000E+00 -0.79972335042E+01  0.79972335042E+01  0.00000000000E+00 0.  1.
         35    2    1    2    0    0  0.00000000000E+00  0.00000000000E+00  0.23551097625E+04  0.23711042295E+04  0.27494230989E+03 0.  0.
         25    1    3    3    0    0 -0.61267859282E+01 -0.59612570641E+02  0.14372967758E+04  0.14435419002E+04  0.12000000000E+03 0.  0.
         25    1    3    3    0    0  0.61267859282E+01  0.59612570641E+02  0.91781298675E+03  0.92756232929E+03  0.12000000000E+03 0.  0.
<mgrwt>
<rscale>  0 0.27494231E+03</rscale>
<asrwt>0</asrwt>
<pdfrwt beam="1">  1        2 0.36355437E+00 0.27494231E+03</pdfrwt>
<pdfrwt beam="2">  1       -2 0.12303455E-02 0.27494231E+03</pdfrwt>
<totfact> 0.75051174E+03</totfact>
</mgrwt>
</event>
<event>
 5    1  0.1107336E+001  0.2712393E+03  0.7818608E-02  0.1100572E+00
         -1   -1    0    0    0  501 -0.00000000000E+00  0.00000000000E+00  0.10791605288E+03  0.10791605288E+03  0.00000000000E+00 0.  1.
          1   -1    0    0  501    0  0.00000000000E+00 -0.00000000000E+00 -0.17043518517E+03  0.17043518517E+03  0.00000000000E+00 0.  1.
         35    2    1    2    0    0  0.00000000000E+00  0.00000000000E+00 -0.62519132290E+02  0.27835123804E+03  0.27123932204E+03 0.  0.
         25    1    3    3    0    0  0.41871986045E+02 -0.14987867428E+02  0.14803806338E+02  0.12882954656E+03  0.12000000000E+03 0.  0.
         25    1    3    3    0    0 -0.41871986045E+02  0.14987867428E+02 -0.77322938627E+02  0.14952169148E+03  0.12000000000E+03 0.  0.
<mgrwt>
<rscale>  0 0.27123932E+03</rscale>
<asrwt>0</asrwt>
<pdfrwt beam="1">  1        1 0.26220798E-01 0.27123932E+03</pdfrwt>
<pdfrwt beam="2">  1       -1 0.16602470E-01 0.27123932E+03</pdfrwt>
<totfact> 0.48757294E+03</totfact>
</mgrwt>
</event>
<event>
 5    1  0.1107336E+001  0.2749974E+03  0.7818608E-02  0.1098453E+00
         -1   -1    0    0    0  501 -0.00000000000E+00  0.00000000000E+00  0.93158083906E+03  0.93158083906E+03  0.00000000000E+00 0. -1.
          1   -1    0    0  501    0  0.00000000000E+00 -0.00000000000E+00 -0.20294412348E+02  0.20294412348E+02  0.00000000000E+00 0. -1.
         35    2    1    2    0    0  0.00000000000E+00  0.00000000000E+00  0.91128642671E+03  0.95187525141E+03  0.27499735041E+03 0.  0.
         25    1    3    3    0    0 -0.28037166809E+02 -0.50775911473E+02  0.57259594371E+03  0.58790338548E+03  0.12000000000E+03 0.  0.
         25    1    3    3    0    0  0.28037166809E+02  0.50775911473E+02  0.33869048300E+03  0.36397186592E+03  0.12000000000E+03 0.  0.
<mgrwt>
<rscale>  0 0.27499735E+03</rscale>
<asrwt>0</asrwt>
<pdfrwt beam="1">  1        1 0.31222180E-02 0.27499735E+03</pdfrwt>
<pdfrwt beam="2">  1       -1 0.14332010E+00 0.27499735E+03</pdfrwt>
<totfact> 0.13709680E+03</totfact>
</mgrwt>
</event>
<event>
 5    1  0.1107336E+001  0.2770759E+03  0.7818608E-02  0.1097297E+00
          3   -1    0    0  501    0  0.00000000000E+00  0.00000000000E+00  0.25794858548E+02  0.25794858548E+02  0.00000000000E+00 0.  1.
         -3   -1    0    0    0  501 -0.00000000000E+00 -0.00000000000E+00 -0.74405383760E+03  0.74405383760E+03  0.00000000000E+00 0.  1.
         35    2    1    2    0    0  0.00000000000E+00  0.00000000000E+00 -0.71825897905E+03  0.76984869615E+03  0.27707589930E+03 0.  0.
         25    1    3    3    0    0  0.17887299511E+02  0.31349021938E+02 -0.52327244712E+03  0.53806762640E+03  0.12000000000E+03 0.  0.
         25    1    3    3    0    0 -0.17887299511E+02 -0.31349021938E+02 -0.19498653193E+03  0.23178106975E+03  0.12000000000E+03 0.  0.
<mgrwt>
<rscale>  0 0.27707590E+03</rscale>
<asrwt>0</asrwt>
<pdfrwt beam="1">  1        3 0.39684405E-02 0.27707590E+03</pdfrwt>
<pdfrwt beam="2">  1       -3 0.11446980E+00 0.27707590E+03</pdfrwt>
<totfact> 0.55156128E+02</totfact>
</mgrwt>
</event>
<event>
 5    1  0.1107336E+001  0.2607120E+03  0.7818608E-02  0.1106716E+00
          2   -1    0    0  501    0  0.00000000000E+00  0.00000000000E+00  0.85196685846E+03  0.85196685846E+03  0.00000000000E+00 0.  1.
         -2   -1    0    0    0  501 -0.00000000000E+00 -0.00000000000E+00 -0.19945247252E+02  0.19945247252E+02  0.00000000000E+00 0.  1.
         35    2    1    2    0    0  0.00000000000E+00  0.00000000000E+00  0.83202161121E+03  0.87191210572E+03  0.26071202230E+03 0.  0.
         25    1    3    3    0    0 -0.20118937610E+02  0.10129905677E+02  0.56873091746E+03  0.58168912927E+03  0.12000000000E+03 0.  0.
         25    1    3    3    0    0  0.20118937610E+02 -0.10129905677E+02  0.26329069375E+03  0.29022297645E+03  0.12000000000E+03 0.  0.
<mgrwt>
<rscale>  0 0.26071202E+03</rscale>
<asrwt>0</asrwt>
<pdfrwt beam="1">  1        2 0.13107180E+00 0.26071202E+03</pdfrwt>
<pdfrwt beam="2">  1       -2 0.30685002E-02 0.26071202E+03</pdfrwt>
<totfact> 0.13305002E+04</totfact>
</mgrwt>
</event>
<event>
 5    1  0.1107336E+001  0.2750028E+03  0.7818608E-02  0.1098450E+00
          3   -1    0    0  501    0  0.00000000000E+00  0.00000000000E+00  0.16380040592E+03  0.16380040592E+03  0.00000000000E+00 0. -1.
         -3   -1    0    0    0  501 -0.00000000000E+00 -0.00000000000E+00 -0.11542481563E+03  0.11542481563E+03  0.00000000000E+00 0. -1.
         35    2    1    2    0    0  0.00000000000E+00  0.00000000000E+00  0.48375590291E+02  0.27922522155E+03  0.27500277564E+03 0.  0.
         25    1    3    3    0    0 -0.60597127137E+02 -0.27192540752E+02  0.34093904301E+02  0.14132883782E+03  0.12000000000E+03 0.  0.
         25    1    3    3    0    0  0.60597127137E+02  0.27192540752E+02  0.14281685990E+02  0.13789638373E+03  0.12000000000E+03 0.  0.
<mgrwt>
<rscale>  0 0.27500278E+03</rscale>
<asrwt>0</asrwt>
<pdfrwt beam="1">  1        3 0.25200063E-01 0.27500278E+03</pdfrwt>
<pdfrwt beam="2">  1       -3 0.17757664E-01 0.27500278E+03</pdfrwt>
<totfact> 0.10424684E+03</totfact>
</mgrwt>
</event>
<event>
 5    1  0.1107336E+001  0.2713789E+03  0.7818608E-02  0.1100493E+00
         -2   -1    0    0    0  501 -0.00000000000E+00  0.00000000000E+00  0.39245902437E+02  0.39245902437E+02  0.00000000000E+00 0. -1.
          2   -1    0    0  501    0  0.00000000000E+00 -0.00000000000E+00 -0.46913504826E+03  0.46913504826E+03  0.00000000000E+00 0. -1.
         35    2    1    2    0    0  0.00000000000E+00  0.00000000000E+00 -0.42988914583E+03  0.50838095070E+03  0.27137891100E+03 0.  0.
         25    1    3    3    0    0 -0.29837642227E+01 -0.63209971189E+02 -0.20990918515E+03  0.24993252953E+03  0.12000000000E+03 0.  0.
         25    1    3    3    0    0  0.29837642227E+01  0.63209971189E+02 -0.21997996067E+03  0.25844842117E+03  0.12000000000E+03 0.  0.
<mgrwt>
<rscale>  0 0.27137891E+03</rscale>
<asrwt>0</asrwt>
<pdfrwt beam="1">  1        2 0.72174625E-01 0.27137891E+03</pdfrwt>
<pdfrwt beam="2">  1       -2 0.60378309E-02 0.27137891E+03</pdfrwt>
<totfact> 0.97369425E+03</totfact>
</mgrwt>
</event>
<event>
 5    1  0.1107336E+001  0.2748764E+03  0.7818608E-02  0.1098521E+00
          3   -1    0    0  501    0  0.00000000000E+00  0.00000000000E+00  0.81538785231E+03  0.81538785231E+03  0.00000000000E+00 0.  1.
         -3   -1    0    0    0  501 -0.00000000000E+00 -0.00000000000E+00 -0.23165977271E+02  0.23165977271E+02  0.00000000000E+00 0.  1.
         35    2    1    2    0    0  0.00000000000E+00  0.00000000000E+00  0.79222187504E+03  0.83855382958E+03  0.27487638279E+03 0.  0.
         25    1    3    3    0    0 -0.54262235307E+02  0.33893041282E+02  0.33539379781E+03  0.36191453140E+03  0.12000000000E+03 0.  0.
         25    1    3    3    0    0  0.54262235307E+02 -0.33893041282E+02  0.45682807723E+03  0.47663929818E+03  0.12000000000E+03 0.  0.
<mgrwt>
<rscale>  0 0.27487638E+03</rscale>
<asrwt>0</asrwt>
<pdfrwt beam="1">  1        3 0.12544426E+00 0.27487638E+03</pdfrwt>
<pdfrwt beam="2">  1       -3 0.35639971E-02 0.27487638E+03</pdfrwt>
<totfact> 0.52612542E+02</totfact>
</mgrwt>
</event>
<event>
 5    1  0.1107336E+001  0.2752170E+03  0.7818608E-02  0.1098330E+00
          1   -1    0    0  501    0  0.00000000000E+00  0.00000000000E+00  0.22479584280E+03  0.22479584280E+03  0.00000000000E+00 0. -1.
         -1   -1    0    0    0  501 -0.00000000000E+00 -0.00000000000E+00 -0.84236880553E+02  0.84236880553E+02  0.00000000000E+00 0. -1.
         35    2    1    2    0    0  0.00000000000E+00  0.00000000000E+00  0.14055896224E+03  0.30903272335E+03  0.27521700935E+03 0.  0.
         25    1    3    3    0    0 -0.16686845403E+02  0.36485225516E+02  0.13102326402E+03  0.18214477266E+03  0.12000000000E+03 0.  0.
         25    1    3    3    0    0  0.16686845403E+02 -0.36485225516E+02  0.95356982190E+01  0.12688795069E+03  0.12000000000E+03 0.  0.
<mgrwt>
<rscale>  0 0.27521701E+03</rscale>
<asrwt>0</asrwt>
<pdfrwt beam="1">  1        1 0.34583976E-01 0.27521701E+03</pdfrwt>
<pdfrwt beam="2">  1       -1 0.12959520E-01 0.27521701E+03</pdfrwt>
<totfact> 0.50926028E+03</totfact>
</mgrwt>
</event>
<event>
 5    1  0.1107336E+001  0.2749099E+03  0.7818608E-02  0.1098502E+00
         -1   -1    0    0    0  501 -0.00000000000E+00  0.00000000000E+00  0.33507574130E+03  0.33507574130E+03  0.00000000000E+00 0. -1.
          1   -1    0    0  501    0  0.00000000000E+00 -0.00000000000E+00 -0.56386846187E+02  0.56386846187E+02  0.00000000000E+00 0. -1.
         35    2    1    2    0    0  0.00000000000E+00  0.00000000000E+00  0.27868889511E+03  0.39146258749E+03  0.27490990732E+03 0.  0.
         25    1    3    3    0    0  0.14586711703E+02 -0.64453809824E+02  0.12330989024E+03  0.18431601881E+03  0.12000000000E+03 0.  0.
         25    1    3    3    0    0 -0.14586711703E+02  0.64453809824E+02  0.15537900487E+03  0.20714656867E+03  0.12000000000E+03 0.  0.
<mgrwt>
<rscale>  0 0.27490991E+03</rscale>
<asrwt>0</asrwt>
<pdfrwt beam="1">  1        1 0.86748996E-02 0.27490991E+03</pdfrwt>
<pdfrwt beam="2">  1       -1 0.51550113E-01 0.27490991E+03</pdfrwt>
<totfact> 0.30095280E+03</totfact>
</mgrwt>
</event>
<event>
 5    1  0.1107336E+001  0.2749693E+03  0.7818608E-02  0.1098469E+00
         -1   -1    0    0    0  501 -0.00000000000E+00  0.00000000000E+00  0.95988401793E+02  0.95988401793E+02  0.00000000000E+00 0.  1.
          1   -1    0    0  501    0  0.00000000000E+00 -0.00000000000E+00 -0.19691994242E+03  0.19691994242E+03  0.00000000000E+00 0.  1.
         35    2    1    2    0    0  0.00000000000E+00  0.00000000000E+00 -0.10093154063E+03  0.29290834421E+03  0.27496931141E+03 0.  0.
         25    1    3    3    0    0  0.26405696915E+02  0.56297992055E+02 -0.23616101509E+02  0.13720220475E+03  0.12000000000E+03 0.  0.
         25    1    3    3    0    0 -0.26405696915E+02 -0.56297992055E+02 -0.77315439116E+02  0.15570613946E+03  0.12000000000E+03 0.  0.
<mgrwt>
<rscale>  0 0.27496931E+03</rscale>
<asrwt>0</asrwt>
<pdfrwt beam="1">  1        1 0.30295375E-01 0.27496931E+03</pdfrwt>
<pdfrwt beam="2">  1       -1 0.14767447E-01 0.27496931E+03</pdfrwt>
<totfact> 0.48960435E+03</totfact>
</mgrwt>
</event>
<event>
 5    1  0.1107336E+001  0.2738742E+03  0.7818608E-02  0.1099083E+00
          2   -1    0    0  501    0  0.00000000000E+00  0.00000000000E+00  0.87868660784E+03  0.87868660784E+03  0.00000000000E+00 0.  1.
         -2   -1    0    0    0  501 -0.00000000000E+00 -0.00000000000E+00 -0.21340686164E+02  0.21340686164E+02  0.00000000000E+00 0.  1.
         35    2    1    2    0    0  0.00000000000E+00  0.00000000000E+00  0.85734592167E+03  0.90002729400E+03  0.27387424220E+03 0.  0.
         25    1    3    3    0    0  0.25286129833E+02 -0.18756874488E+02  0.61917987114E+03  0.63148627976E+03  0.12000000000E+03 0.  0.
         25    1    3    3    0    0 -0.25286129833E+02  0.18756874488E+02  0.23816605054E+03  0.26854101424E+03  0.12000000000E+03 0.  0.
<mgrwt>
<rscale>  0 0.27387424E+03</rscale>
<asrwt>0</asrwt>
<pdfrwt beam="1">  1        2 0.13518253E+00 0.27387424E+03</pdfrwt>
<pdfrwt beam="2">  1       -2 0.32831832E-02 0.27387424E+03</pdfrwt>
<totfact> 0.11571947E+04</totfact>
</mgrwt>
</event>
<event>
 4    1  0.1107336E+001  0.2922640E+03  0.7818608E-02  0.1089173E+00
          2   -1    0    0  501    0  0.00000000000E+00  0.00000000000E+00  0.19747610045E+03  0.19747610045E+03  0.00000000000E+00 0. -1.
         -2   -1    0    0    0  501 -0.00000000000E+00 -0.00000000000E+00 -0.10813746877E+03  0.10813746877E+03  0.00000000000E+00 0. -1.
         25    1    1    2    0    0 -0.39073850311E+02  0.16358401059E+02  0.11978500257E+03  0.17476501338E+03  0.12000000000E+03 0.  0.
         25    1    1    2    0    0  0.39073850311E+02 -0.16358401059E+02 -0.30446370885E+02  0.13084855583E+03  0.12000000000E+03 0.  0.
<mgrwt>
<rscale>  0 0.29226403E+03</rscale>
<asrwt>0</asrwt>
<pdfrwt beam="1">  1        2 0.30380938E-01 0.29226403E+03</pdfrwt>
<pdfrwt beam="2">  1       -2 0.16636534E-01 0.29226403E+03</pdfrwt>
<totfact> 0.49571127E+03</totfact>
</mgrwt>
</event>
<event>
 5    1  0.1107336E+001  0.2745700E+03  0.7818608E-02  0.1098692E+00
          1   -1    0    0  501    0  0.00000000000E+00  0.00000000000E+00  0.28740283990E+02  0.28740283990E+02  0.00000000000E+00 0. -1.
         -1   -1    0    0    0  501 -0.00000000000E+00 -0.00000000000E+00 -0.65577545481E+03  0.65577545481E+03  0.00000000000E+00 0. -1.
         35    2    1    2    0    0  0.00000000000E+00  0.00000000000E+00 -0.62703517082E+03  0.68451573880E+03  0.27457001151E+03 0.  0.
         25    1    3    3    0    0 -0.32657092396E+02  0.23976619645E+02 -0.44557396151E+03  0.46322512793E+03  0.12000000000E+03 0.  0.
         25    1    3    3    0    0  0.32657092396E+02 -0.23976619645E+02 -0.18146120931E+03  0.22129061087E+03  0.12000000000E+03 0.  0.
<mgrwt>
<rscale>  0 0.27457001E+03</rscale>
<asrwt>0</asrwt>
<pdfrwt beam="1">  1        1 0.44215819E-02 0.27457001E+03</pdfrwt>
<pdfrwt beam="2">  1       -1 0.10088854E+00 0.27457001E+03</pdfrwt>
<totfact> 0.19506245E+03</totfact>
</mgrwt>
</event>
<event>
 5    1  0.1107336E+001  0.2765849E+03  0.7818608E-02  0.1097569E+00
          2   -1    0    0  501    0  0.00000000000E+00  0.00000000000E+00  0.20395680192E+04  0.20395680192E+04  0.00000000000E+00 0. -1.
         -2   -1    0    0    0  501 -0.00000000000E+00 -0.00000000000E+00 -0.93768851871E+01  0.93768851871E+01  0.00000000000E+00 0. -1.
         35    2    1    2    0    0  0.00000000000E+00  0.00000000000E+00  0.20301911340E+04  0.20489449044E+04  0.27658485242E+03 0.  0.
         25    1    3    3    0    0 -0.24338698302E+02  0.48978178284E+02  0.13235361024E+04  0.13300898649E+04  0.12000000000E+03 0.  0.
         25    1    3    3    0    0  0.24338698302E+02 -0.48978178284E+02  0.70665503155E+03  0.71885503949E+03  0.12000000000E+03 0.  0.
<mgrwt>
<rscale>  0 0.27658485E+03</rscale>
<asrwt>0</asrwt>
<pdfrwt beam="1">  1        2 0.31377934E+00 0.27658485E+03</pdfrwt>
<pdfrwt beam="2">  1       -2 0.14425993E-02 0.27658485E+03</pdfrwt>
<totfact> 0.88461199E+03</totfact>
</mgrwt>
</event>
<event>
 5    1  0.1107336E+001  0.2746649E+03  0.7818608E-02  0.1098639E+00
          2   -1    0    0  501    0  0.00000000000E+00  0.00000000000E+00  0.20417718870E+04  0.20417718870E+04  0.00000000000E+00 0. -1.
         -2   -1    0    0    0  501 -0.00000000000E+00 -0.00000000000E+00 -0.92371728850E+01  0.92371728850E+01  0.00000000000E+00 0. -1.
         35    2    1    2    0    0  0.00000000000E+00  0.00000000000E+00  0.20325347141E+04  0.20510090599E+04  0.27466488609E+03 0.  0.
         25    1    3    3    0    0  0.27294733181E+02  0.56681096291E+02  0.84888441471E+03  0.85962927979E+03  0.12000000000E+03 0.  0.
         25    1    3    3    0    0 -0.27294733181E+02 -0.56681096291E+02  0.11836502994E+04  0.11913797801E+04  0.12000000000E+03 0.  0.
<mgrwt>
<rscale>  0 0.27466489E+03</rscale>
<asrwt>0</asrwt>
<pdfrwt beam="1">  1        2 0.31411839E+00 0.27466489E+03</pdfrwt>
<pdfrwt beam="2">  1       -2 0.14211051E-02 0.27466489E+03</pdfrwt>
<totfact> 0.90177252E+03</totfact>
</mgrwt>
</event>
<event>
 5    1  0.1107336E+001  0.2750178E+03  0.7818608E-02  0.1098442E+00
         -3   -1    0    0    0  501 -0.00000000000E+00  0.00000000000E+00  0.50747003140E+02  0.50747003140E+02  0.00000000000E+00 0.  1.
          3   -1    0    0  501    0  0.00000000000E+00 -0.00000000000E+00 -0.37260722350E+03  0.37260722350E+03  0.00000000000E+00 0.  1.
         35    2    1    2    0    0  0.00000000000E+00  0.00000000000E+00 -0.32186022035E+03  0.42335422664E+03  0.27501781717E+03 0.  0.
         25    1    3    3    0    0 -0.45799385836E+02 -0.20485112395E+02 -0.92234237042E+02  0.15945023693E+03  0.12000000000E+03 0.  0.
         25    1    3    3    0    0  0.45799385836E+02  0.20485112395E+02 -0.22962598331E+03  0.26390398971E+03  0.12000000000E+03 0.  0.
<mgrwt>
<rscale>  0 0.27501782E+03</rscale>
<asrwt>0</asrwt>
<pdfrwt beam="1">  1        3 0.57324187E-01 0.27501782E+03</pdfrwt>
<pdfrwt beam="2">  1       -3 0.78072315E-02 0.27501782E+03</pdfrwt>
<totfact> 0.85417471E+02</totfact>
</mgrwt>
</event>
<event>
 5    1  0.1107336E+001  0.2750699E+03  0.7818608E-02  0.1098413E+00
         -2   -1    0    0    0  501 -0.00000000000E+00  0.00000000000E+00  0.15981057778E+02  0.15981057778E+02  0.00000000000E+00 0.  1.
          2   -1    0    0  501    0  0.00000000000E+00 -0.00000000000E+00 -0.11836431206E+04  0.11836431206E+04  0.00000000000E+00 0.  1.
         35    2    1    2    0    0  0.00000000000E+00  0.00000000000E+00 -0.11676620628E+04  0.11996241784E+04  0.27506994819E+03 0.  0.
         25    1    3    3    0    0 -0.14369794332E+01  0.53027008555E+02 -0.76374888363E+03  0.77493631080E+03  0.12000000000E+03 0.  0.
         25    1    3    3    0    0  0.14369794332E+01 -0.53027008555E+02 -0.40391317921E+03  0.42468786760E+03  0.12000000000E+03 0.  0.
<mgrwt>
<rscale>  0 0.27506995E+03</rscale>
<asrwt>0</asrwt>
<pdfrwt beam="1">  1        2 0.18209899E+00 0.27506995E+03</pdfrwt>
<pdfrwt beam="2">  1       -2 0.24586236E-02 0.27506995E+03</pdfrwt>
<totfact> 0.11615023E+04</totfact>
</mgrwt>
</event>
<event>
 5    1  0.1107336E+001  0.2750369E+03  0.7818608E-02  0.1098431E+00
          2   -1    0    0  501    0  0.00000000000E+00  0.00000000000E+00  0.18204676150E+03  0.18204676150E+03  0.00000000000E+00 0. -1.
         -2   -1    0    0    0  501 -0.00000000000E+00 -0.00000000000E+00 -0.10388171873E+03  0.10388171873E+03  0.00000000000E+00 0. -1.
         35    2    1    2    0    0  0.00000000000E+00  0.00000000000E+00  0.78165042772E+02  0.28592848023E+03  0.27503694641E+03 0.  0.
         25    1    3    3    0    0  0.30871633797E+02 -0.59236700037E+02  0.46380934919E+02  0.14495942718E+03  0.12000000000E+03 0.  0.
         25    1    3    3    0    0 -0.30871633797E+02  0.59236700037E+02  0.31784107852E+02  0.14096905305E+03  0.12000000000E+03 0.  0.
<mgrwt>
<rscale>  0 0.27503695E+03</rscale>
<asrwt>0</asrwt>
<pdfrwt beam="1">  1        2 0.28007194E-01 0.27503695E+03</pdfrwt>
<pdfrwt beam="2">  1       -2 0.15981803E-01 0.27503695E+03</pdfrwt>
<totfact> 0.57859538E+03</totfact>
</mgrwt>
</event>
<event>
 5    1  0.1107336E+001  0.2754145E+03  0.7818608E-02  0.1098220E+00
          2   -1    0    0  501    0  0.00000000000E+00  0.00000000000E+00  0.66999014307E+03  0.66999014307E+03  0.00000000000E+00 0.  1.
         -2   -1    0    0    0  501 -0.00000000000E+00 -0.00000000000E+00 -0.28303822469E+02  0.28303822469E+02  0.00000000000E+00 0.  1.
         35    2    1    2    0    0  0.00000000000E+00  0.00000000000E+00  0.64168632060E+03  0.69829396554E+03  0.27541446633E+03 0.  0.
         25    1    3    3    0    0  0.56146772047E+02  0.22615052059E+02  0.24480641659E+03  0.27927420611E+03  0.12000000000E+03 0.  0.
         25    1    3    3    0    0 -0.56146772047E+02 -0.22615052059E+02  0.39687990401E+03  0.41901975944E+03  0.12000000000E+03 0.  0.
<mgrwt>
<rscale>  0 0.27541447E+03</rscale>
<asrwt>0</asrwt>
<pdfrwt beam="1">  1        2 0.10307539E+00 0.27541447E+03</pdfrwt>
<pdfrwt beam="2">  1       -2 0.43544347E-02 0.27541447E+03</pdfrwt>
<totfact> 0.10647616E+04</totfact>
</mgrwt>
</event>
<event>
 5    1  0.1107336E+001  0.2746909E+03  0.7818608E-02  0.1098625E+00
          2   -1    0    0  501    0  0.00000000000E+00  0.00000000000E+00  0.28971082155E+03  0.28971082155E+03  0.00000000000E+00 0.  1.
         -2   -1    0    0    0  501 -0.00000000000E+00 -0.00000000000E+00 -0.65112410664E+02  0.65112410664E+02  0.00000000000E+00 0.  1.
         35    2    1    2    0    0  0.00000000000E+00  0.00000000000E+00  0.22459841088E+03  0.35482323221E+03  0.27469088071E+03 0.  0.
         25    1    3    3    0    0 -0.59505315773E+02  0.30368331269E+02  0.11334209254E+03  0.17807174984E+03  0.12000000000E+03 0.  0.
         25    1    3    3    0    0  0.59505315773E+02 -0.30368331269E+02  0.11125631835E+03  0.17675148237E+03  0.12000000000E+03 0.  0.
<mgrwt>
<rscale>  0 0.27469088E+03</rscale>
<asrwt>0</asrwt>
<pdfrwt beam="1">  1        2 0.44570895E-01 0.27469088E+03</pdfrwt>
<pdfrwt beam="2">  1       -2 0.10017294E-01 0.27469088E+03</pdfrwt>
<totfact> 0.74584136E+03</totfact>
</mgrwt>
</event>
<event>
 5    1  0.1107336E+001  0.2752612E+03  0.7818608E-02  0.1098306E+00
         -2   -1    0    0    0  501 -0.00000000000E+00  0.00000000000E+00  0.13617997683E+03  0.13617997683E+03  0.00000000000E+00 0. -1.
          2   -1    0    0  501    0  0.00000000000E+00 -0.00000000000E+00 -0.13909669680E+03  0.13909669680E+03  0.00000000000E+00 0. -1.
         35    2    1    2    0    0  0.00000000000E+00  0.00000000000E+00 -0.29167199680E+01  0.27527667362E+03  0.27526122100E+03 0.  0.
         25    1    3    3    0    0  0.52182435313E+02 -0.40363344475E+02 -0.15242413986E+02  0.13778438706E+03  0.12000000000E+03 0.  0.
         25    1    3    3    0    0 -0.52182435313E+02  0.40363344475E+02  0.12325694018E+02  0.13749228657E+03  0.12000000000E+03 0.  0.
<mgrwt>
<rscale>  0 0.27526122E+03</rscale>
<asrwt>0</asrwt>
<pdfrwt beam="1">  1        2 0.21399492E-01 0.27526122E+03</pdfrwt>
<pdfrwt beam="2">  1       -2 0.20950766E-01 0.27526122E+03</pdfrwt>
<totfact> 0.49479352E+03</totfact>
</mgrwt>
</event>
<event>
 5    1  0.1107336E+001  0.2754780E+03  0.7818608E-02  0.1098185E+00
          2   -1    0    0  501    0  0.00000000000E+00  0.00000000000E+00  0.20153410323E+04  0.20153410323E+04  0.00000000000E+00 0. -1.
         -2   -1    0    0    0  501 -0.00000000000E+00 -0.00000000000E+00 -0.94138077639E+01  0.94138077639E+01  0.00000000000E+00 0. -1.
         35    2    1    2    0    0  0.00000000000E+00  0.00000000000E+00  0.20059272245E+04  0.20247548400E+04  0.27547800679E+03 0.  0.
         25    1    3    3    0    0 -0.35009692049E+02 -0.36768644383E+02  0.67472175095E+03  0.68718778579E+03  0.12000000000E+03 0.  0.
         25    1    3    3    0    0  0.35009692049E+02  0.36768644383E+02  0.13312054735E+04  0.13375670542E+04  0.12000000000E+03 0.  0.
<mgrwt>
<rscale>  0 0.27547801E+03</rscale>
<asrwt>0</asrwt>
<pdfrwt beam="1">  1        2 0.31005212E+00 0.27547801E+03</pdfrwt>
<pdfrwt beam="2">  1       -2 0.14482797E-02 0.27547801E+03</pdfrwt>
<totfact> 0.90574295E+03</totfact>
</mgrwt>
</event>
<event>
 5    1  0.1107336E+001  0.2747459E+03  0.7818608E-02  0.1098594E+00
          1   -1    0    0  501    0  0.00000000000E+00  0.00000000000E+00  0.73306723944E+02  0.73306723944E+02  0.00000000000E+00 0.  1.
         -1   -1    0    0    0  501 -0.00000000000E+00 -0.00000000000E+00 -0.25742962329E+03  0.25742962329E+03  0.00000000000E+00 0.  1.
         35    2    1    2    0    0  0.00000000000E+00  0.00000000000E+00 -0.18412289934E+03  0.33073634723E+03  0.27474586315E+03 0.  0.
         25    1    3    3    0    0 -0.66750692833E+02 -0.18793617449E+00 -0.96820915952E+02  0.16801779691E+03  0.12000000000E+03 0.  0.
         25    1    3    3    0    0  0.66750692833E+02  0.18793617449E+00 -0.87301983390E+02  0.16271855032E+03  0.12000000000E+03 0.  0.
<mgrwt>
<rscale>  0 0.27474586E+03</rscale>
<asrwt>0</asrwt>
<pdfrwt beam="1">  1        1 0.11277958E-01 0.27474586E+03</pdfrwt>
<pdfrwt beam="2">  1       -1 0.39604557E-01 0.27474586E+03</pdfrwt>
<totfact> 0.34117740E+03</totfact>
</mgrwt>
</event>
<event>
 5    1  0.1107336E+001  0.2759419E+03  0.7818608E-02  0.1097926E+00
         -2   -1    0    0    0  501 -0.00000000000E+00  0.00000000000E+00  0.12220373616E+03  0.12220373616E+03  0.00000000000E+00 0. -1.
          2   -1    0    0  501    0  0.00000000000E+00 -0.00000000000E+00 -0.15577248035E+03  0.15577248035E+03  0.00000000000E+00 0. -1.
         35    2    1    2    0    0  0.00000000000E+00  0.00000000000E+00 -0.33568744189E+02  0.27797621651E+03  0.27594187134E+03 0.  0.
         25    1    3    3    0    0  0.11676203949E+02 -0.47755750389E+02  0.30669535350E+02  0.13325751698E+03  0.12000000000E+03 0.  0.
         25    1    3    3    0    0 -0.11676203949E+02  0.47755750389E+02 -0.64238279539E+02  0.14471869952E+03  0.12000000000E+03 0.  0.
<mgrwt>
<rscale>  0 0.27594187E+03</rscale>
<asrwt>0</asrwt>
<pdfrwt beam="1">  1        2 0.23964997E-01 0.27594187E+03</pdfrwt>
<pdfrwt beam="2">  1       -2 0.18800575E-01 0.27594187E+03</pdfrwt>
<totfact> 0.52396639E+03</totfact>
</mgrwt>
</event>
<event>
 5    1  0.1107336E+001  0.2754021E+03  0.7818608E-02  0.1098227E+00
          1   -1    0    0  501    0  0.00000000000E+00  0.00000000000E+00  0.40787770958E+03  0.40787770958E+03  0.00000000000E+00 0. -1.
         -1   -1    0    0    0  501 -0.00000000000E+00 -0.00000000000E+00 -0.46488404605E+02  0.46488404605E+02  0.00000000000E+00 0. -1.
         35    2    1    2    0    0  0.00000000000E+00  0.00000000000E+00  0.36138930498E+03  0.45436611419E+03  0.27540213501E+03 0.  0.
         25    1    3    3    0    0 -0.30417620338E+02 -0.34085723153E+02  0.26276452364E+03  0.29245899376E+03  0.12000000000E+03 0.  0.
         25    1    3    3    0    0  0.30417620338E+02  0.34085723153E+02  0.98624781340E+02  0.16190712042E+03  0.12000000000E+03 0.  0.
<mgrwt>
<rscale>  0 0.27540214E+03</rscale>
<asrwt>0</asrwt>
<pdfrwt beam="1">  1        1 0.62750415E-01 0.27540214E+03</pdfrwt>
<pdfrwt beam="2">  1       -1 0.71520625E-02 0.27540214E+03</pdfrwt>
<totfact> 0.60061435E+03</totfact>
</mgrwt>
</event>
<event>
 5    1  0.1107336E+001  0.2760725E+03  0.7818608E-02  0.1097854E+00
         -2   -1    0    0    0  501 -0.00000000000E+00  0.00000000000E+00  0.90495141429E+01  0.90495141429E+01  0.00000000000E+00 0. -1.
          2   -1    0    0  501    0  0.00000000000E+00 -0.00000000000E+00 -0.21055279212E+04  0.21055279212E+04  0.00000000000E+00 0. -1.
         35    2    1    2    0    0  0.00000000000E+00  0.00000000000E+00 -0.20964784070E+04  0.21145774353E+04  0.27607248831E+03 0.  0.
         25    1    3    3    0    0  0.33191522424E+01  0.52373985960E+02 -0.71437338904E+03  0.72628051753E+03  0.12000000000E+03 0.  0.
         25    1    3    3    0    0 -0.33191522424E+01 -0.52373985960E+02 -0.13821050180E+04  0.13882969178E+04  0.12000000000E+03 0.  0.
<mgrwt>
<rscale>  0 0.27607249E+03</rscale>
<asrwt>0</asrwt>
<pdfrwt beam="1">  1        2 0.32392811E+00 0.27607249E+03</pdfrwt>
<pdfrwt beam="2">  1       -2 0.13922298E-02 0.27607249E+03</pdfrwt>
<totfact> 0.85997225E+03</totfact>
</mgrwt>
</event>
<event>
 5    1  0.1107336E+001  0.2749591E+03  0.7818608E-02  0.1098474E+00
          2   -1    0    0  501    0  0.00000000000E+00  0.00000000000E+00  0.35283067646E+04  0.35283067646E+04  0.00000000000E+00 0.  1.
         -2   -1    0    0    0  501 -0.00000000000E+00 -0.00000000000E+00 -0.53568562059E+01  0.53568562059E+01  0.00000000000E+00 0.  1.
         35    2    1    2    0    0  0.00000000000E+00  0.00000000000E+00  0.35229499084E+04  0.35336636208E+04  0.27495913870E+03 0.  0.
         25    1    3    3    0    0 -0.46258701242E+02  0.48557718530E+02  0.17834076198E+04  0.17886979784E+04  0.12000000000E+03 0.  0.
         25    1    3    3    0    0  0.46258701242E+02 -0.48557718530E+02  0.17395422886E+04  0.17449656424E+04  0.12000000000E+03 0.  0.
<mgrwt>
<rscale>  0 0.27495914E+03</rscale>
<asrwt>0</asrwt>
<pdfrwt beam="1">  1        2 0.54281457E+00 0.27495914E+03</pdfrwt>
<pdfrwt beam="2">  1       -2 0.82413454E-03 0.27495914E+03</pdfrwt>
<totfact> 0.27416627E+03</totfact>
</mgrwt>
</event>
<event>
 5    1  0.1107336E+001  0.2778161E+03  0.7818608E-02  0.1096888E+00
          1   -1    0    0  501    0  0.00000000000E+00  0.00000000000E+00  0.57680941612E+03  0.57680941612E+03  0.00000000000E+00 0.  1.
         -1   -1    0    0    0  501 -0.00000000000E+00 -0.00000000000E+00 -0.33452036190E+02  0.33452036190E+02  0.00000000000E+00 0.  1.
         35    2    1    2    0    0  0.00000000000E+00  0.00000000000E+00  0.54335737993E+03  0.61026145231E+03  0.27781612238E+03 0.  0.
         25    1    3    3    0    0  0.63682667914E+02 -0.27915142682E+02  0.25456293555E+03  0.28989140301E+03  0.12000000000E+03 0.  0.
         25    1    3    3    0    0 -0.63682667914E+02  0.27915142682E+02  0.28879444438E+03  0.32037004930E+03  0.12000000000E+03 0.  0.
<mgrwt>
<rscale>  0 0.27781612E+03</rscale>
<asrwt>0</asrwt>
<pdfrwt beam="1">  1        1 0.88739903E-01 0.27781612E+03</pdfrwt>
<pdfrwt beam="2">  1       -1 0.51464675E-02 0.27781612E+03</pdfrwt>
<totfact> 0.62397235E+03</totfact>
</mgrwt>
</event>
<event>
 5    1  0.1107336E+001  0.2746970E+03  0.7818608E-02  0.1098621E+00
         -1   -1    0    0    0  501 -0.00000000000E+00  0.00000000000E+00  0.56018090561E+02  0.56018090561E+02  0.00000000000E+00 0. -1.
          1   -1    0    0  501    0  0.00000000000E+00 -0.00000000000E+00 -0.33675928948E+03  0.33675928948E+03  0.00000000000E+00 0. -1.
         35    2    1    2    0    0  0.00000000000E+00  0.00000000000E+00 -0.28074119892E+03  0.39277738004E+03  0.27469701400E+03 0.  0.
         25    1    3    3    0    0 -0.36326109168E+02  0.45749921569E+02 -0.93994482563E+02  0.16324093936E+03  0.12000000000E+03 0.  0.
         25    1    3    3    0    0  0.36326109168E+02 -0.45749921569E+02 -0.18674671636E+03  0.22953644068E+03  0.12000000000E+03 0.  0.
<mgrwt>
<rscale>  0 0.27469701E+03</rscale>
<asrwt>0</asrwt>
<pdfrwt beam="1">  1        1 0.51809121E-01 0.27469701E+03</pdfrwt>
<pdfrwt beam="2">  1       -1 0.86181679E-02 0.27469701E+03</pdfrwt>
<totfact> 0.57674842E+03</totfact>
</mgrwt>
</event>
<event>
 5    1  0.1107336E+001  0.2639253E+03  0.7818608E-02  0.1104807E+00
          1   -1    0    0  501    0  0.00000000000E+00  0.00000000000E+00  0.51166650039E+04  0.51166650039E+04  0.00000000000E+00 0. -1.
         -1   -1    0    0    0  501 -0.00000000000E+00 -0.00000000000E+00 -0.34034169998E+01  0.34034169998E+01  0.00000000000E+00 0. -1.
         35    2    1    2    0    0  0.00000000000E+00  0.00000000000E+00  0.51132615869E+04  0.51200684209E+04  0.26392532775E+03 0.  0.
         25    1    3    3    0    0 -0.43397320788E+02  0.15737353243E+01  0.32082813874E+04  0.32108184728E+04  0.12000000000E+03 0.  0.
         25    1    3    3    0    0  0.43397320788E+02 -0.15737353243E+01  0.19049801995E+04  0.19092499482E+04  0.12000000000E+03 0.  0.
<mgrwt>
<rscale>  0 0.26392533E+03</rscale>
<asrwt>0</asrwt>
<pdfrwt beam="1">  1        1 0.78717308E+00 0.26392533E+03</pdfrwt>
<pdfrwt beam="2">  1       -1 0.52360671E-03 0.26392533E+03</pdfrwt>
<totfact> 0.43072786E+01</totfact>
</mgrwt>
</event>
<event>
 5    1  0.1107336E+001  0.2747730E+03  0.7818608E-02  0.1098579E+00
          1   -1    0    0  501    0  0.00000000000E+00  0.00000000000E+00  0.46453848389E+02  0.46453848389E+02  0.00000000000E+00 0. -1.
         -1   -1    0    0    0  501 -0.00000000000E+00 -0.00000000000E+00 -0.40631823363E+03  0.40631823363E+03  0.00000000000E+00 0. -1.
         35    2    1    2    0    0  0.00000000000E+00  0.00000000000E+00 -0.35986438525E+03  0.45277208202E+03  0.27477296536E+03 0.  0.
         25    1    3    3    0    0 -0.41370373866E+02  0.48887776319E+02 -0.14808549668E+03  0.20107420728E+03  0.12000000000E+03 0.  0.
         25    1    3    3    0    0  0.41370373866E+02 -0.48887776319E+02 -0.21177888857E+03  0.25169787474E+03  0.12000000000E+03 0.  0.
<mgrwt>
<rscale>  0 0.27477297E+03</rscale>
<asrwt>0</asrwt>
<pdfrwt beam="1">  1        1 0.71467462E-02 0.27477297E+03</pdfrwt>
<pdfrwt beam="2">  1       -1 0.62510495E-01 0.27477297E+03</pdfrwt>
<totfact> 0.27158471E+03</totfact>
</mgrwt>
</event>
<event>
 5    1  0.1107336E+001  0.2746580E+03  0.7818608E-02  0.1098643E+00
         -1   -1    0    0    0  501 -0.00000000000E+00  0.00000000000E+00  0.46411474995E+02  0.46411474995E+02  0.00000000000E+00 0.  1.
          1   -1    0    0  501    0  0.00000000000E+00 -0.00000000000E+00 -0.40634881746E+03  0.40634881746E+03  0.00000000000E+00 0.  1.
         35    2    1    2    0    0  0.00000000000E+00  0.00000000000E+00 -0.35993734246E+03  0.45276029245E+03  0.27465795441E+03 0.  0.
         25    1    3    3    0    0 -0.50210901716E+01 -0.33837258943E+02 -0.27450813631E+03  0.30153754052E+03  0.12000000000E+03 0.  0.
         25    1    3    3    0    0  0.50210901716E+01  0.33837258943E+02 -0.85429206147E+02  0.15122275193E+03  0.12000000000E+03 0.  0.
<mgrwt>
<rscale>  0 0.27465795E+03</rscale>
<asrwt>0</asrwt>
<pdfrwt beam="1">  1        1 0.62515202E-01 0.27465795E+03</pdfrwt>
<pdfrwt beam="2">  1       -1 0.71402270E-02 0.27465795E+03</pdfrwt>
<totfact> 0.60498972E+03</totfact>
</mgrwt>
</event>
<event>
 5    1  0.1107336E+001  0.2760309E+03  0.7818608E-02  0.1097877E+00
         -2   -1    0    0    0  501 -0.00000000000E+00  0.00000000000E+00  0.25750250648E+02  0.25750250648E+02  0.00000000000E+00 0.  1.
          2   -1    0    0  501    0  0.00000000000E+00 -0.00000000000E+00 -0.73973143915E+03  0.73973143915E+03  0.00000000000E+00 0.  1.
         35    2    1    2    0    0  0.00000000000E+00  0.00000000000E+00 -0.71398118851E+03  0.76548168980E+03  0.27603094008E+03 0.  0.
         25    1    3    3    0    0  0.17433718015E+02 -0.87175181264E+01 -0.17581213499E+03  0.21375181042E+03  0.12000000000E+03 0.  0.
         25    1    3    3    0    0 -0.17433718015E+02  0.87175181264E+01 -0.53816905352E+03  0.55172987939E+03  0.12000000000E+03 0.  0.
<mgrwt>
<rscale>  0 0.27603094E+03</rscale>
<asrwt>0</asrwt>
<pdfrwt beam="1">  1        2 0.11380485E+00 0.27603094E+03</pdfrwt>
<pdfrwt beam="2">  1       -2 0.39615767E-02 0.27603094E+03</pdfrwt>
<totfact> 0.10885734E+04</totfact>
</mgrwt>
</event>
<event>
 5    1  0.1107336E+001  0.2740473E+03  0.7818608E-02  0.1098985E+00
          1   -1    0    0  501    0  0.00000000000E+00  0.00000000000E+00  0.96736354915E+02  0.96736354915E+02  0.00000000000E+00 0.  1.
         -1   -1    0    0    0  501 -0.00000000000E+00 -0.00000000000E+00 -0.19408914332E+03  0.19408914332E+03  0.00000000000E+00 0.  1.
         35    2    1    2    0    0  0.00000000000E+00  0.00000000000E+00 -0.97352788402E+02  0.29082549823E+03  0.27404726784E+03 0.  0.
         25    1    3    3    0    0  0.32736857540E+02  0.42338260260E+02 -0.89931205496E+02  0.15922264866E+03  0.12000000000E+03 0.  0.
         25    1    3    3    0    0 -0.32736857540E+02 -0.42338260260E+02 -0.74215829057E+01  0.13160284958E+03  0.12000000000E+03 0.  0.
<mgrwt>
<rscale>  0 0.27404727E+03</rscale>
<asrwt>0</asrwt>
<pdfrwt beam="1">  1        1 0.14882516E-01 0.27404727E+03</pdfrwt>
<pdfrwt beam="2">  1       -1 0.29859868E-01 0.27404727E+03</pdfrwt>
<totfact> 0.38564653E+03</totfact>
</mgrwt>
</event>
<event>
 5    1  0.1107336E+001  0.2768129E+03  0.7818608E-02  0.1097442E+00
         -1   -1    0    0    0  501 -0.00000000000E+00  0.00000000000E+00  0.25617879782E+02  0.25617879782E+02  0.00000000000E+00 0.  1.
          1   -1    0    0  501    0  0.00000000000E+00 -0.00000000000E+00 -0.74777256926E+03  0.74777256926E+03  0.00000000000E+00 0.  1.
         35    2    1    2    0    0  0.00000000000E+00  0.00000000000E+00 -0.72215468948E+03  0.77339044904E+03  0.27681291721E+03 0.  0.
         25    1    3    3    0    0 -0.33988851783E+02 -0.58823740356E+02 -0.39423828295E+03  0.41765930878E+03  0.12000000000E+03 0.  0.
         25    1    3    3    0    0  0.33988851783E+02  0.58823740356E+02 -0.32791640654E+03  0.35573114026E+03  0.12000000000E+03 0.  0.
<mgrwt>
<rscale>  0 0.27681292E+03</rscale>
<asrwt>0</asrwt>
<pdfrwt beam="1">  1        1 0.11504193E+00 0.27681292E+03</pdfrwt>
<pdfrwt beam="2">  1       -1 0.39412122E-02 0.27681292E+03</pdfrwt>
<totfact> 0.64102000E+03</totfact>
</mgrwt>
</event>
<event>
 5    1  0.1107336E+001  0.2752443E+03  0.7818608E-02  0.1098315E+00
          2   -1    0    0  501    0  0.00000000000E+00  0.00000000000E+00  0.38506120110E+03  0.38506120110E+03  0.00000000000E+00 0. -1.
         -2   -1    0    0    0  501 -0.00000000000E+00 -0.00000000000E+00 -0.49186630330E+02  0.49186630330E+02  0.00000000000E+00 0. -1.
         35    2    1    2    0    0  0.00000000000E+00  0.00000000000E+00  0.33587457077E+03  0.43424783143E+03  0.27524434928E+03 0.  0.
         25    1    3    3    0    0  0.36173125649E+02 -0.31118055008E+01  0.25748628884E+03  0.28638674427E+03  0.12000000000E+03 0.  0.
         25    1    3    3    0    0 -0.36173125649E+02  0.31118055008E+01  0.78388281934E+02  0.14786108716E+03  0.12000000000E+03 0.  0.
<mgrwt>
<rscale>  0 0.27524435E+03</rscale>
<asrwt>0</asrwt>
<pdfrwt beam="1">  1        2 0.59240183E-01 0.27524435E+03</pdfrwt>
<pdfrwt beam="2">  1       -2 0.75671741E-02 0.27524435E+03</pdfrwt>
<totfact> 0.85307488E+03</totfact>
</mgrwt>
</event>
<event>
 5    1  0.1107336E+001  0.2746472E+03  0.7818608E-02  0.1098649E+00
          2   -1    0    0  501    0  0.00000000000E+00  0.00000000000E+00  0.17888014072E+04  0.17888014072E+04  0.00000000000E+00 0.  1.
         -2   -1    0    0    0  501 -0.00000000000E+00 -0.00000000000E+00 -0.10542125884E+02  0.10542125884E+02  0.00000000000E+00 0.  1.
         35    2    1    2    0    0  0.00000000000E+00  0.00000000000E+00  0.17782592813E+04  0.17993435331E+04  0.27464718907E+03 0.  0.
         25    1    3    3    0    0  0.58753753013E+02 -0.28073205863E+02  0.79247349492E+03  0.80414821304E+03  0.12000000000E+03 0.  0.
         25    1    3    3    0    0 -0.58753753013E+02  0.28073205863E+02  0.98578578637E+03  0.99519532002E+03  0.12000000000E+03 0.  0.
<mgrwt>
<rscale>  0 0.27464719E+03</rscale>
<asrwt>0</asrwt>
<pdfrwt beam="1">  1        2 0.27519997E+00 0.27464719E+03</pdfrwt>
<pdfrwt beam="2">  1       -2 0.16218669E-02 0.27464719E+03</pdfrwt>
<totfact> 0.10093239E+04</totfact>
</mgrwt>
</event>
<event>
 5    1  0.1107336E+001  0.2747705E+03  0.7818608E-02  0.1098580E+00
          2   -1    0    0  501    0  0.00000000000E+00  0.00000000000E+00  0.28073010266E+04  0.28073010266E+04  0.00000000000E+00 0.  1.
         -2   -1    0    0    0  501 -0.00000000000E+00 -0.00000000000E+00 -0.67234354496E+01  0.67234354496E+01  0.00000000000E+00 0.  1.
         35    2    1    2    0    0  0.00000000000E+00  0.00000000000E+00  0.28005775911E+04  0.28140244620E+04  0.27477050235E+03 0.  0.
         25    1    3    3    0    0 -0.41950027450E+02 -0.47457819925E+02  0.16205751969E+04  0.16262459895E+04  0.12000000000E+03 0.  0.
         25    1    3    3    0    0  0.41950027450E+02  0.47457819925E+02  0.11800023942E+04  0.11877784725E+04  0.12000000000E+03 0.  0.
<mgrwt>
<rscale>  0 0.27477050E+03</rscale>
<asrwt>0</asrwt>
<pdfrwt beam="1">  1        2 0.43189153E+00 0.27477050E+03</pdfrwt>
<pdfrwt beam="2">  1       -2 0.10343769E-02 0.27477050E+03</pdfrwt>
<totfact> 0.54774177E+03</totfact>
</mgrwt>
</event>
<event>
 5    1  0.1107336E+001  0.2750729E+03  0.7818608E-02  0.1098411E+00
          1   -1    0    0  501    0  0.00000000000E+00  0.00000000000E+00  0.36312873101E+02  0.36312873101E+02  0.00000000000E+00 0.  1.
         -1   -1    0    0    0  501 -0.00000000000E+00 -0.00000000000E+00 -0.52092479636E+03  0.52092479636E+03  0.00000000000E+00 0.  1.
         35    2    1    2    0    0  0.00000000000E+00  0.00000000000E+00 -0.48461192325E+03  0.55723766946E+03  0.27507290688E+03 0.  0.
         25    1    3    3    0    0  0.36430906675E+02  0.12277347402E+02 -0.35396920806E+03  0.37572881774E+03  0.12000000000E+03 0.  0.
         25    1    3    3    0    0 -0.36430906675E+02 -0.12277347402E+02 -0.13064271519E+03  0.18150885172E+03  0.12000000000E+03 0.  0.
<mgrwt>
<rscale>  0 0.27507291E+03</rscale>
<asrwt>0</asrwt>
<pdfrwt beam="1">  1        1 0.55865961E-02 0.27507291E+03</pdfrwt>
<pdfrwt beam="2">  1       -1 0.80142273E-01 0.27507291E+03</pdfrwt>
<totfact> 0.23142770E+03</totfact>
</mgrwt>
</event>
<event>
 5    1  0.1107336E+001  0.2729384E+03  0.7818608E-02  0.1099610E+00
         -1   -1    0    0    0  501 -0.00000000000E+00  0.00000000000E+00  0.50864314345E+02  0.50864314345E+02  0.00000000000E+00 0.  1.
          1   -1    0    0  501    0  0.00000000000E+00 -0.00000000000E+00 -0.36614746286E+03  0.36614746286E+03  0.00000000000E+00 0.  1.
         35    2    1    2    0    0  0.00000000000E+00  0.00000000000E+00 -0.31528314851E+03  0.41701177720E+03  0.27293837874E+03 0.  0.
         25    1    3    3    0    0  0.45304242124E+02  0.34854973150E+02 -0.11038901627E+03  0.17278043414E+03  0.12000000000E+03 0.  0.
         25    1    3    3    0    0 -0.45304242124E+02 -0.34854973150E+02 -0.20489413224E+03  0.24423134306E+03  0.12000000000E+03 0.  0.
<mgrwt>
<rscale>  0 0.27293838E+03</rscale>
<asrwt>0</asrwt>
<pdfrwt beam="1">  1        1 0.56330380E-01 0.27293838E+03</pdfrwt>
<pdfrwt beam="2">  1       -1 0.78252790E-02 0.27293838E+03</pdfrwt>
<totfact> 0.60104039E+03</totfact>
</mgrwt>
</event>
<event>
 5    1  0.1107336E+001  0.2749939E+03  0.7818608E-02  0.1098455E+00
         -3   -1    0    0    0  501 -0.00000000000E+00  0.00000000000E+00  0.19796084378E+03  0.19796084378E+03  0.00000000000E+00 0.  1.
          3   -1    0    0  501    0  0.00000000000E+00 -0.00000000000E+00 -0.95500766293E+02  0.95500766293E+02  0.00000000000E+00 0.  1.
         35    2    1    2    0    0  0.00000000000E+00  0.00000000000E+00  0.10246007749E+03  0.29346161008E+03  0.27499390740E+03 0.  0.
         25    1    3    3    0    0 -0.91915238341E+01 -0.18412316349E+02 -0.16950462608E+02  0.12292605780E+03  0.12000000000E+03 0.  0.
         25    1    3    3    0    0  0.91915238341E+01  0.18412316349E+02  0.11941054010E+03  0.17053555228E+03  0.12000000000E+03 0.  0.
<mgrwt>
<rscale>  0 0.27499391E+03</rscale>
<asrwt>0</asrwt>
<pdfrwt beam="1">  1        3 0.14692426E-01 0.27499391E+03</pdfrwt>
<pdfrwt beam="2">  1       -3 0.30455514E-01 0.27499391E+03</pdfrwt>
<totfact> 0.10211473E+03</totfact>
</mgrwt>
</event>
<event>
 5    1  0.1107336E+001  0.2752348E+03  0.7818608E-02  0.1098320E+00
         -2   -1    0    0    0  501 -0.00000000000E+00  0.00000000000E+00  0.23712734739E+02  0.23712734739E+02  0.00000000000E+00 0. -1.
          2   -1    0    0  501    0  0.00000000000E+00 -0.00000000000E+00 -0.79866592751E+03  0.79866592751E+03  0.00000000000E+00 0. -1.
         35    2    1    2    0    0  0.00000000000E+00  0.00000000000E+00 -0.77495319277E+03  0.82237866224E+03  0.27523483271E+03 0.  0.
         25    1    3    3    0    0 -0.52406109456E+02 -0.99360294024E+01 -0.26451999690E+03  0.29532347307E+03  0.12000000000E+03 0.  0.
         25    1    3    3    0    0  0.52406109456E+02  0.99360294024E+01 -0.51043319587E+03  0.52705518917E+03  0.12000000000E+03 0.  0.
<mgrwt>
<rscale>  0 0.27523483E+03</rscale>
<asrwt>0</asrwt>
<pdfrwt beam="1">  1        2 0.12287167E+00 0.27523483E+03</pdfrwt>
<pdfrwt beam="2">  1       -2 0.36481133E-02 0.27523483E+03</pdfrwt>
<totfact> 0.11189617E+04</totfact>
</mgrwt>
</event>
<event>
 5    1  0.1107336E+001  0.2761639E+03  0.7818608E-02  0.1097803E+00
         -2   -1    0    0    0  501 -0.00000000000E+00  0.00000000000E+00  0.80555886738E+01  0.80555886738E+01  0.00000000000E+00 0.  1.
          2   -1    0    0  501    0  0.00000000000E+00 -0.00000000000E+00 -0.23668808055E+04  0.23668808055E+04  0.00000000000E+00 0.  1.
         35    2    1    2    0    0  0.00000000000E+00  0.00000000000E+00 -0.23588252168E+04  0.23749363942E+04  0.27616385143E+03 0.  0.
         25    1    3    3    0    0 -0.33831203235E+02  0.56719942249E+02 -0.13295798810E+04  0.13366167597E+04  0.12000000000E+03 0.  0.
         25    1    3    3    0    0  0.33831203235E+02 -0.56719942249E+02 -0.10292453358E+04  0.10383196345E+04  0.12000000000E+03 0.  0.
<mgrwt>
<rscale>  0 0.27616385E+03</rscale>
<asrwt>0</asrwt>
<pdfrwt beam="1">  1        2 0.36413538E+00 0.27616385E+03</pdfrwt>
<pdfrwt beam="2">  1       -2 0.12393218E-02 0.27616385E+03</pdfrwt>
<totfact> 0.73911892E+03</totfact>
</mgrwt>
</event>
<event>
 5    1  0.1107336E+001  0.2802697E+03  0.7818608E-02  0.1095542E+00
          1   -1    0    0  501    0  0.00000000000E+00  0.00000000000E+00  0.10195090708E+03  0.10195090708E+03  0.00000000000E+00 0.  1.
         -1   -1    0    0    0  501 -0.00000000000E+00 -0.00000000000E+00 -0.19261991622E+03  0.19261991622E+03  0.00000000000E+00 0.  1.
         35    2    1    2    0    0  0.00000000000E+00  0.00000000000E+00 -0.90669009140E+02  0.29457082329E+03  0.28026969283E+03 0.  0.
         25    1    3    3    0    0 -0.32838227558E+02  0.38335324778E+02  0.91754620191E+01  0.13050722362E+03  0.12000000000E+03 0.  0.
         25    1    3    3    0    0  0.32838227558E+02 -0.38335324778E+02 -0.99844471159E+02  0.16406359967E+03  0.12000000000E+03 0.  0.
<mgrwt>
<rscale>  0 0.28026969E+03</rscale>
<asrwt>0</asrwt>
<pdfrwt beam="1">  1        1 0.15684755E-01 0.28026969E+03</pdfrwt>
<pdfrwt beam="2">  1       -1 0.29633833E-01 0.28026969E+03</pdfrwt>
<totfact> 0.36491221E+03</totfact>
</mgrwt>
</event>
<event>
 5    1  0.1107336E+001  0.2683006E+03  0.7818608E-02  0.1102256E+00
         -4   -1    0    0    0  501 -0.00000000000E+00  0.00000000000E+00  0.16477434871E+02  0.16477434871E+02  0.00000000000E+00 0. -1.
          4   -1    0    0  501    0  0.00000000000E+00 -0.00000000000E+00 -0.10921787997E+04  0.10921787997E+04  0.00000000000E+00 0. -1.
         35    2    1    2    0    0  0.00000000000E+00  0.00000000000E+00 -0.10757013649E+04  0.11086562346E+04  0.26830061528E+03 0.  0.
         25    1    3    3    0    0  0.46000974537E+01  0.43916168768E+02 -0.37017967113E+03  0.39164113636E+03  0.12000000000E+03 0.  0.
         25    1    3    3    0    0 -0.46000974537E+01 -0.43916168768E+02 -0.70552169373E+03  0.71701509823E+03  0.12000000000E+03 0.  0.
<mgrwt>
<rscale>  0 0.26830062E+03</rscale>
<asrwt>0</asrwt>
<pdfrwt beam="1">  1        4 0.16802757E+00 0.26830062E+03</pdfrwt>
<pdfrwt beam="2">  1       -4 0.25349890E-02 0.26830062E+03</pdfrwt>
<totfact> 0.30739802E+02</totfact>
</mgrwt>
</event>
<event>
 5    1  0.1107336E+001  0.2764476E+03  0.7818608E-02  0.1097645E+00
         -2   -1    0    0    0  501 -0.00000000000E+00  0.00000000000E+00  0.86457307912E+01  0.86457307912E+01  0.00000000000E+00 0. -1.
          2   -1    0    0  501    0  0.00000000000E+00 -0.00000000000E+00 -0.22098552101E+04  0.22098552101E+04  0.00000000000E+00 0. -1.
         35    2    1    2    0    0  0.00000000000E+00  0.00000000000E+00 -0.22012094793E+04  0.22185009409E+04  0.27644755911E+03 0.  0.
         25    1    3    3    0    0  0.14344722906E+02 -0.63621577698E+02 -0.92992659271E+03  0.93990262478E+03  0.12000000000E+03 0.  0.
         25    1    3    3    0    0 -0.14344722906E+02  0.63621577698E+02 -0.12712828866E+04  0.12785983161E+04  0.12000000000E+03 0.  0.
<mgrwt>
<rscale>  0 0.27644756E+03</rscale>
<asrwt>0</asrwt>
<pdfrwt beam="1">  1        2 0.33997788E+00 0.27644756E+03</pdfrwt>
<pdfrwt beam="2">  1       -2 0.13301118E-02 0.27644756E+03</pdfrwt>
<totfact> 0.80926348E+03</totfact>
</mgrwt>
</event>
<event>
 5    1  0.1107336E+001  0.2747577E+03  0.7818608E-02  0.1098587E+00
         -1   -1    0    0    0  501 -0.00000000000E+00  0.00000000000E+00  0.11341240313E+02  0.11341240313E+02  0.00000000000E+00 0.  1.
          1   -1    0    0  501    0  0.00000000000E+00 -0.00000000000E+00 -0.16640997237E+04  0.16640997237E+04  0.00000000000E+00 0.  1.
         35    2    1    2    0    0  0.00000000000E+00  0.00000000000E+00 -0.16527584834E+04  0.16754409640E+04  0.27475774691E+03 0.  0.
         25    1    3    3    0    0  0.65642748364E+01  0.63557095099E+02 -0.94685850398E+03  0.95656867009E+03  0.12000000000E+03 0.  0.
         25    1    3    3    0    0 -0.65642748364E+01 -0.63557095099E+02 -0.70589997943E+03  0.71887229395E+03  0.12000000000E+03 0.  0.
<mgrwt>
<rscale>  0 0.27475775E+03</rscale>
<asrwt>0</asrwt>
<pdfrwt beam="1">  1        1 0.25601533E+00 0.27475775E+03</pdfrwt>
<pdfrwt beam="2">  1       -1 0.17448063E-02 0.27475775E+03</pdfrwt>
<totfact> 0.46716564E+03</totfact>
</mgrwt>
</event>
<event>
 5    1  0.1107336E+001  0.2747689E+03  0.7818608E-02  0.1098581E+00
          1   -1    0    0  501    0  0.00000000000E+00  0.00000000000E+00  0.15169250836E+03  0.15169250836E+03  0.00000000000E+00 0.  1.
         -1   -1    0    0    0  501 -0.00000000000E+00 -0.00000000000E+00 -0.12442598226E+03  0.12442598226E+03  0.00000000000E+00 0.  1.
         35    2    1    2    0    0  0.00000000000E+00  0.00000000000E+00  0.27266526107E+02  0.27611849062E+03  0.27476891639E+03 0.  0.
         25    1    3    3    0    0 -0.14195484687E+02  0.65225268832E+02  0.92944326515E+01  0.13763078855E+03  0.12000000000E+03 0.  0.
         25    1    3    3    0    0  0.14195484687E+02 -0.65225268832E+02  0.17972093455E+02  0.13848770206E+03  0.12000000000E+03 0.  0.
<mgrwt>
<rscale>  0 0.27476892E+03</rscale>
<asrwt>0</asrwt>
<pdfrwt beam="1">  1        1 0.23337309E-01 0.27476892E+03</pdfrwt>
<pdfrwt beam="2">  1       -1 0.19142459E-01 0.27476892E+03</pdfrwt>
<totfact> 0.44997651E+03</totfact>
</mgrwt>
</event>
<event>
 5    1  0.1107336E+001  0.2749585E+03  0.7818608E-02  0.1098475E+00
          3   -1    0    0  501    0  0.00000000000E+00  0.00000000000E+00  0.33203766429E+03  0.33203766429E+03  0.00000000000E+00 0. -1.
         -3   -1    0    0    0  501 -0.00000000000E+00 -0.00000000000E+00 -0.56922872922E+02  0.56922872922E+02  0.00000000000E+00 0. -1.
         35    2    1    2    0    0  0.00000000000E+00  0.00000000000E+00  0.27511479137E+03  0.38896053721E+03  0.27495845337E+03 0.  0.
         25    1    3    3    0    0  0.44191622559E+02  0.38946859543E+02  0.18297471953E+03  0.22660429246E+03  0.12000000000E+03 0.  0.
         25    1    3    3    0    0 -0.44191622559E+02 -0.38946859543E+02  0.92140071837E+02  0.16235624475E+03  0.12000000000E+03 0.  0.
<mgrwt>
<rscale>  0 0.27495845E+03</rscale>
<asrwt>0</asrwt>
<pdfrwt beam="1">  1        3 0.51082716E-01 0.27495845E+03</pdfrwt>
<pdfrwt beam="2">  1       -3 0.87573653E-02 0.27495845E+03</pdfrwt>
<totfact> 0.89471059E+02</totfact>
</mgrwt>
</event>
<event>
 5    1  0.1107336E+001  0.2751081E+03  0.7818608E-02  0.1098391E+00
         -2   -1    0    0    0  501 -0.00000000000E+00  0.00000000000E+00  0.84538420702E+02  0.84538420702E+02  0.00000000000E+00 0.  1.
          2   -1    0    0  501    0  0.00000000000E+00 -0.00000000000E+00 -0.22381674461E+03  0.22381674461E+03  0.00000000000E+00 0.  1.
         35    2    1    2    0    0  0.00000000000E+00  0.00000000000E+00 -0.13927832391E+03  0.30835516532E+03  0.27510808143E+03 0.  0.
         25    1    3    3    0    0  0.18940559993E+02 -0.51403150458E+02 -0.25939117653E+02  0.13443908105E+03  0.12000000000E+03 0.  0.
         25    1    3    3    0    0 -0.18940559993E+02  0.51403150458E+02 -0.11333920626E+03  0.17391608426E+03  0.12000000000E+03 0.  0.
<mgrwt>
<rscale>  0 0.27510808E+03</rscale>
<asrwt>0</asrwt>
<pdfrwt beam="1">  1        2 0.34433345E-01 0.27510808E+03</pdfrwt>
<pdfrwt beam="2">  1       -2 0.13005911E-01 0.27510808E+03</pdfrwt>
<totfact> 0.64773261E+03</totfact>
</mgrwt>
</event>
<event>
 5    1  0.1107336E+001  0.2748889E+03  0.7818608E-02  0.1098514E+00
          2   -1    0    0  501    0  0.00000000000E+00  0.00000000000E+00  0.27354435991E+03  0.27354435991E+03  0.00000000000E+00 0. -1.
         -2   -1    0    0    0  501 -0.00000000000E+00 -0.00000000000E+00 -0.69060035200E+02  0.69060035200E+02  0.00000000000E+00 0. -1.
         35    2    1    2    0    0  0.00000000000E+00  0.00000000000E+00  0.20448432471E+03  0.34260439511E+03  0.27488894575E+03 0.  0.
         25    1    3    3    0    0 -0.57435057652E+02 -0.30762207038E+02  0.82698736461E+02  0.15963765296E+03  0.12000000000E+03 0.  0.
         25    1    3    3    0    0  0.57435057652E+02  0.30762207038E+02  0.12178558825E+03  0.18296674215E+03  0.12000000000E+03 0.  0.
<mgrwt>
<rscale>  0 0.27488895E+03</rscale>
<asrwt>0</asrwt>
<pdfrwt beam="1">  1        2 0.42083747E-01 0.27488895E+03</pdfrwt>
<pdfrwt beam="2">  1       -2 0.10624621E-01 0.27488895E+03</pdfrwt>
<totfact> 0.72235159E+03</totfact>
</mgrwt>
</event>
<event>
 5    1  0.1107336E+001  0.2744703E+03  0.7818608E-02  0.1098748E+00
         -4   -1    0    0    0  501 -0.00000000000E+00  0.00000000000E+00  0.12052864977E+03  0.12052864977E+03  0.00000000000E+00 0. -1.
          4   -1    0    0  501    0  0.00000000000E+00 -0.00000000000E+00 -0.15625732912E+03  0.15625732912E+03  0.00000000000E+00 0. -1.
         35    2    1    2    0    0  0.00000000000E+00  0.00000000000E+00 -0.35728679347E+02  0.27678597889E+03  0.27447028907E+03 0.  0.
         25    1    3    3    0    0 -0.29077306429E+02 -0.59195304522E+02 -0.27101923082E+02  0.13958541493E+03  0.12000000000E+03 0.  0.
         25    1    3    3    0    0  0.29077306429E+02  0.59195304522E+02 -0.86267562644E+01  0.13720056396E+03  0.12000000000E+03 0.  0.
<mgrwt>
<rscale>  0 0.27447029E+03</rscale>
<asrwt>0</asrwt>
<pdfrwt beam="1">  1        4 0.24039589E-01 0.27447029E+03</pdfrwt>
<pdfrwt beam="2">  1       -4 0.18542869E-01 0.27447029E+03</pdfrwt>
<totfact> 0.78119129E+02</totfact>
</mgrwt>
</event>
<event>
 5    1  0.1107336E+001  0.2750772E+03  0.7818608E-02  0.1098408E+00
         -2   -1    0    0    0  501 -0.00000000000E+00  0.00000000000E+00  0.10340256334E+02  0.10340256334E+02  0.00000000000E+00 0.  1.
          2   -1    0    0  501    0  0.00000000000E+00 -0.00000000000E+00 -0.18294394219E+04  0.18294394219E+04  0.00000000000E+00 0.  1.
         35    2    1    2    0    0  0.00000000000E+00  0.00000000000E+00 -0.18190991656E+04  0.18397796782E+04  0.27507724421E+03 0.  0.
         25    1    3    3    0    0 -0.11140997860E+02  0.60278978711E+02 -0.10938337204E+04  0.11021024838E+04  0.12000000000E+03 0.  0.
         25    1    3    3    0    0  0.11140997860E+02 -0.60278978711E+02 -0.72526544522E+03  0.73767719440E+03  0.12000000000E+03 0.  0.
<mgrwt>
<rscale>  0 0.27507724E+03</rscale>
<asrwt>0</asrwt>
<pdfrwt beam="1">  1        2 0.28145221E+00 0.27507724E+03</pdfrwt>
<pdfrwt beam="2">  1       -2 0.15908087E-02 0.27507724E+03</pdfrwt>
<totfact> 0.98856074E+03</totfact>
</mgrwt>
</event>
<event>
 5    1  0.1107336E+001  0.2750382E+03  0.7818608E-02  0.1098430E+00
         -1   -1    0    0    0  501 -0.00000000000E+00  0.00000000000E+00  0.69422867330E+02  0.69422867330E+02  0.00000000000E+00 0.  1.
          1   -1    0    0  501    0  0.00000000000E+00 -0.00000000000E+00 -0.27241020506E+03  0.27241020506E+03  0.00000000000E+00 0.  1.
         35    2    1    2    0    0  0.00000000000E+00  0.00000000000E+00 -0.20298733773E+03  0.34183307239E+03  0.27503816117E+03 0.  0.
         25    1    3    3    0    0 -0.50996968827E+02  0.43501932782E+02 -0.96164067276E+02  0.16775171183E+03  0.12000000000E+03 0.  0.
         25    1    3    3    0    0  0.50996968827E+02 -0.43501932782E+02 -0.10682327045E+03  0.17408136056E+03  0.12000000000E+03 0.  0.
<mgrwt>
<rscale>  0 0.27503816E+03</rscale>
<asrwt>0</asrwt>
<pdfrwt beam="1">  1        1 0.41909263E-01 0.27503816E+03</pdfrwt>
<pdfrwt beam="2">  1       -1 0.10680441E-01 0.27503816E+03</pdfrwt>
<totfact> 0.54106174E+03</totfact>
</mgrwt>
</event>
<event>
 5    1  0.1107336E+001  0.2748469E+03  0.7818608E-02  0.1098537E+00
          1   -1    0    0  501    0  0.00000000000E+00  0.00000000000E+00  0.17213093586E+04  0.17213093586E+04  0.00000000000E+00 0.  1.
         -1   -1    0    0    0  501 -0.00000000000E+00 -0.00000000000E+00 -0.10971414184E+02  0.10971414184E+02  0.00000000000E+00 0.  1.
         35    2    1    2    0    0  0.00000000000E+00  0.00000000000E+00  0.17103379445E+04  0.17322807728E+04  0.27484685127E+03 0.  0.
         25    1    3    3    0    0  0.31936093729E+02 -0.44645112581E+02  0.61334695256E+03  0.62738153015E+03  0.12000000000E+03 0.  0.
         25    1    3    3    0    0 -0.31936093729E+02  0.44645112581E+02  0.10969909919E+04  0.11048992427E+04  0.12000000000E+03 0.  0.
<mgrwt>
<rscale>  0 0.27484685E+03</rscale>
<asrwt>0</asrwt>
<pdfrwt beam="1">  1        1 0.26481661E+00 0.27484685E+03</pdfrwt>
<pdfrwt beam="2">  1       -1 0.16879112E-02 0.27484685E+03</pdfrwt>
<totfact> 0.44990797E+03</totfact>
</mgrwt>
</event>
<event>
 5    1  0.1107336E+001  0.2746783E+03  0.7818608E-02  0.1098632E+00
          2   -1    0    0  501    0  0.00000000000E+00  0.00000000000E+00  0.20354759304E+03  0.20354759304E+03  0.00000000000E+00 0.  1.
         -2   -1    0    0    0  501 -0.00000000000E+00 -0.00000000000E+00 -0.92666482102E+02  0.92666482102E+02  0.00000000000E+00 0.  1.
         35    2    1    2    0    0  0.00000000000E+00  0.00000000000E+00  0.11088111094E+03  0.29621407514E+03  0.27467828008E+03 0.  0.
         25    1    3    3    0    0 -0.49904475337E+02 -0.42455520915E+02  0.69464426437E+02  0.15335655987E+03  0.12000000000E+03 0.  0.
         25    1    3    3    0    0  0.49904475337E+02  0.42455520915E+02  0.41416684503E+02  0.14285751527E+03  0.12000000000E+03 0.  0.
<mgrwt>
<rscale>  0 0.27467828E+03</rscale>
<asrwt>0</asrwt>
<pdfrwt beam="1">  1        2 0.31315014E-01 0.27467828E+03</pdfrwt>
<pdfrwt beam="2">  1       -2 0.14256382E-01 0.27467828E+03</pdfrwt>
<totfact> 0.61817838E+03</totfact>
</mgrwt>
</event>
<event>
 5    1  0.1107336E+001  0.2708201E+03  0.7818608E-02  0.1100811E+00
         -4   -1    0    0    0  501 -0.00000000000E+00  0.00000000000E+00  0.19383523572E+03  0.19383523572E+03  0.00000000000E+00 0. -1.
          4   -1    0    0  501    0  0.00000000000E+00 -0.00000000000E+00 -0.94595176176E+02  0.94595176176E+02  0.00000000000E+00 0. -1.
         35    2    1    2    0    0  0.00000000000E+00  0.00000000000E+00  0.99240059546E+02  0.28843041190E+03  0.27082007512E+03 0.  0.
         25    1    3    3    0    0 -0.21227471130E+02  0.48290081317E+02  0.85789239646E+02  0.15665992188E+03  0.12000000000E+03 0.  0.
         25    1    3    3    0    0  0.21227471130E+02 -0.48290081317E+02  0.13450819900E+02  0.13177049002E+03  0.12000000000E+03 0.  0.
<mgrwt>
<rscale>  0 0.27082008E+03</rscale>
<asrwt>0</asrwt>
<pdfrwt beam="1">  1        4 0.14553104E-01 0.27082008E+03</pdfrwt>
<pdfrwt beam="2">  1       -4 0.29820805E-01 0.27082008E+03</pdfrwt>
<totfact> 0.79998315E+02</totfact>
</mgrwt>
</event>
<event>
 5    1  0.1107336E+001  0.2740002E+03  0.7818608E-02  0.1099012E+00
          1   -1    0    0  501    0  0.00000000000E+00  0.00000000000E+00  0.37610970900E+03  0.37610970900E+03  0.00000000000E+00 0.  1.
         -1   -1    0    0    0  501 -0.00000000000E+00 -0.00000000000E+00 -0.49903051950E+02  0.49903051950E+02  0.00000000000E+00 0.  1.
         35    2    1    2    0    0  0.00000000000E+00  0.00000000000E+00  0.32620665705E+03  0.42601276095E+03  0.27400016312E+03 0.  0.
         25    1    3    3    0    0  0.93637740517E+01  0.44130521450E+02  0.23821496917E+03  0.27052089517E+03  0.12000000000E+03 0.  0.
         25    1    3    3    0    0 -0.93637740517E+01 -0.44130521450E+02  0.87991687887E+02  0.15549186578E+03  0.12000000000E+03 0.  0.
<mgrwt>
<rscale>  0 0.27400016E+03</rscale>
<asrwt>0</asrwt>
<pdfrwt beam="1">  1        1 0.57863031E-01 0.27400016E+03</pdfrwt>
<pdfrwt beam="2">  1       -1 0.76773928E-02 0.27400016E+03</pdfrwt>
<totfact> 0.59806296E+03</totfact>
</mgrwt>
</event>
<event>
 5    1  0.1107336E+001  0.2732149E+03  0.7818608E-02  0.1099454E+00
          1   -1    0    0  501    0  0.00000000000E+00  0.00000000000E+00  0.10887008104E+04  0.10887008104E+04  0.00000000000E+00 0.  1.
         -1   -1    0    0    0  501 -0.00000000000E+00 -0.00000000000E+00 -0.17141157114E+02  0.17141157114E+02  0.00000000000E+00 0.  1.
         35    2    1    2    0    0  0.00000000000E+00  0.00000000000E+00  0.10715596533E+04  0.11058419676E+04  0.27321487252E+03 0.  0.
         25    1    3    3    0    0  0.87268329728E+01  0.61269980597E+02  0.61984974643E+03  0.63438464379E+03  0.12000000000E+03 0.  0.
         25    1    3    3    0    0 -0.87268329728E+01 -0.61269980597E+02  0.45170990690E+03  0.47145732376E+03  0.12000000000E+03 0.  0.
<mgrwt>
<rscale>  0 0.27321487E+03</rscale>
<asrwt>0</asrwt>
<pdfrwt beam="1">  1        1 0.16749238E+00 0.27321487E+03</pdfrwt>
<pdfrwt beam="2">  1       -1 0.26371020E-02 0.27321487E+03</pdfrwt>
<totfact> 0.62720320E+03</totfact>
</mgrwt>
</event>
<event>
 5    1  0.1107336E+001  0.2770887E+03  0.7818608E-02  0.1097290E+00
          2   -1    0    0  501    0  0.00000000000E+00  0.00000000000E+00  0.12399007292E+04  0.12399007292E+04  0.00000000000E+00 0. -1.
         -2   -1    0    0    0  501 -0.00000000000E+00 -0.00000000000E+00 -0.15480706891E+02  0.15480706891E+02  0.00000000000E+00 0. -1.
         35    2    1    2    0    0  0.00000000000E+00  0.00000000000E+00  0.12244200223E+04  0.12553814361E+04  0.27708872054E+03 0.  0.
         25    1    3    3    0    0 -0.37426748503E+02  0.57814698275E+02  0.57977927190E+03  0.59605981660E+03  0.12000000000E+03 0.  0.
         25    1    3    3    0    0  0.37426748503E+02 -0.57814698275E+02  0.64464075043E+03  0.65932161952E+03  0.12000000000E+03 0.  0.
<mgrwt>
<rscale>  0 0.27708872E+03</rscale>
<asrwt>0</asrwt>
<pdfrwt beam="1">  1        2 0.19075388E+00 0.27708872E+03</pdfrwt>
<pdfrwt beam="2">  1       -2 0.23816482E-02 0.27708872E+03</pdfrwt>
<totfact> 0.11315238E+04</totfact>
</mgrwt>
</event>
<event>
 5    1  0.1107336E+001  0.2752764E+03  0.7818608E-02  0.1098297E+00
          3   -1    0    0  501    0  0.00000000000E+00  0.00000000000E+00  0.90913248049E+02  0.90913248049E+02  0.00000000000E+00 0.  1.
         -3   -1    0    0    0  501 -0.00000000000E+00 -0.00000000000E+00 -0.20837742691E+03  0.20837742691E+03  0.00000000000E+00 0.  1.
         35    2    1    2    0    0  0.00000000000E+00  0.00000000000E+00 -0.11746417886E+03  0.29929067496E+03  0.27527636078E+03 0.  0.
         25    1    3    3    0    0  0.42325372624E+02  0.35281412452E+01 -0.18166675382E+01  0.12730744373E+03  0.12000000000E+03 0.  0.
         25    1    3    3    0    0 -0.42325372624E+02 -0.35281412452E+01 -0.11564751132E+03  0.17198323123E+03  0.12000000000E+03 0.  0.
<mgrwt>
<rscale>  0 0.27527636E+03</rscale>
<asrwt>0</asrwt>
<pdfrwt beam="1">  1        3 0.13986654E-01 0.27527636E+03</pdfrwt>
<pdfrwt beam="2">  1       -3 0.32058065E-01 0.27527636E+03</pdfrwt>
<totfact> 0.10094293E+03</totfact>
</mgrwt>
</event>
<event>
 5    1  0.1107336E+001  0.2721709E+03  0.7818608E-02  0.1100044E+00
          1   -1    0    0  501    0  0.00000000000E+00  0.00000000000E+00  0.81734619285E+03  0.81734619285E+03  0.00000000000E+00 0. -1.
         -1   -1    0    0    0  501 -0.00000000000E+00 -0.00000000000E+00 -0.22657778039E+02  0.22657778039E+02  0.00000000000E+00 0. -1.
         35    2    1    2    0    0  0.00000000000E+00  0.00000000000E+00  0.79468841481E+03  0.84000397089E+03  0.27217089204E+03 0.  0.
         25    1    3    3    0    0 -0.40626098890E+02 -0.32292748801E+02  0.28079981908E+03  0.30974479807E+03  0.12000000000E+03 0.  0.
         25    1    3    3    0    0  0.40626098890E+02  0.32292748801E+02  0.51388859573E+03  0.53025917282E+03  0.12000000000E+03 0.  0.
<mgrwt>
<rscale>  0 0.27217089E+03</rscale>
<asrwt>0</asrwt>
<pdfrwt beam="1">  1        1 0.12574555E+00 0.27217089E+03</pdfrwt>
<pdfrwt beam="2">  1       -1 0.34858126E-02 0.27217089E+03</pdfrwt>
<totfact> 0.67126932E+03</totfact>
</mgrwt>
</event>
<event>
 5    1  0.1107336E+001  0.2752593E+03  0.7818608E-02  0.1098307E+00
         -1   -1    0    0    0  501 -0.00000000000E+00  0.00000000000E+00  0.10508120265E+03  0.10508120265E+03  0.00000000000E+00 0.  1.
          1   -1    0    0  501    0  0.00000000000E+00 -0.00000000000E+00 -0.18025988935E+03  0.18025988935E+03  0.00000000000E+00 0.  1.
         35    2    1    2    0    0  0.00000000000E+00  0.00000000000E+00 -0.75178686698E+02  0.28534109199E+03  0.27525933925E+03 0.  0.
         25    1    3    3    0    0 -0.62026641352E+02 -0.18898417246E+02 -0.56632583259E+02  0.14768785969E+03  0.12000000000E+03 0.  0.
         25    1    3    3    0    0  0.62026641352E+02  0.18898417246E+02 -0.18546103439E+02  0.13765323231E+03  0.12000000000E+03 0.  0.
<mgrwt>
<rscale>  0 0.27525934E+03</rscale>
<asrwt>0</asrwt>
<pdfrwt beam="1">  1        1 0.27732290E-01 0.27525934E+03</pdfrwt>
<pdfrwt beam="2">  1       -1 0.16166339E-01 0.27525934E+03</pdfrwt>
<totfact> 0.47408499E+03</totfact>
</mgrwt>
</event>
<event>
 5    1  0.1107336E+001  0.2748805E+03  0.7818608E-02  0.1098518E+00
          3   -1    0    0  501    0  0.00000000000E+00  0.00000000000E+00  0.59882044117E+02  0.59882044117E+02  0.00000000000E+00 0. -1.
         -3   -1    0    0    0  501 -0.00000000000E+00 -0.00000000000E+00 -0.31545041592E+03  0.31545041592E+03  0.00000000000E+00 0. -1.
         35    2    1    2    0    0  0.00000000000E+00  0.00000000000E+00 -0.25556837180E+03  0.37533246003E+03  0.27488045200E+03 0.  0.
         25    1    3    3    0    0  0.45194378188E+02  0.31474530570E+02 -0.17989742422E+03  0.22315075876E+03  0.12000000000E+03 0.  0.
         25    1    3    3    0    0 -0.45194378188E+02 -0.31474530570E+02 -0.75670947575E+02  0.15218170127E+03  0.12000000000E+03 0.  0.
<mgrwt>
<rscale>  0 0.27488045E+03</rscale>
<asrwt>0</asrwt>
<pdfrwt beam="1">  1        3 0.92126220E-02 0.27488045E+03</pdfrwt>
<pdfrwt beam="2">  1       -3 0.48530834E-01 0.27488045E+03</pdfrwt>
<totfact> 0.91164194E+02</totfact>
</mgrwt>
</event>
<event>
 5    1  0.1107336E+001  0.2723715E+03  0.7818608E-02  0.1099930E+00
         -2   -1    0    0    0  501 -0.00000000000E+00  0.00000000000E+00  0.13590240791E+02  0.13590240791E+02  0.00000000000E+00 0. -1.
          2   -1    0    0  501    0  0.00000000000E+00 -0.00000000000E+00 -0.13646967556E+04  0.13646967556E+04  0.00000000000E+00 0. -1.
         35    2    1    2    0    0  0.00000000000E+00  0.00000000000E+00 -0.13511065148E+04  0.13782869964E+04  0.27237149274E+03 0.  0.
         25    1    3    3    0    0  0.26110137477E+02 -0.31326468184E+02 -0.42337506833E+03  0.44193838414E+03  0.12000000000E+03 0.  0.
         25    1    3    3    0    0 -0.26110137477E+02  0.31326468184E+02 -0.92773144645E+03  0.93634861223E+03  0.12000000000E+03 0.  0.
<mgrwt>
<rscale>  0 0.27237149E+03</rscale>
<asrwt>0</asrwt>
<pdfrwt beam="1">  1        2 0.20995333E+00 0.27237149E+03</pdfrwt>
<pdfrwt beam="2">  1       -2 0.20908065E-02 0.27237149E+03</pdfrwt>
<totfact> 0.11690147E+04</totfact>
</mgrwt>
</event>
<event>
 5    1  0.1107336E+001  0.2748440E+03  0.7818608E-02  0.1098539E+00
         -2   -1    0    0    0  501 -0.00000000000E+00  0.00000000000E+00  0.20052799190E+03  0.20052799190E+03  0.00000000000E+00 0.  1.
          2   -1    0    0  501    0  0.00000000000E+00 -0.00000000000E+00 -0.94175399241E+02  0.94175399241E+02  0.00000000000E+00 0.  1.
         35    2    1    2    0    0  0.00000000000E+00  0.00000000000E+00  0.10635259266E+03  0.29470339115E+03  0.27484398263E+03 0.  0.
         25    1    3    3    0    0  0.85126813620E+01 -0.51388412057E+02  0.98307606728E+02  0.16363868790E+03  0.12000000000E+03 0.  0.
         25    1    3    3    0    0 -0.85126813620E+01  0.51388412057E+02  0.80449859360E+01  0.13106470324E+03  0.12000000000E+03 0.  0.
<mgrwt>
<rscale>  0 0.27484398E+03</rscale>
<asrwt>0</asrwt>
<pdfrwt beam="1">  1        2 0.14488523E-01 0.27484398E+03</pdfrwt>
<pdfrwt beam="2">  1       -2 0.30850460E-01 0.27484398E+03</pdfrwt>
<totfact> 0.39252315E+03</totfact>
</mgrwt>
</event>
<event>
 5    1  0.1107336E+001  0.2748706E+03  0.7818608E-02  0.1098524E+00
          1   -1    0    0  501    0  0.00000000000E+00  0.00000000000E+00  0.17223341893E+04  0.17223341893E+04  0.00000000000E+00 0.  1.
         -1   -1    0    0    0  501 -0.00000000000E+00 -0.00000000000E+00 -0.10966778969E+02  0.10966778969E+02  0.00000000000E+00 0.  1.
         35    2    1    2    0    0  0.00000000000E+00  0.00000000000E+00  0.17113674103E+04  0.17333009682E+04  0.27487057584E+03 0.  0.
         25    1    3    3    0    0 -0.35710961248E+02 -0.11055590933E+02  0.12062679428E+04  0.12127983545E+04  0.12000000000E+03 0.  0.
         25    1    3    3    0    0  0.35710961248E+02  0.11055590933E+02  0.50509946755E+03  0.52050261379E+03  0.12000000000E+03 0.  0.
<mgrwt>
<rscale>  0 0.27487058E+03</rscale>
<asrwt>0</asrwt>
<pdfrwt beam="1">  1        1 0.26497428E+00 0.27487058E+03</pdfrwt>
<pdfrwt beam="2">  1       -1 0.16871981E-02 0.27487058E+03</pdfrwt>
<totfact> 0.44949339E+03</totfact>
</mgrwt>
</event>
<event>
 5    1  0.1107336E+001  0.2747206E+03  0.7818608E-02  0.1098608E+00
          2   -1    0    0  501    0  0.00000000000E+00  0.00000000000E+00  0.38739500406E+03  0.38739500406E+03  0.00000000000E+00 0.  1.
         -2   -1    0    0    0  501 -0.00000000000E+00 -0.00000000000E+00 -0.48704422735E+02  0.48704422735E+02  0.00000000000E+00 0.  1.
         35    2    1    2    0    0  0.00000000000E+00  0.00000000000E+00  0.33869058133E+03  0.43609942680E+03  0.27472058564E+03 0.  0.
         25    1    3    3    0    0 -0.50684668295E+02  0.12736477947E+02  0.10319126372E+03  0.16667210438E+03  0.12000000000E+03 0.  0.
         25    1    3    3    0    0  0.50684668295E+02 -0.12736477947E+02  0.23549931761E+03  0.26942732242E+03  0.12000000000E+03 0.  0.
<mgrwt>
<rscale>  0 0.27472059E+03</rscale>
<asrwt>0</asrwt>
<pdfrwt beam="1">  1        2 0.59599230E-01 0.27472059E+03</pdfrwt>
<pdfrwt beam="2">  1       -2 0.74929883E-02 0.27472059E+03</pdfrwt>
<totfact> 0.86053381E+03</totfact>
</mgrwt>
</event>
<event>
 5    1  0.1107336E+001  0.2813965E+03  0.7818608E-02  0.1094929E+00
         -2   -1    0    0    0  501 -0.00000000000E+00  0.00000000000E+00  0.21182490487E+02  0.21182490487E+02  0.00000000000E+00 0. -1.
          2   -1    0    0  501    0  0.00000000000E+00 -0.00000000000E+00 -0.93454531660E+03  0.93454531660E+03  0.00000000000E+00 0. -1.
         35    2    1    2    0    0  0.00000000000E+00  0.00000000000E+00 -0.91336282612E+03  0.95572780709E+03  0.28139649805E+03 0.  0.
         25    1    3    3    0    0 -0.71842309790E+02 -0.96223041787E+01 -0.41619596793E+03  0.43917307514E+03  0.12000000000E+03 0.  0.
         25    1    3    3    0    0  0.71842309790E+02  0.96223041787E+01 -0.49716685819E+03  0.51655473195E+03  0.12000000000E+03 0.  0.
<mgrwt>
<rscale>  0 0.28139650E+03</rscale>
<asrwt>0</asrwt>
<pdfrwt beam="1">  1        2 0.14377624E+00 0.28139650E+03</pdfrwt>
<pdfrwt beam="2">  1       -2 0.32588438E-02 0.28139650E+03</pdfrwt>
<totfact> 0.10780710E+04</totfact>
</mgrwt>
</event>
<event>
 5    1  0.1107336E+001  0.2729922E+03  0.7818608E-02  0.1099579E+00
         -2   -1    0    0    0  501 -0.00000000000E+00  0.00000000000E+00  0.91338370162E+01  0.91338370162E+01  0.00000000000E+00 0. -1.
          2   -1    0    0  501    0  0.00000000000E+00 -0.00000000000E+00 -0.20397989572E+04  0.20397989572E+04  0.00000000000E+00 0. -1.
         35    2    1    2    0    0  0.00000000000E+00  0.00000000000E+00 -0.20306651202E+04  0.20489327942E+04  0.27299224326E+03 0.  0.
         25    1    3    3    0    0  0.52612211245E+02  0.10158816582E+02 -0.12921146994E+04  0.12987808294E+04  0.12000000000E+03 0.  0.
         25    1    3    3    0    0 -0.52612211245E+02 -0.10158816582E+02 -0.73855042078E+03  0.75015196484E+03  0.12000000000E+03 0.  0.
<mgrwt>
<rscale>  0 0.27299224E+03</rscale>
<asrwt>0</asrwt>
<pdfrwt beam="1">  1        2 0.31381518E+00 0.27299224E+03</pdfrwt>
<pdfrwt beam="2">  1       -2 0.14052059E-02 0.27299224E+03</pdfrwt>
<totfact> 0.91886586E+03</totfact>
</mgrwt>
</event>
<event>
 5    1  0.1107336E+001  0.2747683E+03  0.7818608E-02  0.1098581E+00
          2   -1    0    0  501    0  0.00000000000E+00  0.00000000000E+00  0.19796406427E+02  0.19796406427E+02  0.00000000000E+00 0. -1.
         -2   -1    0    0    0  501 -0.00000000000E+00 -0.00000000000E+00 -0.95342590657E+03  0.95342590657E+03  0.00000000000E+00 0. -1.
         35    2    1    2    0    0  0.00000000000E+00  0.00000000000E+00 -0.93362950014E+03  0.97322231299E+03  0.27476831509E+03 0.  0.
         25    1    3    3    0    0 -0.29531943250E+02  0.58044843157E+02 -0.52088844386E+03  0.53848501413E+03  0.12000000000E+03 0.  0.
         25    1    3    3    0    0  0.29531943250E+02 -0.58044843157E+02 -0.41274105628E+03  0.43473729887E+03  0.12000000000E+03 0.  0.
<mgrwt>
<rscale>  0 0.27476832E+03</rscale>
<asrwt>0</asrwt>
<pdfrwt beam="1">  1        2 0.30456013E-02 0.27476832E+03</pdfrwt>
<pdfrwt beam="2">  1       -2 0.14668090E+00 0.27476832E+03</pdfrwt>
<totfact> 0.10312462E+03</totfact>
</mgrwt>
</event>
<event>
 5    1  0.1107336E+001  0.2742732E+03  0.7818608E-02  0.1098859E+00
          1   -1    0    0  501    0  0.00000000000E+00  0.00000000000E+00  0.26434581345E+04  0.26434581345E+04  0.00000000000E+00 0. -1.
         -1   -1    0    0    0  501 -0.00000000000E+00 -0.00000000000E+00 -0.71143353342E+01  0.71143353342E+01  0.00000000000E+00 0. -1.
         35    2    1    2    0    0  0.00000000000E+00  0.00000000000E+00  0.26363437991E+04  0.26505724698E+04  0.27427320402E+03 0.  0.
         25    1    3    3    0    0 -0.49703094528E+02  0.41054709283E+02  0.11651995595E+04  0.11731350733E+04  0.12000000000E+03 0.  0.
         25    1    3    3    0    0  0.49703094528E+02 -0.41054709283E+02  0.14711442396E+04  0.14774373965E+04  0.12000000000E+03 0.  0.
<mgrwt>
<rscale>  0 0.27427320E+03</rscale>
<asrwt>0</asrwt>
<pdfrwt beam="1">  1        1 0.40668508E+00 0.27427320E+03</pdfrwt>
<pdfrwt beam="2">  1       -1 0.10945152E-02 0.27427320E+03</pdfrwt>
<totfact> 0.20979184E+03</totfact>
</mgrwt>
</event>
<event>
 5    1  0.1107336E+001  0.2759912E+03  0.7818608E-02  0.1097899E+00
         -2   -1    0    0    0  501 -0.00000000000E+00  0.00000000000E+00  0.37940473942E+02  0.37940473942E+02  0.00000000000E+00 0.  1.
          2   -1    0    0  501    0  0.00000000000E+00 -0.00000000000E+00 -0.50191225592E+03  0.50191225592E+03  0.00000000000E+00 0.  1.
         35    2    1    2    0    0  0.00000000000E+00  0.00000000000E+00 -0.46397178198E+03  0.53985272986E+03  0.27599122353E+03 0.  0.
         25    1    3    3    0    0 -0.17061904709E+01 -0.25250308044E+02 -0.35573293526E+03  0.37627969700E+03  0.12000000000E+03 0.  0.
         25    1    3    3    0    0  0.17061904709E+01  0.25250308044E+02 -0.10823884672E+03  0.16357303287E+03  0.12000000000E+03 0.  0.
<mgrwt>
<rscale>  0 0.27599122E+03</rscale>
<asrwt>0</asrwt>
<pdfrwt beam="1">  1        2 0.77217276E-01 0.27599122E+03</pdfrwt>
<pdfrwt beam="2">  1       -2 0.58369955E-02 0.27599122E+03</pdfrwt>
<totfact> 0.95187628E+03</totfact>
</mgrwt>
</event>
<event>
 5    1  0.1107336E+001  0.2750843E+03  0.7818608E-02  0.1098404E+00
          4   -1    0    0  501    0  0.00000000000E+00  0.00000000000E+00  0.20388357082E+03  0.20388357082E+03  0.00000000000E+00 0. -1.
         -4   -1    0    0    0  501 -0.00000000000E+00 -0.00000000000E+00 -0.92787499949E+02  0.92787499949E+02  0.00000000000E+00 0. -1.
         35    2    1    2    0    0  0.00000000000E+00  0.00000000000E+00  0.11109607087E+03  0.29667107077E+03  0.27508432756E+03 0.  0.
         25    1    3    3    0    0  0.36667400530E+02  0.36740643780E+02  0.10160115958E+03  0.16558130569E+03  0.12000000000E+03 0.  0.
         25    1    3    3    0    0 -0.36667400530E+02 -0.36740643780E+02  0.94949112920E+01  0.13108976508E+03  0.12000000000E+03 0.  0.
<mgrwt>
<rscale>  0 0.27508433E+03</rscale>
<asrwt>0</asrwt>
<pdfrwt beam="1">  1        4 0.31366703E-01 0.27508433E+03</pdfrwt>
<pdfrwt beam="2">  1       -4 0.14275000E-01 0.27508433E+03</pdfrwt>
<totfact> 0.75295372E+02</totfact>
</mgrwt>
</event>
<event>
 5    1  0.1107336E+001  0.2753532E+03  0.7818608E-02  0.1098254E+00
          1   -1    0    0  501    0  0.00000000000E+00  0.00000000000E+00  0.67950257131E+03  0.67950257131E+03  0.00000000000E+00 0.  1.
         -1   -1    0    0    0  501 -0.00000000000E+00 -0.00000000000E+00 -0.27895186854E+02  0.27895186854E+02  0.00000000000E+00 0.  1.
         35    2    1    2    0    0  0.00000000000E+00  0.00000000000E+00  0.65160738445E+03  0.70739775816E+03  0.27535323637E+03 0.  0.
         25    1    3    3    0    0 -0.15672086094E+02 -0.30566373748E+02  0.47505086644E+03  0.49117536909E+03  0.12000000000E+03 0.  0.
         25    1    3    3    0    0  0.15672086094E+02  0.30566373748E+02  0.17655651801E+03  0.21622238908E+03  0.12000000000E+03 0.  0.
<mgrwt>
<rscale>  0 0.27535324E+03</rscale>
<asrwt>0</asrwt>
<pdfrwt beam="1">  1        1 0.10453884E+00 0.27535324E+03</pdfrwt>
<pdfrwt beam="2">  1       -1 0.42915677E-02 0.27535324E+03</pdfrwt>
<totfact> 0.64992318E+03</totfact>
</mgrwt>
</event>
<event>
 5    1  0.1107336E+001  0.2729754E+03  0.7818608E-02  0.1099589E+00
          2   -1    0    0  501    0  0.00000000000E+00  0.00000000000E+00  0.12915758794E+04  0.12915758794E+04  0.00000000000E+00 0.  1.
         -2   -1    0    0    0  501 -0.00000000000E+00 -0.00000000000E+00 -0.14423382737E+02  0.14423382737E+02  0.00000000000E+00 0.  1.
         35    2    1    2    0    0  0.00000000000E+00  0.00000000000E+00  0.12771524966E+04  0.13059992621E+04  0.27297540726E+03 0.  0.
         25    1    3    3    0    0 -0.20234289900E+02 -0.35767387886E+02  0.87970556018E+03  0.88880290568E+03  0.12000000000E+03 0.  0.
         25    1    3    3    0    0  0.20234289900E+02  0.35767387886E+02  0.39744693644E+03  0.41719635642E+03  0.12000000000E+03 0.  0.
<mgrwt>
<rscale>  0 0.27297541E+03</rscale>
<asrwt>0</asrwt>
<pdfrwt beam="1">  1        2 0.19870389E+00 0.27297541E+03</pdfrwt>
<pdfrwt beam="2">  1       -2 0.22189830E-02 0.27297541E+03</pdfrwt>
<totfact> 0.11749130E+04</totfact>
</mgrwt>
</event>
<event>
 5    1  0.1107336E+001  0.2748710E+03  0.7818608E-02  0.1098524E+00
          2   -1    0    0  501    0  0.00000000000E+00  0.00000000000E+00  0.14298870017E+04  0.14298870017E+04  0.00000000000E+00 0. -1.
         -2   -1    0    0    0  501 -0.00000000000E+00 -0.00000000000E+00 -0.13209795875E+02  0.13209795875E+02  0.00000000000E+00 0. -1.
         35    2    1    2    0    0  0.00000000000E+00  0.00000000000E+00  0.14166772058E+04  0.14430967975E+04  0.27487099095E+03 0.  0.
         25    1    3    3    0    0  0.19590585329E+02 -0.77306353902E+01  0.10422442465E+04  0.10493410424E+04  0.12000000000E+03 0.  0.
         25    1    3    3    0    0 -0.19590585329E+02  0.77306353902E+01  0.37443295924E+03  0.39375575516E+03  0.12000000000E+03 0.  0.
<mgrwt>
<rscale>  0 0.27487099E+03</rscale>
<asrwt>0</asrwt>
<pdfrwt beam="1">  1        2 0.21998249E+00 0.27487099E+03</pdfrwt>
<pdfrwt beam="2">  1       -2 0.20322774E-02 0.27487099E+03</pdfrwt>
<totfact> 0.11237099E+04</totfact>
</mgrwt>
</event>
<event>
 5    1  0.1107336E+001  0.2750645E+03  0.7818608E-02  0.1098416E+00
         -4   -1    0    0    0  501 -0.00000000000E+00  0.00000000000E+00  0.50057246930E+03  0.50057246930E+03  0.00000000000E+00 0.  1.
          4   -1    0    0  501    0  0.00000000000E+00 -0.00000000000E+00 -0.37786981207E+02  0.37786981207E+02  0.00000000000E+00 0.  1.
         35    2    1    2    0    0  0.00000000000E+00  0.00000000000E+00  0.46278548810E+03  0.53835945051E+03  0.27506451963E+03 0.  0.
         25    1    3    3    0    0  0.43105040682E+02  0.16771667262E+02  0.13599420751E+03  0.18717306919E+03  0.12000000000E+03 0.  0.
         25    1    3    3    0    0 -0.43105040682E+02 -0.16771667262E+02  0.32679128059E+03  0.35118638132E+03  0.12000000000E+03 0.  0.
<mgrwt>
<rscale>  0 0.27506452E+03</rscale>
<asrwt>0</asrwt>
<pdfrwt beam="1">  1        4 0.58133821E-02 0.27506452E+03</pdfrwt>
<pdfrwt beam="2">  1       -4 0.77011144E-01 0.27506452E+03</pdfrwt>
<totfact> 0.54136553E+02</totfact>
</mgrwt>
</event>
<event>
 5    1  0.1107336E+001  0.2754835E+03  0.7818608E-02  0.1098182E+00
         -1   -1    0    0    0  501 -0.00000000000E+00  0.00000000000E+00  0.66937055941E+01  0.66937055941E+01  0.00000000000E+00 0.  1.
          1   -1    0    0  501    0  0.00000000000E+00 -0.00000000000E+00 -0.28344228354E+04  0.28344228354E+04  0.00000000000E+00 0.  1.
         35    2    1    2    0    0  0.00000000000E+00  0.00000000000E+00 -0.28277291298E+04  0.28411165410E+04  0.27548351667E+03 0.  0.
         25    1    3    3    0    0 -0.60007817518E+02 -0.30528640312E+02 -0.14789734103E+04  0.14853603214E+04  0.12000000000E+03 0.  0.
         25    1    3    3    0    0  0.60007817518E+02  0.30528640312E+02 -0.13487557194E+04  0.13557562195E+04  0.12000000000E+03 0.  0.
<mgrwt>
<rscale>  0 0.27548352E+03</rscale>
<asrwt>0</asrwt>
<pdfrwt beam="1">  1        1 0.43606475E+00 0.27548352E+03</pdfrwt>
<pdfrwt beam="2">  1       -1 0.10298016E-02 0.27548352E+03</pdfrwt>
<totfact> 0.16993641E+03</totfact>
</mgrwt>
</event>
<event>
 5    1  0.1107336E+001  0.2745808E+03  0.7818608E-02  0.1098686E+00
         -3   -1    0    0    0  501 -0.00000000000E+00  0.00000000000E+00  0.34697703617E+02  0.34697703617E+02  0.00000000000E+00 0. -1.
          3   -1    0    0  501    0  0.00000000000E+00 -0.00000000000E+00 -0.54322489238E+03  0.54322489238E+03  0.00000000000E+00 0. -1.
         35    2    1    2    0    0  0.00000000000E+00  0.00000000000E+00 -0.50852718876E+03  0.57792259599E+03  0.27458081734E+03 0.  0.
         25    1    3    3    0    0  0.60838405033E+02  0.23481362777E+02 -0.22479939069E+03  0.26303507747E+03  0.12000000000E+03 0.  0.
         25    1    3    3    0    0 -0.60838405033E+02 -0.23481362777E+02 -0.28372779807E+03  0.31488751853E+03  0.12000000000E+03 0.  0.
<mgrwt>
<rscale>  0 0.27458082E+03</rscale>
<asrwt>0</asrwt>
<pdfrwt beam="1">  1        3 0.83573054E-01 0.27458082E+03</pdfrwt>
<pdfrwt beam="2">  1       -3 0.53381087E-02 0.27458082E+03</pdfrwt>
<totfact> 0.70720029E+02</totfact>
</mgrwt>
</event>
<event>
 5    1  0.1107336E+001  0.2781843E+03  0.7818608E-02  0.1096685E+00
         -2   -1    0    0    0  501 -0.00000000000E+00  0.00000000000E+00  0.78600191493E+01  0.78600191493E+01  0.00000000000E+00 0.  1.
          2   -1    0    0  501    0  0.00000000000E+00 -0.00000000000E+00 -0.24613960595E+04  0.24613960595E+04  0.00000000000E+00 0.  1.
         35    2    1    2    0    0  0.00000000000E+00  0.00000000000E+00 -0.24535360404E+04  0.24692560787E+04  0.27818425665E+03 0.  0.
         25    1    3    3    0    0 -0.23445458136E+02 -0.39257814326E+02 -0.17011126969E+04  0.17059528930E+04  0.12000000000E+03 0.  0.
         25    1    3    3    0    0  0.23445458136E+02  0.39257814326E+02 -0.75242334348E+03  0.76330318571E+03  0.12000000000E+03 0.  0.
<mgrwt>
<rscale>  0 0.27818426E+03</rscale>
<asrwt>0</asrwt>
<pdfrwt beam="1">  1        2 0.37867688E+00 0.27818426E+03</pdfrwt>
<pdfrwt beam="2">  1       -2 0.12092319E-02 0.27818426E+03</pdfrwt>
<totfact> 0.68070508E+03</totfact>
</mgrwt>
</event>
<event>
 5    1  0.1107336E+001  0.2747314E+03  0.7818608E-02  0.1098602E+00
         -2   -1    0    0    0  501 -0.00000000000E+00  0.00000000000E+00  0.43376429827E+02  0.43376429827E+02  0.00000000000E+00 0.  1.
          2   -1    0    0  501    0  0.00000000000E+00 -0.00000000000E+00 -0.43501353150E+03  0.43501353150E+03  0.00000000000E+00 0.  1.
         35    2    1    2    0    0  0.00000000000E+00  0.00000000000E+00 -0.39163710167E+03  0.47838996133E+03  0.27473138825E+03 0.  0.
         25    1    3    3    0    0 -0.58915915548E+02 -0.30818006127E+02 -0.20794522156E+03  0.24912255975E+03  0.12000000000E+03 0.  0.
         25    1    3    3    0    0  0.58915915548E+02  0.30818006127E+02 -0.18369188012E+03  0.22926740158E+03  0.12000000000E+03 0.  0.
<mgrwt>
<rscale>  0 0.27473139E+03</rscale>
<asrwt>0</asrwt>
<pdfrwt beam="1">  1        2 0.66925162E-01 0.27473139E+03</pdfrwt>
<pdfrwt beam="2">  1       -2 0.66732966E-02 0.27473139E+03</pdfrwt>
<totfact> 0.90753919E+03</totfact>
</mgrwt>
</event>
<event>
 5    1  0.1107336E+001  0.2758751E+03  0.7818608E-02  0.1097963E+00
          2   -1    0    0  501    0  0.00000000000E+00  0.00000000000E+00  0.53796194216E+03  0.53796194216E+03  0.00000000000E+00 0.  1.
         -2   -1    0    0    0  501 -0.00000000000E+00 -0.00000000000E+00 -0.35368237740E+02  0.35368237740E+02  0.00000000000E+00 0.  1.
         35    2    1    2    0    0  0.00000000000E+00  0.00000000000E+00  0.50259370442E+03  0.57333017990E+03  0.27587508670E+03 0.  0.
         25    1    3    3    0    0 -0.42007450338E+02  0.47213005206E+02  0.19900681931E+03  0.24082650992E+03  0.12000000000E+03 0.  0.
         25    1    3    3    0    0  0.42007450338E+02 -0.47213005206E+02  0.30358688511E+03  0.33250366998E+03  0.12000000000E+03 0.  0.
<mgrwt>
<rscale>  0 0.27587509E+03</rscale>
<asrwt>0</asrwt>
<pdfrwt beam="1">  1        2 0.82763370E-01 0.27587509E+03</pdfrwt>
<pdfrwt beam="2">  1       -2 0.54412677E-02 0.27587509E+03</pdfrwt>
<totfact> 0.98005721E+03</totfact>
</mgrwt>
</event>
<event>
 5    1  0.1107336E+001  0.2746427E+03  0.7818608E-02  0.1098651E+00
          2   -1    0    0  501    0  0.00000000000E+00  0.00000000000E+00  0.29053618518E+03  0.29053618518E+03  0.00000000000E+00 0.  1.
         -2   -1    0    0    0  501 -0.00000000000E+00 -0.00000000000E+00 -0.64904667048E+02  0.64904667048E+02  0.00000000000E+00 0.  1.
         35    2    1    2    0    0  0.00000000000E+00  0.00000000000E+00  0.22563151813E+03  0.35544085223E+03  0.27464270873E+03 0.  0.
         25    1    3    3    0    0 -0.13965471110E+02  0.30823666972E+02  0.18729681820E+03  0.22500051319E+03  0.12000000000E+03 0.  0.
         25    1    3    3    0    0  0.13965471110E+02 -0.30823666972E+02  0.38334699934E+02  0.13044033904E+03  0.12000000000E+03 0.  0.
<mgrwt>
<rscale>  0 0.27464271E+03</rscale>
<asrwt>0</asrwt>
<pdfrwt beam="1">  1        2 0.44697874E-01 0.27464271E+03</pdfrwt>
<pdfrwt beam="2">  1       -2 0.99853335E-02 0.27464271E+03</pdfrwt>
<totfact> 0.74734436E+03</totfact>
</mgrwt>
</event>
<event>
 5    1  0.1107336E+001  0.2743889E+03  0.7818608E-02  0.1098794E+00
         -1   -1    0    0    0  501 -0.00000000000E+00  0.00000000000E+00  0.12725787788E+02  0.12725787788E+02  0.00000000000E+00 0.  1.
          1   -1    0    0  501    0  0.00000000000E+00 -0.00000000000E+00 -0.14790692357E+04  0.14790692357E+04  0.00000000000E+00 0.  1.
         35    2    1    2    0    0  0.00000000000E+00  0.00000000000E+00 -0.14663434479E+04  0.14917950235E+04  0.27438892993E+03 0.  0.
         25    1    3    3    0    0  0.46912959049E+02  0.52176110721E+01 -0.47849585233E+03  0.49556667552E+03  0.12000000000E+03 0.  0.
         25    1    3    3    0    0 -0.46912959049E+02 -0.52176110721E+01 -0.98784759560E+03  0.99622834799E+03  0.12000000000E+03 0.  0.
<mgrwt>
<rscale>  0 0.27438893E+03</rscale>
<asrwt>0</asrwt>
<pdfrwt beam="1">  1        1 0.22754889E+00 0.27438893E+03</pdfrwt>
<pdfrwt beam="2">  1       -1 0.19578154E-02 0.27438893E+03</pdfrwt>
<totfact> 0.52272428E+03</totfact>
</mgrwt>
</event>
<event>
 5    1  0.1107336E+001  0.2739739E+03  0.7818608E-02  0.1099027E+00
         -1   -1    0    0    0  501 -0.00000000000E+00  0.00000000000E+00  0.20371966911E+03  0.20371966911E+03  0.00000000000E+00 0. -1.
          1   -1    0    0  501    0  0.00000000000E+00 -0.00000000000E+00 -0.92113947143E+02  0.92113947143E+02  0.00000000000E+00 0. -1.
         35    2    1    2    0    0  0.00000000000E+00  0.00000000000E+00  0.11160572197E+03  0.29583361626E+03  0.27397388804E+03 0.  0.
         25    1    3    3    0    0  0.49691142970E+02 -0.43160582805E+02  0.49564600196E+02  0.14556337173E+03  0.12000000000E+03 0.  0.
         25    1    3    3    0    0 -0.49691142970E+02  0.43160582805E+02  0.62041121775E+02  0.15027024452E+03  0.12000000000E+03 0.  0.
<mgrwt>
<rscale>  0 0.27397389E+03</rscale>
<asrwt>0</asrwt>
<pdfrwt beam="1">  1        1 0.14171377E-01 0.27397389E+03</pdfrwt>
<pdfrwt beam="2">  1       -1 0.31341487E-01 0.27397389E+03</pdfrwt>
<totfact> 0.37868082E+03</totfact>
</mgrwt>
</event>
<event>
 5    1  0.1107336E+001  0.2752315E+03  0.7818608E-02  0.1098322E+00
         -1   -1    0    0    0  501 -0.00000000000E+00  0.00000000000E+00  0.10924765782E+02  0.10924765782E+02  0.00000000000E+00 0. -1.
          1   -1    0    0  501    0  0.00000000000E+00 -0.00000000000E+00 -0.17335011880E+04  0.17335011880E+04  0.00000000000E+00 0. -1.
         35    2    1    2    0    0  0.00000000000E+00  0.00000000000E+00 -0.17225764222E+04  0.17444259538E+04  0.27523149864E+03 0.  0.
         25    1    3    3    0    0 -0.33199403008E+02 -0.56895913295E+02 -0.77193564148E+03  0.78397957875E+03  0.12000000000E+03 0.  0.
         25    1    3    3    0    0  0.33199403008E+02  0.56895913295E+02 -0.95064078073E+03  0.96044637503E+03  0.12000000000E+03 0.  0.
<mgrwt>
<rscale>  0 0.27523150E+03</rscale>
<asrwt>0</asrwt>
<pdfrwt beam="1">  1        1 0.26669263E+00 0.27523150E+03</pdfrwt>
<pdfrwt beam="2">  1       -1 0.16807323E-02 0.27523150E+03</pdfrwt>
<totfact> 0.44450582E+03</totfact>
</mgrwt>
</event>
<event>
 5    1  0.1107336E+001  0.2740331E+03  0.7818608E-02  0.1098993E+00
         -1   -1    0    0    0  501 -0.00000000000E+00  0.00000000000E+00  0.15056114819E+04  0.15056114819E+04  0.00000000000E+00 0. -1.
          1   -1    0    0  501    0  0.00000000000E+00 -0.00000000000E+00 -0.12469044536E+02  0.12469044536E+02  0.00000000000E+00 0. -1.
         35    2    1    2    0    0  0.00000000000E+00  0.00000000000E+00  0.14931424374E+04  0.15180805264E+04  0.27403311202E+03 0.  0.
         25    1    3    3    0    0  0.45287930213E+02 -0.34883925425E+02  0.56236641800E+03  0.57786146521E+03  0.12000000000E+03 0.  0.
         25    1    3    3    0    0 -0.45287930213E+02  0.34883925425E+02  0.93077601936E+03  0.94021906123E+03  0.12000000000E+03 0.  0.
<mgrwt>
<rscale>  0 0.27403311E+03</rscale>
<asrwt>0</asrwt>
<pdfrwt beam="1">  1        1 0.19183157E-02 0.27403311E+03</pdfrwt>
<pdfrwt beam="2">  1       -1 0.23163239E+00 0.27403311E+03</pdfrwt>
<totfact> 0.66601503E+02</totfact>
</mgrwt>
</event>
<event>
 5    1  0.1107336E+001  0.2749712E+03  0.7818608E-02  0.1098468E+00
          2   -1    0    0  501    0  0.00000000000E+00  0.00000000000E+00  0.77618181682E+03  0.77618181682E+03  0.00000000000E+00 0. -1.
         -2   -1    0    0    0  501 -0.00000000000E+00 -0.00000000000E+00 -0.24352911755E+02  0.24352911755E+02  0.00000000000E+00 0. -1.
         35    2    1    2    0    0  0.00000000000E+00  0.00000000000E+00  0.75182890507E+03  0.80053472858E+03  0.27497117879E+03 0.  0.
         25    1    3    3    0    0  0.55656742971E+02  0.18009706303E+02  0.47160258980E+03  0.49013368101E+03  0.12000000000E+03 0.  0.
         25    1    3    3    0    0 -0.55656742971E+02 -0.18009706303E+02  0.28022631527E+03  0.31040104756E+03  0.12000000000E+03 0.  0.
<mgrwt>
<rscale>  0 0.27497118E+03</rscale>
<asrwt>0</asrwt>
<pdfrwt beam="1">  1        2 0.11941257E+00 0.27497118E+03</pdfrwt>
<pdfrwt beam="2">  1       -2 0.37466024E-02 0.27497118E+03</pdfrwt>
<totfact> 0.11146598E+04</totfact>
</mgrwt>
</event>
<event>
 5    1  0.1107336E+001  0.2747517E+03  0.7818608E-02  0.1098590E+00
         -1   -1    0    0    0  501 -0.00000000000E+00  0.00000000000E+00  0.14972017287E+02  0.14972017287E+02  0.00000000000E+00 0. -1.
          1   -1    0    0  501    0  0.00000000000E+00 -0.00000000000E+00 -0.12604928191E+04  0.12604928191E+04  0.00000000000E+00 0. -1.
         35    2    1    2    0    0  0.00000000000E+00  0.00000000000E+00 -0.12455208018E+04  0.12754648364E+04  0.27475167172E+03 0.  0.
         25    1    3    3    0    0 -0.41896626295E+02 -0.51249860164E+02 -0.66686047083E+03  0.68079715262E+03  0.12000000000E+03 0.  0.
         25    1    3    3    0    0  0.41896626295E+02  0.51249860164E+02 -0.57866033098E+03  0.59466768376E+03  0.12000000000E+03 0.  0.
<mgrwt>
<rscale>  0 0.27475167E+03</rscale>
<asrwt>0</asrwt>
<pdfrwt beam="1">  1        1 0.19392199E+00 0.27475167E+03</pdfrwt>
<pdfrwt beam="2">  1       -1 0.23033871E-02 0.27475167E+03</pdfrwt>
<totfact> 0.57890275E+03</totfact>
</mgrwt>
</event>
<event>
 5    1  0.1107336E+001  0.2760547E+03  0.7818608E-02  0.1097864E+00
          1   -1    0    0  501    0  0.00000000000E+00  0.00000000000E+00  0.22143043860E+04  0.22143043860E+04  0.00000000000E+00 0.  1.
         -1   -1    0    0    0  501 -0.00000000000E+00 -0.00000000000E+00 -0.86038517319E+01  0.86038517319E+01  0.00000000000E+00 0.  1.
         35    2    1    2    0    0  0.00000000000E+00  0.00000000000E+00  0.22057005342E+04  0.22229082377E+04  0.27605468028E+03 0.  0.
         25    1    3    3    0    0 -0.40174593301E+02  0.51377982885E+02  0.12634655807E+04  0.12708260969E+04  0.12000000000E+03 0.  0.
         25    1    3    3    0    0  0.40174593301E+02 -0.51377982885E+02  0.94223495356E+03  0.95208214078E+03  0.12000000000E+03 0.  0.
<mgrwt>
<rscale>  0 0.27605468E+03</rscale>
<asrwt>0</asrwt>
<pdfrwt beam="1">  1        1 0.34066176E+00 0.27605468E+03</pdfrwt>
<pdfrwt beam="2">  1       -1 0.13236713E-02 0.27605468E+03</pdfrwt>
<totfact> 0.30630971E+03</totfact>
</mgrwt>
</event>
<event>
 5    1  0.1107336E+001  0.2752323E+03  0.7818608E-02  0.1098322E+00
         -2   -1    0    0    0  501 -0.00000000000E+00  0.00000000000E+00  0.23019664142E+03  0.23019664142E+03  0.00000000000E+00 0. -1.
          2   -1    0    0  501    0  0.00000000000E+00 -0.00000000000E+00 -0.82269664959E+02  0.82269664959E+02  0.00000000000E+00 0. -1.
         35    2    1    2    0    0  0.00000000000E+00  0.00000000000E+00  0.14792697646E+03  0.31246630638E+03  0.27523226965E+03 0.  0.
         25    1    3    3    0    0 -0.29431714584E+02 -0.44066123675E+02  0.12118565462E+03  0.17858894693E+03  0.12000000000E+03 0.  0.
         25    1    3    3    0    0  0.29431714584E+02  0.44066123675E+02  0.26741321838E+02  0.13387735945E+03  0.12000000000E+03 0.  0.
<mgrwt>
<rscale>  0 0.27523227E+03</rscale>
<asrwt>0</asrwt>
<pdfrwt beam="1">  1        2 0.12656872E-01 0.27523227E+03</pdfrwt>
<pdfrwt beam="2">  1       -2 0.35414868E-01 0.27523227E+03</pdfrwt>
<totfact> 0.35784937E+03</totfact>
</mgrwt>
</event>
<event>
 5    1  0.1107336E+001  0.2747691E+03  0.7818608E-02  0.1098581E+00
          2   -1    0    0  501    0  0.00000000000E+00  0.00000000000E+00  0.24208149132E+04  0.24208149132E+04  0.00000000000E+00 0. -1.
         -2   -1    0    0    0  501 -0.00000000000E+00 -0.00000000000E+00 -0.77967627578E+01  0.77967627578E+01  0.00000000000E+00 0. -1.
         35    2    1    2    0    0  0.00000000000E+00  0.00000000000E+00  0.24130181504E+04  0.24286116760E+04  0.27476913625E+03 0.  0.
         25    1    3    3    0    0 -0.60502162344E+02 -0.17559350532E+02  0.10077500850E+04  0.10168230309E+04  0.12000000000E+03 0.  0.
         25    1    3    3    0    0  0.60502162344E+02  0.17559350532E+02  0.14052680655E+04  0.14117886450E+04  0.12000000000E+03 0.  0.
<mgrwt>
<rscale>  0 0.27476914E+03</rscale>
<asrwt>0</asrwt>
<pdfrwt beam="1">  1        2 0.37243247E+00 0.27476914E+03</pdfrwt>
<pdfrwt beam="2">  1       -2 0.11995039E-02 0.27476914E+03</pdfrwt>
<totfact> 0.72474764E+03</totfact>
</mgrwt>
</event>
<event>
 4    1  0.1107336E+001  0.2955460E+03  0.7818608E-02  0.1087489E+00
          2   -1    0    0  501    0  0.00000000000E+00  0.00000000000E+00  0.19090343199E+04  0.19090343199E+04  0.00000000000E+00 0. -1.
         -2   -1    0    0    0  501 -0.00000000000E+00 -0.00000000000E+00 -0.11438690551E+02  0.11438690551E+02  0.00000000000E+00 0. -1.
         25    1    1    2    0    0  0.17505831948E+02  0.67155784414E+02  0.61615724696E+03  0.63155847434E+03  0.12000000000E+03 0.  0.
         25    1    1    2    0    0 -0.17505831948E+02 -0.67155784414E+02  0.12814383824E+04  0.12889145361E+04  0.12000000000E+03 0.  0.
<mgrwt>
<rscale>  0 0.29554595E+03</rscale>
<asrwt>0</asrwt>
<pdfrwt beam="1">  1        2 0.29369733E+00 0.29554595E+03</pdfrwt>
<pdfrwt beam="2">  1       -2 0.17598001E-02 0.29554595E+03</pdfrwt>
<totfact> 0.77472059E+03</totfact>
</mgrwt>
</event>
<event>
 5    1  0.1107336E+001  0.2748974E+03  0.7818608E-02  0.1098509E+00
          1   -1    0    0  501    0  0.00000000000E+00  0.00000000000E+00  0.41091868333E+02  0.41091868333E+02  0.00000000000E+00 0. -1.
         -1   -1    0    0    0  501 -0.00000000000E+00 -0.00000000000E+00 -0.45975370687E+03  0.45975370687E+03  0.00000000000E+00 0. -1.
         35    2    1    2    0    0  0.00000000000E+00  0.00000000000E+00 -0.41866183854E+03  0.50084557520E+03  0.27489735385E+03 0.  0.
         25    1    3    3    0    0  0.21641689512E+02  0.42644956786E+02 -0.12377389499E+03  0.17890481309E+03  0.12000000000E+03 0.  0.
         25    1    3    3    0    0 -0.21641689512E+02 -0.42644956786E+02 -0.29488794354E+03  0.32194076212E+03  0.12000000000E+03 0.  0.
<mgrwt>
<rscale>  0 0.27489735E+03</rscale>
<asrwt>0</asrwt>
<pdfrwt beam="1">  1        1 0.63218256E-02 0.27489735E+03</pdfrwt>
<pdfrwt beam="2">  1       -1 0.70731343E-01 0.27489735E+03</pdfrwt>
<totfact> 0.25179189E+03</totfact>
</mgrwt>
</event>
<event>
 5    1  0.1107336E+001  0.2751389E+03  0.7818608E-02  0.1098374E+00
         -1   -1    0    0    0  501 -0.00000000000E+00  0.00000000000E+00  0.42251194076E+02  0.42251194076E+02  0.00000000000E+00 0. -1.
          1   -1    0    0  501    0  0.00000000000E+00 -0.00000000000E+00 -0.44792475545E+03  0.44792475545E+03  0.00000000000E+00 0. -1.
         35    2    1    2    0    0  0.00000000000E+00  0.00000000000E+00 -0.40567356137E+03  0.49017594952E+03  0.27513891599E+03 0.  0.
         25    1    3    3    0    0  0.40004488668E+02 -0.34572934198E+02 -0.27693136818E+03  0.30640925178E+03  0.12000000000E+03 0.  0.
         25    1    3    3    0    0 -0.40004488668E+02  0.34572934198E+02 -0.12874219319E+03  0.18376669775E+03  0.12000000000E+03 0.  0.
<mgrwt>
<rscale>  0 0.27513892E+03</rscale>
<asrwt>0</asrwt>
<pdfrwt beam="1">  1        1 0.68911499E-01 0.27513892E+03</pdfrwt>
<pdfrwt beam="2">  1       -1 0.65001839E-02 0.27513892E+03</pdfrwt>
<totfact> 0.61502866E+03</totfact>
</mgrwt>
</event>
<event>
 5    1  0.1107336E+001  0.2753967E+03  0.7818608E-02  0.1098230E+00
         -2   -1    0    0    0  501 -0.00000000000E+00  0.00000000000E+00  0.22371404356E+02  0.22371404356E+02  0.00000000000E+00 0.  1.
          2   -1    0    0  501    0  0.00000000000E+00 -0.00000000000E+00 -0.84754806060E+03  0.84754806060E+03  0.00000000000E+00 0.  1.
         35    2    1    2    0    0  0.00000000000E+00  0.00000000000E+00 -0.82517665624E+03  0.86991946495E+03  0.27539673473E+03 0.  0.
         25    1    3    3    0    0  0.55592834565E+02  0.36886819327E+02 -0.37951300160E+03  0.40358557838E+03  0.12000000000E+03 0.  0.
         25    1    3    3    0    0 -0.55592834565E+02 -0.36886819327E+02 -0.44566365464E+03  0.46633388657E+03  0.12000000000E+03 0.  0.
<mgrwt>
<rscale>  0 0.27539673E+03</rscale>
<asrwt>0</asrwt>
<pdfrwt beam="1">  1        2 0.13039203E+00 0.27539673E+03</pdfrwt>
<pdfrwt beam="2">  1       -2 0.34417539E-02 0.27539673E+03</pdfrwt>
<totfact> 0.11310077E+04</totfact>
</mgrwt>
</event>
<event>
 5    1  0.1107336E+001  0.2755127E+03  0.7818608E-02  0.1098165E+00
         -2   -1    0    0    0  501 -0.00000000000E+00  0.00000000000E+00  0.43154819694E+02  0.43154819694E+02  0.00000000000E+00 0.  1.
          2   -1    0    0  501    0  0.00000000000E+00 -0.00000000000E+00 -0.43973779437E+03  0.43973779437E+03  0.00000000000E+00 0.  1.
         35    2    1    2    0    0  0.00000000000E+00  0.00000000000E+00 -0.39658297468E+03  0.48289261407E+03  0.27551265110E+03 0.  0.
         25    1    3    3    0    0  0.66470407472E+02 -0.10491198454E+02 -0.21048821838E+03  0.25146305970E+03  0.12000000000E+03 0.  0.
         25    1    3    3    0    0 -0.66470407472E+02  0.10491198454E+02 -0.18609475629E+03  0.23142955437E+03  0.12000000000E+03 0.  0.
<mgrwt>
<rscale>  0 0.27551265E+03</rscale>
<asrwt>0</asrwt>
<pdfrwt beam="1">  1        2 0.67651966E-01 0.27551265E+03</pdfrwt>
<pdfrwt beam="2">  1       -2 0.66392032E-02 0.27551265E+03</pdfrwt>
<totfact> 0.90406624E+03</totfact>
</mgrwt>
</event>
<event>
 5    1  0.1107336E+001  0.2748932E+03  0.7818608E-02  0.1098511E+00
         -1   -1    0    0    0  501 -0.00000000000E+00  0.00000000000E+00  0.23831387935E+02  0.23831387935E+02  0.00000000000E+00 0. -1.
          1   -1    0    0  501    0  0.00000000000E+00 -0.00000000000E+00 -0.79271791345E+03  0.79271791345E+03  0.00000000000E+00 0. -1.
         35    2    1    2    0    0  0.00000000000E+00  0.00000000000E+00 -0.76888652552E+03  0.81654930139E+03  0.27489320194E+03 0.  0.
         25    1    3    3    0    0 -0.22905777924E+02  0.70558078492E+01 -0.57035261673E+03  0.58333229509E+03  0.12000000000E+03 0.  0.
         25    1    3    3    0    0  0.22905777924E+02 -0.70558078492E+01 -0.19853390879E+03  0.23321700630E+03  0.12000000000E+03 0.  0.
<mgrwt>
<rscale>  0 0.27489320E+03</rscale>
<asrwt>0</asrwt>
<pdfrwt beam="1">  1        1 0.12195659E+00 0.27489320E+03</pdfrwt>
<pdfrwt beam="2">  1       -1 0.36663676E-02 0.27489320E+03</pdfrwt>
<totfact> 0.65315418E+03</totfact>
</mgrwt>
</event>
<event>
 5    1  0.1107336E+001  0.2811642E+03  0.7818608E-02  0.1095055E+00
         -2   -1    0    0    0  501 -0.00000000000E+00  0.00000000000E+00  0.10933440318E+02  0.10933440318E+02  0.00000000000E+00 0.  1.
          2   -1    0    0  501    0  0.00000000000E+00 -0.00000000000E+00 -0.18076042668E+04  0.18076042668E+04  0.00000000000E+00 0.  1.
         35    2    1    2    0    0  0.00000000000E+00  0.00000000000E+00 -0.17966708265E+04  0.18185377071E+04  0.28116424645E+03 0.  0.
         25    1    3    3    0    0  0.56836050175E+02  0.46170637331E+02 -0.90562153414E+03  0.91646736300E+03  0.12000000000E+03 0.  0.
         25    1    3    3    0    0 -0.56836050175E+02 -0.46170637331E+02 -0.89104929236E+03  0.90207034414E+03  0.12000000000E+03 0.  0.
<mgrwt>
<rscale>  0 0.28116425E+03</rscale>
<asrwt>0</asrwt>
<pdfrwt beam="1">  1        2 0.27809307E+00 0.28116425E+03</pdfrwt>
<pdfrwt beam="2">  1       -2 0.16820671E-02 0.28116425E+03</pdfrwt>
<totfact> 0.93559173E+03</totfact>
</mgrwt>
</event>
<event>
 5    1  0.1107336E+001  0.2747957E+03  0.7818608E-02  0.1098566E+00
          4   -1    0    0  501    0  0.00000000000E+00  0.00000000000E+00  0.60652118621E+02  0.60652118621E+02  0.00000000000E+00 0. -1.
         -4   -1    0    0    0  501 -0.00000000000E+00 -0.00000000000E+00 -0.31125315307E+03  0.31125315307E+03  0.00000000000E+00 0. -1.
         35    2    1    2    0    0  0.00000000000E+00  0.00000000000E+00 -0.25060103445E+03  0.37190527169E+03  0.27479565616E+03 0.  0.
         25    1    3    3    0    0 -0.53035214704E+02  0.36351864913E+02 -0.10019995578E+03  0.16903911742E+03  0.12000000000E+03 0.  0.
         25    1    3    3    0    0  0.53035214704E+02 -0.36351864913E+02 -0.15040107867E+03  0.20286615427E+03  0.12000000000E+03 0.  0.
<mgrwt>
<rscale>  0 0.27479566E+03</rscale>
<asrwt>0</asrwt>
<pdfrwt beam="1">  1        4 0.93310953E-02 0.27479566E+03</pdfrwt>
<pdfrwt beam="2">  1       -4 0.47885100E-01 0.27479566E+03</pdfrwt>
<totfact> 0.67749678E+02</totfact>
</mgrwt>
</event>
<event>
 5    1  0.1107336E+001  0.2737595E+03  0.7818608E-02  0.1099147E+00
          2   -1    0    0  501    0  0.00000000000E+00  0.00000000000E+00  0.19755342440E+03  0.19755342440E+03  0.00000000000E+00 0.  1.
         -2   -1    0    0    0  501 -0.00000000000E+00 -0.00000000000E+00 -0.94840528992E+02  0.94840528992E+02  0.00000000000E+00 0.  1.
         35    2    1    2    0    0  0.00000000000E+00  0.00000000000E+00  0.10271289541E+03  0.29239395339E+03  0.27375953882E+03 0.  0.
         25    1    3    3    0    0  0.10894002155E+02 -0.55118598447E+02  0.88035422295E+02  0.15908166065E+03  0.12000000000E+03 0.  0.
         25    1    3    3    0    0 -0.10894002155E+02  0.55118598447E+02  0.14677473110E+02  0.13331229274E+03  0.12000000000E+03 0.  0.
<mgrwt>
<rscale>  0 0.27375954E+03</rscale>
<asrwt>0</asrwt>
<pdfrwt beam="1">  1        2 0.30392834E-01 0.27375954E+03</pdfrwt>
<pdfrwt beam="2">  1       -2 0.14590851E-01 0.27375954E+03</pdfrwt>
<totfact> 0.61476174E+03</totfact>
</mgrwt>
</event>
<event>
 5    1  0.1107336E+001  0.2746434E+03  0.7818608E-02  0.1098651E+00
         -3   -1    0    0    0  501 -0.00000000000E+00  0.00000000000E+00  0.58707682206E+03  0.58707682206E+03  0.00000000000E+00 0.  1.
          3   -1    0    0  501    0  0.00000000000E+00 -0.00000000000E+00 -0.32120588253E+02  0.32120588253E+02  0.00000000000E+00 0.  1.
         35    2    1    2    0    0  0.00000000000E+00  0.00000000000E+00  0.55495623381E+03  0.61919741031E+03  0.27464342609E+03 0.  0.
         25    1    3    3    0    0  0.18030653218E+02 -0.11701114953E+02  0.13497284119E+03  0.18187822411E+03  0.12000000000E+03 0.  0.
         25    1    3    3    0    0 -0.18030653218E+02  0.11701114953E+02  0.41998339261E+03  0.43731918620E+03  0.12000000000E+03 0.  0.
<mgrwt>
<rscale>  0 0.27464343E+03</rscale>
<asrwt>0</asrwt>
<pdfrwt beam="1">  1        3 0.49416294E-02 0.27464343E+03</pdfrwt>
<pdfrwt beam="2">  1       -3 0.90319503E-01 0.27464343E+03</pdfrwt>
<totfact> 0.67194408E+02</totfact>
</mgrwt>
</event>
<event>
 5    1  0.1107336E+001  0.2747068E+03  0.7818608E-02  0.1098616E+00
          4   -1    0    0  501    0  0.00000000000E+00  0.00000000000E+00  0.13371066896E+04  0.13371066896E+04  0.00000000000E+00 0.  1.
         -4   -1    0    0    0  501 -0.00000000000E+00 -0.00000000000E+00 -0.14109535402E+02  0.14109535402E+02  0.00000000000E+00 0.  1.
         35    2    1    2    0    0  0.00000000000E+00  0.00000000000E+00  0.13229971542E+04  0.13512162250E+04  0.27470678312E+03 0.  0.
         25    1    3    3    0    0 -0.33622313887E+02  0.12519455421E+02  0.38417668059E+03  0.40407786213E+03  0.12000000000E+03 0.  0.
         25    1    3    3    0    0  0.33622313887E+02 -0.12519455421E+02  0.93882047362E+03  0.94713836288E+03  0.12000000000E+03 0.  0.
<mgrwt>
<rscale>  0 0.27470678E+03</rscale>
<asrwt>0</asrwt>
<pdfrwt beam="1">  1        4 0.20570862E+00 0.27470678E+03</pdfrwt>
<pdfrwt beam="2">  1       -4 0.21706988E-02 0.27470678E+03</pdfrwt>
<totfact> 0.22177064E+02</totfact>
</mgrwt>
</event>
<event>
 5    1  0.1107336E+001  0.2753562E+03  0.7818608E-02  0.1098253E+00
          1   -1    0    0  501    0  0.00000000000E+00  0.00000000000E+00  0.18196843413E+03  0.18196843413E+03  0.00000000000E+00 0. -1.
         -1   -1    0    0    0  501 -0.00000000000E+00 -0.00000000000E+00 -0.10416784957E+03  0.10416784957E+03  0.00000000000E+00 0. -1.
         35    2    1    2    0    0  0.00000000000E+00  0.00000000000E+00  0.77800584553E+02  0.28613628370E+03  0.27535620910E+03 0.  0.
         25    1    3    3    0    0  0.20201072900E+02 -0.50299394314E+02  0.80688423532E+02  0.15443035358E+03  0.12000000000E+03 0.  0.
         25    1    3    3    0    0 -0.20201072900E+02  0.50299394314E+02 -0.28878389789E+01  0.13170593012E+03  0.12000000000E+03 0.  0.
<mgrwt>
<rscale>  0 0.27535621E+03</rscale>
<asrwt>0</asrwt>
<pdfrwt beam="1">  1        1 0.27995144E-01 0.27535621E+03</pdfrwt>
<pdfrwt beam="2">  1       -1 0.16025823E-01 0.27535621E+03</pdfrwt>
<totfact> 0.47503416E+03</totfact>
</mgrwt>
</event>
<event>
 5    1  0.1107336E+001  0.2746521E+03  0.7818608E-02  0.1098646E+00
          2   -1    0    0  501    0  0.00000000000E+00  0.00000000000E+00  0.12499751167E+04  0.12499751167E+04  0.00000000000E+00 0.  1.
         -2   -1    0    0    0  501 -0.00000000000E+00 -0.00000000000E+00 -0.15087060891E+02  0.15087060891E+02  0.00000000000E+00 0.  1.
         35    2    1    2    0    0  0.00000000000E+00  0.00000000000E+00  0.12348880559E+04  0.12650621776E+04  0.27465214872E+03 0.  0.
         25    1    3    3    0    0 -0.26846283024E+02  0.26058714686E+02  0.87218292591E+03  0.88119398305E+03  0.12000000000E+03 0.  0.
         25    1    3    3    0    0  0.26846283024E+02 -0.26058714686E+02  0.36270512995E+03  0.38386819458E+03  0.12000000000E+03 0.  0.
<mgrwt>
<rscale>  0 0.27465215E+03</rscale>
<asrwt>0</asrwt>
<pdfrwt beam="1">  1        2 0.19230378E+00 0.27465215E+03</pdfrwt>
<pdfrwt beam="2">  1       -2 0.23210873E-02 0.27465215E+03</pdfrwt>
<totfact> 0.11599390E+04</totfact>
</mgrwt>
</event>
<event>
 5    1  0.1107336E+001  0.2749188E+03  0.7818608E-02  0.1098497E+00
         -2   -1    0    0    0  501 -0.00000000000E+00  0.00000000000E+00  0.45605853343E+02  0.45605853343E+02  0.00000000000E+00 0.  1.
          2   -1    0    0  501    0  0.00000000000E+00 -0.00000000000E+00 -0.41431268651E+03  0.41431268651E+03  0.00000000000E+00 0.  1.
         35    2    1    2    0    0  0.00000000000E+00  0.00000000000E+00 -0.36870683317E+03  0.45991853986E+03  0.27491877797E+03 0.  0.
         25    1    3    3    0    0  0.64157218132E+02  0.16337573108E+02 -0.16664736402E+03  0.21576470719E+03  0.12000000000E+03 0.  0.
         25    1    3    3    0    0 -0.64157218132E+02 -0.16337573108E+02 -0.20205946915E+03  0.24415383267E+03  0.12000000000E+03 0.  0.
<mgrwt>
<rscale>  0 0.27491878E+03</rscale>
<asrwt>0</asrwt>
<pdfrwt beam="1">  1        2 0.63740415E-01 0.27491878E+03</pdfrwt>
<pdfrwt beam="2">  1       -2 0.70162850E-02 0.27491878E+03</pdfrwt>
<totfact> 0.88586970E+03</totfact>
</mgrwt>
</event>
<event>
 5    1  0.1107336E+001  0.2756115E+03  0.7818608E-02  0.1098110E+00
          1   -1    0    0  501    0  0.00000000000E+00  0.00000000000E+00  0.15890804456E+03  0.15890804456E+03  0.00000000000E+00 0. -1.
         -1   -1    0    0    0  501 -0.00000000000E+00 -0.00000000000E+00 -0.11950578159E+03  0.11950578159E+03  0.00000000000E+00 0. -1.
         35    2    1    2    0    0  0.00000000000E+00  0.00000000000E+00  0.39402262973E+02  0.27841382615E+03  0.27561153869E+03 0.  0.
         25    1    3    3    0    0  0.20672907006E+02 -0.59498011538E+02 -0.55135808727E+01  0.13563842389E+03  0.12000000000E+03 0.  0.
         25    1    3    3    0    0 -0.20672907006E+02  0.59498011538E+02  0.44915843845E+02  0.14277540226E+03  0.12000000000E+03 0.  0.
<mgrwt>
<rscale>  0 0.27561154E+03</rscale>
<asrwt>0</asrwt>
<pdfrwt beam="1">  1        1 0.24447392E-01 0.27561154E+03</pdfrwt>
<pdfrwt beam="2">  1       -1 0.18385505E-01 0.27561154E+03</pdfrwt>
<totfact> 0.45269053E+03</totfact>
</mgrwt>
</event>
<event>
 5    1  0.1107336E+001  0.2768367E+03  0.7818608E-02  0.1097429E+00
         -1   -1    0    0    0  501 -0.00000000000E+00  0.00000000000E+00  0.46467205220E+03  0.46467205220E+03  0.00000000000E+00 0.  1.
          1   -1    0    0  501    0  0.00000000000E+00 -0.00000000000E+00 -0.41232595838E+02  0.41232595838E+02  0.00000000000E+00 0.  1.
         35    2    1    2    0    0  0.00000000000E+00  0.00000000000E+00  0.42343945637E+03  0.50590464804E+03  0.27683666611E+03 0.  0.
         25    1    3    3    0    0  0.67133427817E+02  0.15518812248E+02  0.21802489085E+03  0.25822971109E+03  0.12000000000E+03 0.  0.
         25    1    3    3    0    0 -0.67133427817E+02 -0.15518812248E+02  0.20541456552E+03  0.24767493695E+03  0.12000000000E+03 0.  0.
<mgrwt>
<rscale>  0 0.27683667E+03</rscale>
<asrwt>0</asrwt>
<pdfrwt beam="1">  1        1 0.63434766E-02 0.27683667E+03</pdfrwt>
<pdfrwt beam="2">  1       -1 0.71488004E-01 0.27683667E+03</pdfrwt>
<totfact> 0.24535684E+03</totfact>
</mgrwt>
</event>
<event>
 5    1  0.1107336E+001  0.2744768E+03  0.7818608E-02  0.1098744E+00
         -4   -1    0    0    0  501 -0.00000000000E+00  0.00000000000E+00  0.26983856076E+02  0.26983856076E+02  0.00000000000E+00 0.  1.
          4   -1    0    0  501    0  0.00000000000E+00 -0.00000000000E+00 -0.69798711115E+03  0.69798711115E+03  0.00000000000E+00 0.  1.
         35    2    1    2    0    0  0.00000000000E+00  0.00000000000E+00 -0.67100325507E+03  0.72497096722E+03  0.27447683873E+03 0.  0.
         25    1    3    3    0    0 -0.25947532297E+02 -0.51327727747E+01 -0.49691759424E+03  0.51188545131E+03  0.12000000000E+03 0.  0.
         25    1    3    3    0    0  0.25947532297E+02  0.51327727747E+01 -0.17408566083E+03  0.21308551592E+03  0.12000000000E+03 0.  0.
<mgrwt>
<rscale>  0 0.27447684E+03</rscale>
<asrwt>0</asrwt>
<pdfrwt beam="1">  1        4 0.10738262E+00 0.27447684E+03</pdfrwt>
<pdfrwt beam="2">  1       -4 0.41513630E-02 0.27447684E+03</pdfrwt>
<totfact> 0.43537847E+02</totfact>
</mgrwt>
</event>
<event>
 5    1  0.1107336E+001  0.2744354E+03  0.7818608E-02  0.1098768E+00
          2   -1    0    0  501    0  0.00000000000E+00  0.00000000000E+00  0.48169066700E+03  0.48169066700E+03  0.00000000000E+00 0.  1.
         -2   -1    0    0    0  501 -0.00000000000E+00 -0.00000000000E+00 -0.39088781000E+02  0.39088781000E+02  0.00000000000E+00 0.  1.
         35    2    1    2    0    0  0.00000000000E+00  0.00000000000E+00  0.44260188600E+03  0.52077944800E+03  0.27443542768E+03 0.  0.
         25    1    3    3    0    0  0.63134344466E+01  0.56968595822E+02  0.28546867261E+03  0.31492482183E+03  0.12000000000E+03 0.  0.
         25    1    3    3    0    0 -0.63134344466E+01 -0.56968595822E+02  0.15713321339E+03  0.20585462617E+03  0.12000000000E+03 0.  0.
<mgrwt>
<rscale>  0 0.27443543E+03</rscale>
<asrwt>0</asrwt>
<pdfrwt beam="1">  1        2 0.74106253E-01 0.27443543E+03</pdfrwt>
<pdfrwt beam="2">  1       -2 0.60136589E-02 0.27443543E+03</pdfrwt>
<totfact> 0.95183173E+03</totfact>
</mgrwt>
</event>
<event>
 5    1  0.1107336E+001  0.2742988E+03  0.7818608E-02  0.1098844E+00
          2   -1    0    0  501    0  0.00000000000E+00  0.00000000000E+00  0.69620583790E+03  0.69620583790E+03  0.00000000000E+00 0.  1.
         -2   -1    0    0    0  501 -0.00000000000E+00 -0.00000000000E+00 -0.27017807502E+02  0.27017807502E+02  0.00000000000E+00 0.  1.
         35    2    1    2    0    0  0.00000000000E+00  0.00000000000E+00  0.66918803040E+03  0.72322364541E+03  0.27429878097E+03 0.  0.
         25    1    3    3    0    0  0.21907550378E+02 -0.26023108497E+02  0.18421811310E+03  0.22247124788E+03  0.12000000000E+03 0.  0.
         25    1    3    3    0    0 -0.21907550378E+02  0.26023108497E+02  0.48496991730E+03  0.50075239752E+03  0.12000000000E+03 0.  0.
<mgrwt>
<rscale>  0 0.27429878E+03</rscale>
<asrwt>0</asrwt>
<pdfrwt beam="1">  1        2 0.10710858E+00 0.27429878E+03</pdfrwt>
<pdfrwt beam="2">  1       -2 0.41565863E-02 0.27429878E+03</pdfrwt>
<totfact> 0.10903701E+04</totfact>
</mgrwt>
</event>
<event>
 5    1  0.1107336E+001  0.2757235E+03  0.7818608E-02  0.1098048E+00
          2   -1    0    0  501    0  0.00000000000E+00  0.00000000000E+00  0.16389941504E+04  0.16389941504E+04  0.00000000000E+00 0. -1.
         -2   -1    0    0    0  501 -0.00000000000E+00 -0.00000000000E+00 -0.11596048784E+02  0.11596048784E+02  0.00000000000E+00 0. -1.
         35    2    1    2    0    0  0.00000000000E+00  0.00000000000E+00  0.16273981016E+04  0.16505901992E+04  0.27572345656E+03 0.  0.
         25    1    3    3    0    0 -0.35390134312E+02  0.38965894499E+02  0.55725659762E+03  0.57245586567E+03  0.12000000000E+03 0.  0.
         25    1    3    3    0    0  0.35390134312E+02 -0.38965894499E+02  0.10701415040E+04  0.10781343335E+04  0.12000000000E+03 0.  0.
<mgrwt>
<rscale>  0 0.27572346E+03</rscale>
<asrwt>0</asrwt>
<pdfrwt beam="1">  1        2 0.25215276E+00 0.27572346E+03</pdfrwt>
<pdfrwt beam="2">  1       -2 0.17840088E-02 0.27572346E+03</pdfrwt>
<totfact> 0.10525797E+04</totfact>
</mgrwt>
</event>
<event>
 5    1  0.1107336E+001  0.2750014E+03  0.7818608E-02  0.1098451E+00
          2   -1    0    0  501    0  0.00000000000E+00  0.00000000000E+00  0.51271421943E+03  0.51271421943E+03  0.00000000000E+00 0.  1.
         -2   -1    0    0    0  501 -0.00000000000E+00 -0.00000000000E+00 -0.36875198643E+02  0.36875198643E+02  0.00000000000E+00 0.  1.
         35    2    1    2    0    0  0.00000000000E+00  0.00000000000E+00  0.47583902079E+03  0.54958941807E+03  0.27500137228E+03 0.  0.
         25    1    3    3    0    0 -0.28886984478E+02  0.19605499656E+02  0.12333040458E+03  0.17558252243E+03  0.12000000000E+03 0.  0.
         25    1    3    3    0    0  0.28886984478E+02 -0.19605499656E+02  0.35250861620E+03  0.37400689564E+03  0.12000000000E+03 0.  0.
<mgrwt>
<rscale>  0 0.27500137E+03</rscale>
<asrwt>0</asrwt>
<pdfrwt beam="1">  1        2 0.78879105E-01 0.27500137E+03</pdfrwt>
<pdfrwt beam="2">  1       -2 0.56731079E-02 0.27500137E+03</pdfrwt>
<totfact> 0.97068769E+03</totfact>
</mgrwt>
</event>
<event>
 5    1  0.1107336E+001  0.2752639E+03  0.7818608E-02  0.1098304E+00
          1   -1    0    0  501    0  0.00000000000E+00  0.00000000000E+00  0.15199005140E+03  0.15199005140E+03  0.00000000000E+00 0. -1.
         -1   -1    0    0    0  501 -0.00000000000E+00 -0.00000000000E+00 -0.12463019547E+03  0.12463019547E+03  0.00000000000E+00 0. -1.
         35    2    1    2    0    0  0.00000000000E+00  0.00000000000E+00  0.27359855932E+02  0.27662024687E+03  0.27526387207E+03 0.  0.
         25    1    3    3    0    0 -0.26011156541E+02 -0.16244409186E+02 -0.46633213914E+02  0.13234469288E+03  0.12000000000E+03 0.  0.
         25    1    3    3    0    0  0.26011156541E+02  0.16244409186E+02  0.73993069846E+02  0.14427555399E+03  0.12000000000E+03 0.  0.
<mgrwt>
<rscale>  0 0.27526387E+03</rscale>
<asrwt>0</asrwt>
<pdfrwt beam="1">  1        1 0.23383085E-01 0.27526387E+03</pdfrwt>
<pdfrwt beam="2">  1       -1 0.19173876E-01 0.27526387E+03</pdfrwt>
<totfact> 0.44768637E+03</totfact>
</mgrwt>
</event>
<event>
 5    1  0.1107336E+001  0.2743798E+03  0.7818608E-02  0.1098799E+00
         -2   -1    0    0    0  501 -0.00000000000E+00  0.00000000000E+00  0.98452782512E+03  0.98452782512E+03  0.00000000000E+00 0. -1.
          2   -1    0    0  501    0  0.00000000000E+00 -0.00000000000E+00 -0.19116850546E+02  0.19116850546E+02  0.00000000000E+00 0. -1.
         35    2    1    2    0    0  0.00000000000E+00  0.00000000000E+00  0.96541097458E+03  0.10036446757E+04  0.27437981917E+03 0.  0.
         25    1    3    3    0    0  0.64452594412E+02 -0.16235239965E+02  0.48940182908E+03  0.50826358344E+03  0.12000000000E+03 0.  0.
         25    1    3    3    0    0 -0.64452594412E+02  0.16235239965E+02  0.47600914550E+03  0.49538109223E+03  0.12000000000E+03 0.  0.
<mgrwt>
<rscale>  0 0.27437982E+03</rscale>
<asrwt>0</asrwt>
<pdfrwt beam="1">  1        2 0.29410547E-02 0.27437982E+03</pdfrwt>
<pdfrwt beam="2">  1       -2 0.15146578E+00 0.27437982E+03</pdfrwt>
<totfact> 0.99551868E+02</totfact>
</mgrwt>
</event>
<event>
 5    1  0.1107336E+001  0.2749216E+03  0.7818608E-02  0.1098495E+00
          1   -1    0    0  501    0  0.00000000000E+00  0.00000000000E+00  0.59339388700E+03  0.59339388700E+03  0.00000000000E+00 0. -1.
         -1   -1    0    0    0  501 -0.00000000000E+00 -0.00000000000E+00 -0.31843054265E+02  0.31843054265E+02  0.00000000000E+00 0. -1.
         35    2    1    2    0    0  0.00000000000E+00  0.00000000000E+00  0.56155083274E+03  0.62523694127E+03  0.27492161606E+03 0.  0.
         25    1    3    3    0    0  0.53542892454E+02 -0.27686867600E+01  0.18921182897E+03  0.23038147317E+03  0.12000000000E+03 0.  0.
         25    1    3    3    0    0 -0.53542892454E+02  0.27686867600E+01  0.37233900377E+03  0.39485546810E+03  0.12000000000E+03 0.  0.
<mgrwt>
<rscale>  0 0.27492162E+03</rscale>
<asrwt>0</asrwt>
<pdfrwt beam="1">  1        1 0.91291359E-01 0.27492162E+03</pdfrwt>
<pdfrwt beam="2">  1       -1 0.48989319E-02 0.27492162E+03</pdfrwt>
<totfact> 0.64585213E+03</totfact>
</mgrwt>
</event>
<event>
 5    1  0.1107336E+001  0.2752613E+03  0.7818608E-02  0.1098306E+00
         -2   -1    0    0    0  501 -0.00000000000E+00  0.00000000000E+00  0.15367895176E+03  0.15367895176E+03  0.00000000000E+00 0. -1.
          2   -1    0    0  501    0  0.00000000000E+00 -0.00000000000E+00 -0.12325822111E+03  0.12325822111E+03  0.00000000000E+00 0. -1.
         35    2    1    2    0    0  0.00000000000E+00  0.00000000000E+00  0.30420730646E+02  0.27693717287E+03  0.27526128835E+03 0.  0.
         25    1    3    3    0    0  0.85627818923E+01 -0.36812614469E+02  0.71350675297E+02  0.14463543371E+03  0.12000000000E+03 0.  0.
         25    1    3    3    0    0 -0.85627818923E+01  0.36812614469E+02 -0.40929944651E+02  0.13230173917E+03  0.12000000000E+03 0.  0.
<mgrwt>
<rscale>  0 0.27526129E+03</rscale>
<asrwt>0</asrwt>
<pdfrwt beam="1">  1        2 0.18962803E-01 0.27526129E+03</pdfrwt>
<pdfrwt beam="2">  1       -2 0.23642916E-01 0.27526129E+03</pdfrwt>
<totfact> 0.46065774E+03</totfact>
</mgrwt>
</event>
<event>
 5    1  0.1107336E+001  0.2759310E+03  0.7818608E-02  0.1097932E+00
          1   -1    0    0  501    0  0.00000000000E+00  0.00000000000E+00  0.52876986028E+03  0.52876986028E+03  0.00000000000E+00 0. -1.
         -1   -1    0    0    0  501 -0.00000000000E+00 -0.00000000000E+00 -0.35997653780E+02  0.35997653780E+02  0.00000000000E+00 0. -1.
         35    2    1    2    0    0  0.00000000000E+00  0.00000000000E+00  0.49277220650E+03  0.56476751406E+03  0.27593096498E+03 0.  0.
         25    1    3    3    0    0 -0.34510388777E+00 -0.21130232447E+02  0.37884031979E+03  0.39795300441E+03  0.12000000000E+03 0.  0.
         25    1    3    3    0    0  0.34510388777E+00  0.21130232447E+02  0.11393188671E+03  0.16681450965E+03  0.12000000000E+03 0.  0.
<mgrwt>
<rscale>  0 0.27593096E+03</rscale>
<asrwt>0</asrwt>
<pdfrwt beam="1">  1        1 0.81349203E-01 0.27593096E+03</pdfrwt>
<pdfrwt beam="2">  1       -1 0.55381010E-02 0.27593096E+03</pdfrwt>
<totfact> 0.62889218E+03</totfact>
</mgrwt>
</event>
<event>
 5    1  0.1107336E+001  0.2752440E+03  0.7818608E-02  0.1098315E+00
         -2   -1    0    0    0  501 -0.00000000000E+00  0.00000000000E+00  0.70166360227E+01  0.70166360227E+01  0.00000000000E+00 0.  1.
          2   -1    0    0  501    0  0.00000000000E+00 -0.00000000000E+00 -0.26992731877E+04  0.26992731877E+04  0.00000000000E+00 0.  1.
         35    2    1    2    0    0  0.00000000000E+00  0.00000000000E+00 -0.26922565516E+04  0.27062898237E+04  0.27524401889E+03 0.  0.
         25    1    3    3    0    0 -0.53867394853E+02 -0.23935143647E+02 -0.10252220521E+04  0.10339027244E+04  0.12000000000E+03 0.  0.
         25    1    3    3    0    0  0.53867394853E+02  0.23935143647E+02 -0.16670344995E+04  0.16723870993E+04  0.12000000000E+03 0.  0.
<mgrwt>
<rscale>  0 0.27524402E+03</rscale>
<asrwt>0</asrwt>
<pdfrwt beam="1">  1        2 0.41527270E+00 0.27524402E+03</pdfrwt>
<pdfrwt beam="2">  1       -2 0.10794827E-02 0.27524402E+03</pdfrwt>
<totfact> 0.59288290E+03</totfact>
</mgrwt>
</event>
<event>
 5    1  0.1107336E+001  0.2748606E+03  0.7818608E-02  0.1098530E+00
         -1   -1    0    0    0  501 -0.00000000000E+00  0.00000000000E+00  0.18362830220E+03  0.18362830220E+03  0.00000000000E+00 0.  1.
          1   -1    0    0  501    0  0.00000000000E+00 -0.00000000000E+00 -0.10285500555E+03  0.10285500555E+03  0.00000000000E+00 0.  1.
         35    2    1    2    0    0  0.00000000000E+00  0.00000000000E+00  0.80773296656E+02  0.28648330775E+03  0.27486061953E+03 0.  0.
         25    1    3    3    0    0 -0.25321799291E+02 -0.45586727750E+01  0.10484943133E+03  0.16141678434E+03  0.12000000000E+03 0.  0.
         25    1    3    3    0    0  0.25321799291E+02  0.45586727750E+01 -0.24076134672E+02  0.12506652341E+03  0.12000000000E+03 0.  0.
<mgrwt>
<rscale>  0 0.27486062E+03</rscale>
<asrwt>0</asrwt>
<pdfrwt beam="1">  1        1 0.15823847E-01 0.27486062E+03</pdfrwt>
<pdfrwt beam="2">  1       -1 0.28250508E-01 0.27486062E+03</pdfrwt>
<totfact> 0.39092237E+03</totfact>
</mgrwt>
</event>
<event>
 5    1  0.1107336E+001  0.2754281E+03  0.7818608E-02  0.1098213E+00
         -2   -1    0    0    0  501 -0.00000000000E+00  0.00000000000E+00  0.86200075079E+02  0.86200075079E+02  0.00000000000E+00 0.  1.
          2   -1    0    0  501    0  0.00000000000E+00 -0.00000000000E+00 -0.22001331675E+03  0.22001331675E+03  0.00000000000E+00 0.  1.
         35    2    1    2    0    0  0.00000000000E+00  0.00000000000E+00 -0.13381324167E+03  0.30621339183E+03  0.27542813525E+03 0.  0.
         25    1    3    3    0    0  0.35994707333E+02  0.35002503152E+02 -0.11717508926E+03  0.17507368656E+03  0.12000000000E+03 0.  0.
         25    1    3    3    0    0 -0.35994707333E+02 -0.35002503152E+02 -0.16638152416E+02  0.13113970527E+03  0.12000000000E+03 0.  0.
<mgrwt>
<rscale>  0 0.27542814E+03</rscale>
<asrwt>0</asrwt>
<pdfrwt beam="1">  1        2 0.33848202E-01 0.27542814E+03</pdfrwt>
<pdfrwt beam="2">  1       -2 0.13261550E-01 0.27542814E+03</pdfrwt>
<totfact> 0.63934326E+03</totfact>
</mgrwt>
</event>
<event>
 5    1  0.1107336E+001  0.2752174E+03  0.7818608E-02  0.1098330E+00
          2   -1    0    0  501    0  0.00000000000E+00  0.00000000000E+00  0.13055834308E+04  0.13055834308E+04  0.00000000000E+00 0.  1.
         -2   -1    0    0    0  501 -0.00000000000E+00 -0.00000000000E+00 -0.14503979592E+02  0.14503979592E+02  0.00000000000E+00 0.  1.
         35    2    1    2    0    0  0.00000000000E+00  0.00000000000E+00  0.12910794512E+04  0.13200874104E+04  0.27521740814E+03 0.  0.
         25    1    3    3    0    0  0.32359557357E+02  0.24540361961E+02  0.90325135544E+03  0.91209230970E+03  0.12000000000E+03 0.  0.
         25    1    3    3    0    0 -0.32359557357E+02 -0.24540361961E+02  0.38782809573E+03  0.40799510066E+03  0.12000000000E+03 0.  0.
<mgrwt>
<rscale>  0 0.27521741E+03</rscale>
<asrwt>0</asrwt>
<pdfrwt beam="1">  1        2 0.20085890E+00 0.27521741E+03</pdfrwt>
<pdfrwt beam="2">  1       -2 0.22313825E-02 0.27521741E+03</pdfrwt>
<totfact> 0.11449013E+04</totfact>
</mgrwt>
</event>
<event>
 5    1  0.1107336E+001  0.2746298E+03  0.7818608E-02  0.1098659E+00
          2   -1    0    0  501    0  0.00000000000E+00  0.00000000000E+00  0.24337733909E+03  0.24337733909E+03  0.00000000000E+00 0. -1.
         -2   -1    0    0    0  501 -0.00000000000E+00 -0.00000000000E+00 -0.77473871261E+02  0.77473871261E+02  0.00000000000E+00 0. -1.
         35    2    1    2    0    0  0.00000000000E+00  0.00000000000E+00  0.16590346783E+03  0.32085121036E+03  0.27462982094E+03 0.  0.
         25    1    3    3    0    0  0.48368765064E+02 -0.11339265311E+02  0.13503332422E+03  0.18735558444E+03  0.12000000000E+03 0.  0.
         25    1    3    3    0    0 -0.48368765064E+02  0.11339265311E+02  0.30870143615E+02  0.13349562592E+03  0.12000000000E+03 0.  0.
<mgrwt>
<rscale>  0 0.27462982E+03</rscale>
<asrwt>0</asrwt>
<pdfrwt beam="1">  1        2 0.37442667E-01 0.27462982E+03</pdfrwt>
<pdfrwt beam="2">  1       -2 0.11919057E-01 0.27462982E+03</pdfrwt>
<totfact> 0.68127354E+03</totfact>
</mgrwt>
</event>
<event>
 5    1  0.1107336E+001  0.2751118E+03  0.7818608E-02  0.1098389E+00
         -2   -1    0    0    0  501 -0.00000000000E+00  0.00000000000E+00  0.18485131629E+02  0.18485131629E+02  0.00000000000E+00 0.  1.
          2   -1    0    0  501    0  0.00000000000E+00 -0.00000000000E+00 -0.10236134639E+04  0.10236134639E+04  0.00000000000E+00 0.  1.
         35    2    1    2    0    0  0.00000000000E+00  0.00000000000E+00 -0.10051283323E+04  0.10420985955E+04  0.27511182903E+03 0.  0.
         25    1    3    3    0    0 -0.14796217392E+02  0.56459428728E+02 -0.37607780627E+03  0.39905026188E+03  0.12000000000E+03 0.  0.
         25    1    3    3    0    0  0.14796217392E+02 -0.56459428728E+02 -0.62905052601E+03  0.64304833365E+03  0.12000000000E+03 0.  0.
<mgrwt>
<rscale>  0 0.27511183E+03</rscale>
<asrwt>0</asrwt>
<pdfrwt beam="1">  1        2 0.15747896E+00 0.27511183E+03</pdfrwt>
<pdfrwt beam="2">  1       -2 0.28438670E-02 0.27511183E+03</pdfrwt>
<totfact> 0.11622187E+04</totfact>
</mgrwt>
</event>
<event>
 5    1  0.1107336E+001  0.2779220E+03  0.7818608E-02  0.1096829E+00
         -2   -1    0    0    0  501 -0.00000000000E+00  0.00000000000E+00  0.98664100382E+01  0.98664100382E+01  0.00000000000E+00 0. -1.
          2   -1    0    0  501    0  0.00000000000E+00 -0.00000000000E+00 -0.19571612505E+04  0.19571612505E+04  0.00000000000E+00 0. -1.
         35    2    1    2    0    0  0.00000000000E+00  0.00000000000E+00 -0.19472948405E+04  0.19670276606E+04  0.27792197041E+03 0.  0.
         25    1    3    3    0    0 -0.36069610388E+02 -0.34328838964E+02 -0.62470759725E+03  0.63807450038E+03  0.12000000000E+03 0.  0.
         25    1    3    3    0    0  0.36069610388E+02  0.34328838964E+02 -0.13225872433E+04  0.13289531602E+04  0.12000000000E+03 0.  0.
<mgrwt>
<rscale>  0 0.27792197E+03</rscale>
<asrwt>0</asrwt>
<pdfrwt beam="1">  1        2 0.30110122E+00 0.27792197E+03</pdfrwt>
<pdfrwt beam="2">  1       -2 0.15179118E-02 0.27792197E+03</pdfrwt>
<totfact> 0.90742800E+03</totfact>
</mgrwt>
</event>
<event>
 5    1  0.1107336E+001  0.2723911E+03  0.7818608E-02  0.1099919E+00
         -2   -1    0    0    0  501 -0.00000000000E+00  0.00000000000E+00  0.64570321883E+01  0.64570321883E+01  0.00000000000E+00 0. -1.
          2   -1    0    0  501    0  0.00000000000E+00 -0.00000000000E+00 -0.28727181514E+04  0.28727181514E+04  0.00000000000E+00 0. -1.
         35    2    1    2    0    0  0.00000000000E+00  0.00000000000E+00 -0.28662611192E+04  0.28791751836E+04  0.27239114208E+03 0.  0.
         25    1    3    3    0    0 -0.37581051704E+02  0.27492627318E+02 -0.19035911175E+04  0.19079379766E+04  0.12000000000E+03 0.  0.
         25    1    3    3    0    0  0.37581051704E+02 -0.27492627318E+02 -0.96267000172E+03  0.97123720697E+03  0.12000000000E+03 0.  0.
<mgrwt>
<rscale>  0 0.27239114E+03</rscale>
<asrwt>0</asrwt>
<pdfrwt beam="1">  1        2 0.44195612E+00 0.27239114E+03</pdfrwt>
<pdfrwt beam="2">  1       -2 0.99339073E-03 0.27239114E+03</pdfrwt>
<totfact> 0.53267946E+03</totfact>
</mgrwt>
</event>
<event>
 5    1  0.1107336E+001  0.2751084E+03  0.7818608E-02  0.1098391E+00
          2   -1    0    0  501    0  0.00000000000E+00  0.00000000000E+00  0.42066964912E+03  0.42066964912E+03  0.00000000000E+00 0. -1.
         -2   -1    0    0    0  501 -0.00000000000E+00 -0.00000000000E+00 -0.44978675377E+02  0.44978675377E+02  0.00000000000E+00 0. -1.
         35    2    1    2    0    0  0.00000000000E+00  0.00000000000E+00  0.37569097374E+03  0.46564832449E+03  0.27510844108E+03 0.  0.
         25    1    3    3    0    0  0.92424583314E+00  0.64497676189E+02  0.15571466088E+03  0.20690060434E+03  0.12000000000E+03 0.  0.
         25    1    3    3    0    0 -0.92424583314E+00 -0.64497676189E+02  0.21997631286E+03  0.25874772015E+03  0.12000000000E+03 0.  0.
<mgrwt>
<rscale>  0 0.27510844E+03</rscale>
<asrwt>0</asrwt>
<pdfrwt beam="1">  1        2 0.64718405E-01 0.27510844E+03</pdfrwt>
<pdfrwt beam="2">  1       -2 0.69197965E-02 0.27510844E+03</pdfrwt>
<totfact> 0.89017233E+03</totfact>
</mgrwt>
</event>
<event>
 5    1  0.1107336E+001  0.2748881E+03  0.7818608E-02  0.1098514E+00
         -2   -1    0    0    0  501 -0.00000000000E+00  0.00000000000E+00  0.17762452722E+02  0.17762452722E+02  0.00000000000E+00 0. -1.
          2   -1    0    0  501    0  0.00000000000E+00 -0.00000000000E+00 -0.10635279415E+04  0.10635279415E+04  0.00000000000E+00 0. -1.
         35    2    1    2    0    0  0.00000000000E+00  0.00000000000E+00 -0.10457654888E+04  0.10812903942E+04  0.27488808471E+03 0.  0.
         25    1    3    3    0    0  0.25157901523E+02 -0.45022572382E+02 -0.35456873956E+03  0.37786101030E+03  0.12000000000E+03 0.  0.
         25    1    3    3    0    0 -0.25157901523E+02  0.45022572382E+02 -0.69119674920E+03  0.70342938391E+03  0.12000000000E+03 0.  0.
<mgrwt>
<rscale>  0 0.27488808E+03</rscale>
<asrwt>0</asrwt>
<pdfrwt beam="1">  1        2 0.16361976E+00 0.27488808E+03</pdfrwt>
<pdfrwt beam="2">  1       -2 0.27326838E-02 0.27488808E+03</pdfrwt>
<totfact> 0.11668390E+04</totfact>
</mgrwt>
</event>
<event>
 5    1  0.1107336E+001  0.2750842E+03  0.7818608E-02  0.1098405E+00
          1   -1    0    0  501    0  0.00000000000E+00  0.00000000000E+00  0.17057347809E+03  0.17057347809E+03  0.00000000000E+00 0.  1.
         -1   -1    0    0    0  501 -0.00000000000E+00 -0.00000000000E+00 -0.11090721935E+03  0.11090721935E+03  0.00000000000E+00 0.  1.
         35    2    1    2    0    0  0.00000000000E+00  0.00000000000E+00  0.59666258738E+02  0.28148069744E+03  0.27508420638E+03 0.  0.
         25    1    3    3    0    0  0.15100635502E+02  0.14561163858E+02 -0.35509184515E+02  0.12688955383E+03  0.12000000000E+03 0.  0.
         25    1    3    3    0    0 -0.15100635502E+02 -0.14561163858E+02  0.95175443253E+02  0.15459114361E+03  0.12000000000E+03 0.  0.
<mgrwt>
<rscale>  0 0.27508421E+03</rscale>
<asrwt>0</asrwt>
<pdfrwt beam="1">  1        1 0.26242073E-01 0.27508421E+03</pdfrwt>
<pdfrwt beam="2">  1       -1 0.17062649E-01 0.27508421E+03</pdfrwt>
<totfact> 0.46642491E+03</totfact>
</mgrwt>
</event>
<event>
 4    1  0.1107336E+001  0.3143866E+03  0.7818608E-02  0.1078262E+00
         -2   -1    0    0    0  501 -0.00000000000E+00  0.00000000000E+00  0.11843472591E+02  0.11843472591E+02  0.00000000000E+00 0. -1.
          2   -1    0    0  501    0  0.00000000000E+00 -0.00000000000E+00 -0.20863588797E+04  0.20863588797E+04  0.00000000000E+00 0. -1.
         25    1    1    2    0    0 -0.44990707902E+02 -0.53461705070E+02 -0.15289347253E+04  0.15352275766E+04  0.12000000000E+03 0.  0.
         25    1    1    2    0    0  0.44990707902E+02  0.53461705070E+02 -0.54558068180E+03  0.56297477568E+03  0.12000000000E+03 0.  0.
<mgrwt>
<rscale>  0 0.31438660E+03</rscale>
<asrwt>0</asrwt>
<pdfrwt beam="1">  1        2 0.32097814E+00 0.31438660E+03</pdfrwt>
<pdfrwt beam="2">  1       -2 0.18220735E-02 0.31438660E+03</pdfrwt>
<totfact> 0.59330020E+03</totfact>
</mgrwt>
</event>
<event>
 5    1  0.1107336E+001  0.2761740E+03  0.7818608E-02  0.1097797E+00
         -2   -1    0    0    0  501 -0.00000000000E+00  0.00000000000E+00  0.44805724986E+03  0.44805724986E+03  0.00000000000E+00 0.  1.
          2   -1    0    0  501    0  0.00000000000E+00 -0.00000000000E+00 -0.42557098389E+02  0.42557098389E+02  0.00000000000E+00 0.  1.
         35    2    1    2    0    0  0.00000000000E+00  0.00000000000E+00  0.40550015147E+03  0.49061434825E+03  0.27617397753E+03 0.  0.
         25    1    3    3    0    0 -0.11423086069E+02 -0.64960586971E+02  0.23441169264E+03  0.27147597758E+03  0.12000000000E+03 0.  0.
         25    1    3    3    0    0  0.11423086069E+02  0.64960586971E+02  0.17108845883E+03  0.21913837067E+03  0.12000000000E+03 0.  0.
<mgrwt>
<rscale>  0 0.27617398E+03</rscale>
<asrwt>0</asrwt>
<pdfrwt beam="1">  1        2 0.65472463E-02 0.27617398E+03</pdfrwt>
<pdfrwt beam="2">  1       -2 0.68931881E-01 0.27617398E+03</pdfrwt>
<totfact> 0.21679351E+03</totfact>
</mgrwt>
</event>
<event>
 5    1  0.1107336E+001  0.2749061E+03  0.7818608E-02  0.1098504E+00
         -1   -1    0    0    0  501 -0.00000000000E+00  0.00000000000E+00  0.51962787344E+02  0.51962787344E+02  0.00000000000E+00 0.  1.
          1   -1    0    0  501    0  0.00000000000E+00 -0.00000000000E+00 -0.36359356455E+03  0.36359356455E+03  0.00000000000E+00 0.  1.
         35    2    1    2    0    0  0.00000000000E+00  0.00000000000E+00 -0.31163077721E+03  0.41555635190E+03  0.27490605722E+03 0.  0.
         25    1    3    3    0    0 -0.25623898432E+02  0.43517540664E+02 -0.22244682458E+03  0.25774590255E+03  0.12000000000E+03 0.  0.
         25    1    3    3    0    0  0.25623898432E+02 -0.43517540664E+02 -0.89183952632E+02  0.15781044935E+03  0.12000000000E+03 0.  0.
<mgrwt>
<rscale>  0 0.27490606E+03</rscale>
<asrwt>0</asrwt>
<pdfrwt beam="1">  1        1 0.55937471E-01 0.27490606E+03</pdfrwt>
<pdfrwt beam="2">  1       -1 0.79942751E-02 0.27490606E+03</pdfrwt>
<totfact> 0.58709444E+03</totfact>
</mgrwt>
</event>
<event>
 5    1  0.1107336E+001  0.2748630E+03  0.7818608E-02  0.1098528E+00
          4   -1    0    0  501    0  0.00000000000E+00  0.00000000000E+00  0.14610300268E+03  0.14610300268E+03  0.00000000000E+00 0.  1.
         -4   -1    0    0    0  501 -0.00000000000E+00 -0.00000000000E+00 -0.12927462945E+03  0.12927462945E+03  0.00000000000E+00 0.  1.
         35    2    1    2    0    0  0.00000000000E+00  0.00000000000E+00  0.16828373229E+02  0.27537763213E+03  0.27486295882E+03 0.  0.
         25    1    3    3    0    0  0.47913158521E+02  0.23213160292E+02  0.49146062828E+02  0.14017794784E+03  0.12000000000E+03 0.  0.
         25    1    3    3    0    0 -0.47913158521E+02 -0.23213160292E+02 -0.32317689600E+02  0.13519968429E+03  0.12000000000E+03 0.  0.
<mgrwt>
<rscale>  0 0.27486296E+03</rscale>
<asrwt>0</asrwt>
<pdfrwt beam="1">  1        4 0.22477385E-01 0.27486296E+03</pdfrwt>
<pdfrwt beam="2">  1       -4 0.19888404E-01 0.27486296E+03</pdfrwt>
<totfact> 0.77939344E+02</totfact>
</mgrwt>
</event>
<event>
 5    1  0.1107336E+001  0.2752539E+03  0.7818608E-02  0.1098310E+00
         -1   -1    0    0    0  501 -0.00000000000E+00  0.00000000000E+00  0.13726472227E+03  0.13726472227E+03  0.00000000000E+00 0. -1.
          1   -1    0    0  501    0  0.00000000000E+00 -0.00000000000E+00 -0.13799017982E+03  0.13799017982E+03  0.00000000000E+00 0. -1.
         35    2    1    2    0    0  0.00000000000E+00  0.00000000000E+00 -0.72545754982E+00  0.27525490210E+03  0.27525394609E+03 0.  0.
         25    1    3    3    0    0 -0.10560253788E+02 -0.62057620388E+02 -0.24415182297E+02  0.13769084332E+03  0.12000000000E+03 0.  0.
         25    1    3    3    0    0  0.10560253788E+02  0.62057620388E+02  0.23689724747E+02  0.13756405878E+03  0.12000000000E+03 0.  0.
<mgrwt>
<rscale>  0 0.27525395E+03</rscale>
<asrwt>0</asrwt>
<pdfrwt beam="1">  1        1 0.21229258E-01 0.27525395E+03</pdfrwt>
<pdfrwt beam="2">  1       -1 0.21117650E-01 0.27525395E+03</pdfrwt>
<totfact> 0.43300809E+03</totfact>
</mgrwt>
</event>
<event>
 5    1  0.1107336E+001  0.2743974E+03  0.7818608E-02  0.1098789E+00
         -2   -1    0    0    0  501 -0.00000000000E+00  0.00000000000E+00  0.36297034485E+02  0.36297034485E+02  0.00000000000E+00 0. -1.
          2   -1    0    0  501    0  0.00000000000E+00 -0.00000000000E+00 -0.51859576448E+03  0.51859576448E+03  0.00000000000E+00 0. -1.
         35    2    1    2    0    0  0.00000000000E+00  0.00000000000E+00 -0.48229873000E+03  0.55489279897E+03  0.27439743692E+03 0.  0.
         25    1    3    3    0    0 -0.31138653636E+02 -0.35608391009E+02 -0.14660281585E+03  0.19526893986E+03  0.12000000000E+03 0.  0.
         25    1    3    3    0    0  0.31138653636E+02  0.35608391009E+02 -0.33569591415E+03  0.35962385910E+03  0.12000000000E+03 0.  0.
<mgrwt>
<rscale>  0 0.27439744E+03</rscale>
<asrwt>0</asrwt>
<pdfrwt beam="1">  1        2 0.79783965E-01 0.27439744E+03</pdfrwt>
<pdfrwt beam="2">  1       -2 0.55841591E-02 0.27439744E+03</pdfrwt>
<totfact> 0.98166370E+03</totfact>
</mgrwt>
</event>
<event>
 5    1  0.1107336E+001  0.2731961E+03  0.7818608E-02  0.1099464E+00
          3   -1    0    0  501    0  0.00000000000E+00  0.00000000000E+00  0.25496024352E+03  0.25496024352E+03  0.00000000000E+00 0. -1.
         -3   -1    0    0    0  501 -0.00000000000E+00 -0.00000000000E+00 -0.73184059470E+02  0.73184059470E+02  0.00000000000E+00 0. -1.
         35    2    1    2    0    0  0.00000000000E+00  0.00000000000E+00  0.18177618405E+03  0.32814430299E+03  0.27319608800E+03 0.  0.
         25    1    3    3    0    0  0.18569876534E+02  0.18106540962E+02  0.16281908090E+03  0.20391846470E+03  0.12000000000E+03 0.  0.
         25    1    3    3    0    0 -0.18569876534E+02 -0.18106540962E+02  0.18957103153E+02  0.12422583829E+03  0.12000000000E+03 0.  0.
<mgrwt>
<rscale>  0 0.27319609E+03</rscale>
<asrwt>0</asrwt>
<pdfrwt beam="1">  1        3 0.39224653E-01 0.27319609E+03</pdfrwt>
<pdfrwt beam="2">  1       -3 0.11259086E-01 0.27319609E+03</pdfrwt>
<totfact> 0.99191562E+02</totfact>
</mgrwt>
</event>
<event>
 5    1  0.1107336E+001  0.2748724E+03  0.7818608E-02  0.1098523E+00
         -2   -1    0    0    0  501 -0.00000000000E+00  0.00000000000E+00  0.31140684642E+02  0.31140684642E+02  0.00000000000E+00 0. -1.
          2   -1    0    0  501    0  0.00000000000E+00 -0.00000000000E+00 -0.60656062600E+03  0.60656062600E+03  0.00000000000E+00 0. -1.
         35    2    1    2    0    0  0.00000000000E+00  0.00000000000E+00 -0.57541994136E+03  0.63770131065E+03  0.27487242983E+03 0.  0.
         25    1    3    3    0    0 -0.47517950977E+02 -0.30679572798E+02 -0.20439934595E+03  0.24367659813E+03  0.12000000000E+03 0.  0.
         25    1    3    3    0    0  0.47517950977E+02  0.30679572798E+02 -0.37102059541E+03  0.39402471252E+03  0.12000000000E+03 0.  0.
<mgrwt>
<rscale>  0 0.27487243E+03</rscale>
<asrwt>0</asrwt>
<pdfrwt beam="1">  1        2 0.93317008E-01 0.27487243E+03</pdfrwt>
<pdfrwt beam="2">  1       -2 0.47908751E-02 0.27487243E+03</pdfrwt>
<totfact> 0.10361835E+04</totfact>
</mgrwt>
</event>
<event>
 5    1  0.1107336E+001  0.2760229E+03  0.7818608E-02  0.1097881E+00
         -1   -1    0    0    0  501 -0.00000000000E+00  0.00000000000E+00  0.48044553997E+03  0.48044553997E+03  0.00000000000E+00 0.  1.
          1   -1    0    0  501    0  0.00000000000E+00 -0.00000000000E+00 -0.39644788092E+02  0.39644788092E+02  0.00000000000E+00 0.  1.
         35    2    1    2    0    0  0.00000000000E+00  0.00000000000E+00  0.44080075188E+03  0.52009032806E+03  0.27602290935E+03 0.  0.
         25    1    3    3    0    0 -0.24148634748E+02  0.63433244705E+02  0.20844947303E+03  0.24991621776E+03  0.12000000000E+03 0.  0.
         25    1    3    3    0    0  0.24148634748E+02 -0.63433244705E+02  0.23235127885E+03  0.27017411031E+03  0.12000000000E+03 0.  0.
<mgrwt>
<rscale>  0 0.27602291E+03</rscale>
<asrwt>0</asrwt>
<pdfrwt beam="1">  1        1 0.60991985E-02 0.27602291E+03</pdfrwt>
<pdfrwt beam="2">  1       -1 0.73914695E-01 0.27602291E+03</pdfrwt>
<totfact> 0.24207499E+03</totfact>
</mgrwt>
</event>
<event>
 5    1  0.1107336E+001  0.2750842E+03  0.7818608E-02  0.1098405E+00
         -1   -1    0    0    0  501 -0.00000000000E+00  0.00000000000E+00  0.10583079367E+02  0.10583079367E+02  0.00000000000E+00 0. -1.
          1   -1    0    0  501    0  0.00000000000E+00 -0.00000000000E+00 -0.17875538143E+04  0.17875538143E+04  0.00000000000E+00 0. -1.
         35    2    1    2    0    0  0.00000000000E+00  0.00000000000E+00 -0.17769707349E+04  0.17981368936E+04  0.27508416086E+03 0.  0.
         25    1    3    3    0    0  0.25584881927E+02 -0.59931247608E+02 -0.99618859032E+03  0.10055038777E+04  0.12000000000E+03 0.  0.
         25    1    3    3    0    0 -0.25584881927E+02  0.59931247608E+02 -0.78078214458E+03  0.79263301591E+03  0.12000000000E+03 0.  0.
<mgrwt>
<rscale>  0 0.27508416E+03</rscale>
<asrwt>0</asrwt>
<pdfrwt beam="1">  1        1 0.27500817E+00 0.27508416E+03</pdfrwt>
<pdfrwt beam="2">  1       -1 0.16281667E-02 0.27508416E+03</pdfrwt>
<totfact> 0.42935021E+03</totfact>
</mgrwt>
</event>
<event>
 5    1  0.1107336E+001  0.2752585E+03  0.7818608E-02  0.1098307E+00
         -1   -1    0    0    0  501 -0.00000000000E+00  0.00000000000E+00  0.20154954965E+03  0.20154954965E+03  0.00000000000E+00 0. -1.
          1   -1    0    0  501    0  0.00000000000E+00 -0.00000000000E+00 -0.93980913788E+02  0.93980913788E+02  0.00000000000E+00 0. -1.
         35    2    1    2    0    0  0.00000000000E+00  0.00000000000E+00  0.10756863587E+03  0.29553046344E+03  0.27525850287E+03 0.  0.
         25    1    3    3    0    0 -0.60874399466E+02  0.21921343201E+02  0.74029697857E+02  0.15513424497E+03  0.12000000000E+03 0.  0.
         25    1    3    3    0    0  0.60874399466E+02 -0.21921343201E+02  0.33538938009E+02  0.14039621847E+03  0.12000000000E+03 0.  0.
<mgrwt>
<rscale>  0 0.27525850E+03</rscale>
<asrwt>0</asrwt>
<pdfrwt beam="1">  1        1 0.14458602E-01 0.27525850E+03</pdfrwt>
<pdfrwt beam="2">  1       -1 0.31007623E-01 0.27525850E+03</pdfrwt>
<totfact> 0.37567985E+03</totfact>
</mgrwt>
</event>
<event>
 5    1  0.1107336E+001  0.2741571E+03  0.7818608E-02  0.1098924E+00
          1   -1    0    0  501    0  0.00000000000E+00  0.00000000000E+00  0.41233912613E+02  0.41233912613E+02  0.00000000000E+00 0. -1.
         -1   -1    0    0    0  501 -0.00000000000E+00 -0.00000000000E+00 -0.45570565265E+03  0.45570565265E+03  0.00000000000E+00 0. -1.
         35    2    1    2    0    0  0.00000000000E+00  0.00000000000E+00 -0.41447174004E+03  0.49693956526E+03  0.27415708678E+03 0.  0.
         25    1    3    3    0    0 -0.66620670694E+01 -0.65376880191E+02 -0.19185457729E+03  0.23564103723E+03  0.12000000000E+03 0.  0.
         25    1    3    3    0    0  0.66620670694E+01  0.65376880191E+02 -0.22261716274E+03  0.26129852803E+03  0.12000000000E+03 0.  0.
<mgrwt>
<rscale>  0 0.27415709E+03</rscale>
<asrwt>0</asrwt>
<pdfrwt beam="1">  1        1 0.63436787E-02 0.27415709E+03</pdfrwt>
<pdfrwt beam="2">  1       -1 0.70108563E-01 0.27415709E+03</pdfrwt>
<totfact> 0.25506038E+03</totfact>
</mgrwt>
</event>
<event>
 5    1  0.1107336E+001  0.2736426E+03  0.7818608E-02  0.1099213E+00
         -2   -1    0    0    0  501 -0.00000000000E+00  0.00000000000E+00  0.24555357630E+03  0.24555357630E+03  0.00000000000E+00 0. -1.
          2   -1    0    0  501    0  0.00000000000E+00 -0.00000000000E+00 -0.76236194877E+02  0.76236194877E+02  0.00000000000E+00 0. -1.
         35    2    1    2    0    0  0.00000000000E+00  0.00000000000E+00  0.16931738143E+03  0.32178977118E+03  0.27364261580E+03 0.  0.
         25    1    3    3    0    0  0.60314995900E+02 -0.22778477353E+01  0.11525558705E+03  0.17699417411E+03  0.12000000000E+03 0.  0.
         25    1    3    3    0    0 -0.60314995900E+02  0.22778477353E+01  0.54061794372E+02  0.14479559707E+03  0.12000000000E+03 0.  0.
<mgrwt>
<rscale>  0 0.27364262E+03</rscale>
<asrwt>0</asrwt>
<pdfrwt beam="1">  1        2 0.11728645E-01 0.27364262E+03</pdfrwt>
<pdfrwt beam="2">  1       -2 0.37777473E-01 0.27364262E+03</pdfrwt>
<totfact> 0.34763248E+03</totfact>
</mgrwt>
</event>
<event>
 5    1  0.1107336E+001  0.2752840E+03  0.7818608E-02  0.1098293E+00
         -1   -1    0    0    0  501 -0.00000000000E+00  0.00000000000E+00  0.79091183249E+02  0.79091183249E+02  0.00000000000E+00 0. -1.
          1   -1    0    0  501    0  0.00000000000E+00 -0.00000000000E+00 -0.23953769607E+03  0.23953769607E+03  0.00000000000E+00 0. -1.
         35    2    1    2    0    0  0.00000000000E+00  0.00000000000E+00 -0.16044651282E+03  0.31862887932E+03  0.27528399746E+03 0.  0.
         25    1    3    3    0    0 -0.58369092551E+02 -0.17866423079E+02 -0.47095770405E+02  0.14263299628E+03  0.12000000000E+03 0.  0.
         25    1    3    3    0    0  0.58369092551E+02  0.17866423079E+02 -0.11335074242E+03  0.17599588304E+03  0.12000000000E+03 0.  0.
<mgrwt>
<rscale>  0 0.27528400E+03</rscale>
<asrwt>0</asrwt>
<pdfrwt beam="1">  1        1 0.36851952E-01 0.27528400E+03</pdfrwt>
<pdfrwt beam="2">  1       -1 0.12167875E-01 0.27528400E+03</pdfrwt>
<totfact> 0.51900754E+03</totfact>
</mgrwt>
</event>
<event>
 5    1  0.1107336E+001  0.2763091E+03  0.7818608E-02  0.1097722E+00
         -4   -1    0    0    0  501 -0.00000000000E+00  0.00000000000E+00  0.26580229207E+02  0.26580229207E+02  0.00000000000E+00 0. -1.
          4   -1    0    0  501    0  0.00000000000E+00 -0.00000000000E+00 -0.71807804103E+03  0.71807804103E+03  0.00000000000E+00 0. -1.
         35    2    1    2    0    0  0.00000000000E+00  0.00000000000E+00 -0.69149781182E+03  0.74465827023E+03  0.27630909445E+03 0.  0.
         25    1    3    3    0    0 -0.26877774359E+02  0.55740332331E+02 -0.42465727386E+03  0.44560430838E+03  0.12000000000E+03 0.  0.
         25    1    3    3    0    0  0.26877774359E+02 -0.55740332331E+02 -0.26684053796E+03  0.29905396185E+03  0.12000000000E+03 0.  0.
<mgrwt>
<rscale>  0 0.27630909E+03</rscale>
<asrwt>0</asrwt>
<pdfrwt beam="1">  1        4 0.11047354E+00 0.27630909E+03</pdfrwt>
<pdfrwt beam="2">  1       -4 0.40892661E-02 0.27630909E+03</pdfrwt>
<totfact> 0.41720129E+02</totfact>
</mgrwt>
</event>
<event>
 5    1  0.1107336E+001  0.2728235E+03  0.7818608E-02  0.1099674E+00
         -2   -1    0    0    0  501 -0.00000000000E+00  0.00000000000E+00  0.14036794579E+03  0.14036794579E+03  0.00000000000E+00 0.  1.
          2   -1    0    0  501    0  0.00000000000E+00 -0.00000000000E+00 -0.13256709843E+03  0.13256709843E+03  0.00000000000E+00 0.  1.
         35    2    1    2    0    0  0.00000000000E+00  0.00000000000E+00  0.78008473565E+01  0.27293504422E+03  0.27282354213E+03 0.  0.
         25    1    3    3    0    0  0.73018976804E+01 -0.33155479381E+02 -0.51399358187E+02  0.13488698063E+03  0.12000000000E+03 0.  0.
         25    1    3    3    0    0 -0.73018976804E+01  0.33155479381E+02  0.59200205543E+02  0.13804806358E+03  0.12000000000E+03 0.  0.
<mgrwt>
<rscale>  0 0.27282354E+03</rscale>
<asrwt>0</asrwt>
<pdfrwt beam="1">  1        2 0.20394938E-01 0.27282354E+03</pdfrwt>
<pdfrwt beam="2">  1       -2 0.21595068E-01 0.27282354E+03</pdfrwt>
<totfact> 0.49589808E+03</totfact>
</mgrwt>
</event>
<event>
 5    1  0.1107336E+001  0.2751631E+03  0.7818608E-02  0.1098360E+00
          2   -1    0    0  501    0  0.00000000000E+00  0.00000000000E+00  0.37411814138E+03  0.37411814138E+03  0.00000000000E+00 0. -1.
         -2   -1    0    0    0  501 -0.00000000000E+00 -0.00000000000E+00 -0.50595480681E+02  0.50595480681E+02  0.00000000000E+00 0. -1.
         35    2    1    2    0    0  0.00000000000E+00  0.00000000000E+00  0.32352266070E+03  0.42471362206E+03  0.27516313121E+03 0.  0.
         25    1    3    3    0    0 -0.83563868784E+01 -0.47939695271E+02  0.23350730116E+03  0.26700880749E+03  0.12000000000E+03 0.  0.
         25    1    3    3    0    0  0.83563868784E+01  0.47939695271E+02  0.90015359535E+02  0.15770481456E+03  0.12000000000E+03 0.  0.
<mgrwt>
<rscale>  0 0.27516313E+03</rscale>
<asrwt>0</asrwt>
<pdfrwt beam="1">  1        2 0.57556635E-01 0.27516313E+03</pdfrwt>
<pdfrwt beam="2">  1       -2 0.77839204E-02 0.27516313E+03</pdfrwt>
<totfact> 0.84222787E+03</totfact>
</mgrwt>
</event>
<event>
 5    1  0.1107336E+001  0.2754719E+03  0.7818608E-02  0.1098188E+00
          2   -1    0    0  501    0  0.00000000000E+00  0.00000000000E+00  0.70850975501E+03  0.70850975501E+03  0.00000000000E+00 0.  1.
         -2   -1    0    0    0  501 -0.00000000000E+00 -0.00000000000E+00 -0.26776196937E+02  0.26776196937E+02  0.00000000000E+00 0.  1.
         35    2    1    2    0    0  0.00000000000E+00  0.00000000000E+00  0.68173355808E+03  0.73528595195E+03  0.27547193492E+03 0.  0.
         25    1    3    3    0    0  0.49690934584E+02 -0.45843055219E+02  0.34260080613E+03  0.36925071029E+03  0.12000000000E+03 0.  0.
         25    1    3    3    0    0 -0.49690934584E+02  0.45843055219E+02  0.33913275195E+03  0.36603524166E+03  0.12000000000E+03 0.  0.
<mgrwt>
<rscale>  0 0.27547193E+03</rscale>
<asrwt>0</asrwt>
<pdfrwt beam="1">  1        2 0.10900149E+00 0.27547193E+03</pdfrwt>
<pdfrwt beam="2">  1       -2 0.41194155E-02 0.27547193E+03</pdfrwt>
<totfact> 0.10821202E+04</totfact>
</mgrwt>
</event>
<event>
 5    1  0.1107336E+001  0.2749017E+03  0.7818608E-02  0.1098507E+00
         -2   -1    0    0    0  501 -0.00000000000E+00  0.00000000000E+00  0.10399514819E+02  0.10399514819E+02  0.00000000000E+00 0. -1.
          2   -1    0    0  501    0  0.00000000000E+00 -0.00000000000E+00 -0.18166934078E+04  0.18166934078E+04  0.00000000000E+00 0. -1.
         35    2    1    2    0    0  0.00000000000E+00  0.00000000000E+00 -0.18062938930E+04  0.18270929226E+04  0.27490165526E+03 0.  0.
         25    1    3    3    0    0 -0.48409673991E+01  0.62336026772E+02 -0.74259734766E+03  0.75482450672E+03  0.12000000000E+03 0.  0.
         25    1    3    3    0    0  0.48409673991E+01 -0.62336026772E+02 -0.10636965453E+04  0.10722684159E+04  0.12000000000E+03 0.  0.
<mgrwt>
<rscale>  0 0.27490166E+03</rscale>
<asrwt>0</asrwt>
<pdfrwt beam="1">  1        2 0.27949108E+00 0.27490166E+03</pdfrwt>
<pdfrwt beam="2">  1       -2 0.15999266E-02 0.27490166E+03</pdfrwt>
<totfact> 0.99553377E+03</totfact>
</mgrwt>
</event>
<event>
 5    1  0.1107336E+001  0.2747757E+03  0.7818608E-02  0.1098577E+00
          2   -1    0    0  501    0  0.00000000000E+00  0.00000000000E+00  0.11700507468E+03  0.11700507468E+03  0.00000000000E+00 0.  1.
         -2   -1    0    0    0  501 -0.00000000000E+00 -0.00000000000E+00 -0.16132140098E+03  0.16132140098E+03  0.00000000000E+00 0.  1.
         35    2    1    2    0    0  0.00000000000E+00  0.00000000000E+00 -0.44316326296E+02  0.27832647566E+03  0.27477570904E+03 0.  0.
         25    1    3    3    0    0  0.16240773966E+02 -0.90488070014E+01 -0.87251957095E+02  0.14952774881E+03  0.12000000000E+03 0.  0.
         25    1    3    3    0    0 -0.16240773966E+02  0.90488070014E+01  0.42935630799E+02  0.12879872685E+03  0.12000000000E+03 0.  0.
<mgrwt>
<rscale>  0 0.27477571E+03</rscale>
<asrwt>0</asrwt>
<pdfrwt beam="1">  1        2 0.18000781E-01 0.27477571E+03</pdfrwt>
<pdfrwt beam="2">  1       -2 0.24818677E-01 0.27477571E+03</pdfrwt>
<totfact> 0.44924026E+03</totfact>
</mgrwt>
</event>
<event>
 5    1  0.1107336E+001  0.2747498E+03  0.7818608E-02  0.1098592E+00
          2   -1    0    0  501    0  0.00000000000E+00  0.00000000000E+00  0.52165338691E+02  0.52165338691E+02  0.00000000000E+00 0. -1.
         -2   -1    0    0    0  501 -0.00000000000E+00 -0.00000000000E+00 -0.36177008288E+03  0.36177008288E+03  0.00000000000E+00 0. -1.
         35    2    1    2    0    0  0.00000000000E+00  0.00000000000E+00 -0.30960474419E+03  0.41393542157E+03  0.27474976908E+03 0.  0.
         25    1    3    3    0    0 -0.11603780507E+02  0.65279733975E+02 -0.14168832410E+03  0.19715900328E+03  0.12000000000E+03 0.  0.
         25    1    3    3    0    0  0.11603780507E+02 -0.65279733975E+02 -0.16791642009E+03  0.21677641829E+03  0.12000000000E+03 0.  0.
<mgrwt>
<rscale>  0 0.27474977E+03</rscale>
<asrwt>0</asrwt>
<pdfrwt beam="1">  1        2 0.80254366E-02 0.27474977E+03</pdfrwt>
<pdfrwt beam="2">  1       -2 0.55656937E-01 0.27474977E+03</pdfrwt>
<totfact> 0.26080615E+03</totfact>
</mgrwt>
</event>
<event>
 5    1  0.1107336E+001  0.2751159E+03  0.7818608E-02  0.1098387E+00
          2   -1    0    0  501    0  0.00000000000E+00  0.00000000000E+00  0.23286610365E+04  0.23286610365E+04  0.00000000000E+00 0. -1.
         -2   -1    0    0    0  501 -0.00000000000E+00 -0.00000000000E+00 -0.81257791867E+01  0.81257791867E+01  0.00000000000E+00 0. -1.
         35    2    1    2    0    0  0.00000000000E+00  0.00000000000E+00  0.23205352573E+04  0.23367868157E+04  0.27511586929E+03 0.  0.
         25    1    3    3    0    0  0.38583160500E+02  0.53260737486E+02  0.10411058688E+04  0.10500603775E+04  0.12000000000E+03 0.  0.
         25    1    3    3    0    0 -0.38583160500E+02 -0.53260737486E+02  0.12794293886E+04  0.12867264382E+04  0.12000000000E+03 0.  0.
<mgrwt>
<rscale>  0 0.27511587E+03</rscale>
<asrwt>0</asrwt>
<pdfrwt beam="1">  1        2 0.35825501E+00 0.27511587E+03</pdfrwt>
<pdfrwt beam="2">  1       -2 0.12501217E-02 0.27511587E+03</pdfrwt>
<totfact> 0.76527781E+03</totfact>
</mgrwt>
</event>
<event>
 5    1  0.1107336E+001  0.2746929E+03  0.7818608E-02  0.1098623E+00
         -3   -1    0    0    0  501 -0.00000000000E+00  0.00000000000E+00  0.52403533596E+03  0.52403533596E+03  0.00000000000E+00 0. -1.
          3   -1    0    0  501    0  0.00000000000E+00 -0.00000000000E+00 -0.35997667814E+02  0.35997667814E+02  0.00000000000E+00 0. -1.
         35    2    1    2    0    0  0.00000000000E+00  0.00000000000E+00  0.48803766815E+03  0.56003300377E+03  0.27469291907E+03 0.  0.
         25    1    3    3    0    0  0.50860938300E+02  0.41161385463E+02  0.27159529907E+03  0.30404786001E+03  0.12000000000E+03 0.  0.
         25    1    3    3    0    0 -0.50860938300E+02 -0.41161385463E+02  0.21644236907E+03  0.25598514377E+03  0.12000000000E+03 0.  0.
<mgrwt>
<rscale>  0 0.27469292E+03</rscale>
<asrwt>0</asrwt>
<pdfrwt beam="1">  1        3 0.55381031E-02 0.27469292E+03</pdfrwt>
<pdfrwt beam="2">  1       -3 0.80620816E-01 0.27469292E+03</pdfrwt>
<totfact> 0.72066819E+02</totfact>
</mgrwt>
</event>
<event>
 5    1  0.1107336E+001  0.2754785E+03  0.7818608E-02  0.1098184E+00
          3   -1    0    0  501    0  0.00000000000E+00  0.00000000000E+00  0.13638535230E+03  0.13638535230E+03  0.00000000000E+00 0.  1.
         -3   -1    0    0    0  501 -0.00000000000E+00 -0.00000000000E+00 -0.13910660001E+03  0.13910660001E+03  0.00000000000E+00 0.  1.
         35    2    1    2    0    0  0.00000000000E+00  0.00000000000E+00 -0.27212477188E+01  0.27549195231E+03  0.27547851205E+03 0.  0.
         25    1    3    3    0    0 -0.17545948626E+02 -0.64723717336E+02  0.73048292346E+01  0.13766038075E+03  0.12000000000E+03 0.  0.
         25    1    3    3    0    0  0.17545948626E+02  0.64723717336E+02 -0.10026076953E+02  0.13783157156E+03  0.12000000000E+03 0.  0.
<mgrwt>
<rscale>  0 0.27547851E+03</rscale>
<asrwt>0</asrwt>
<pdfrwt beam="1">  1        3 0.20982362E-01 0.27547851E+03</pdfrwt>
<pdfrwt beam="2">  1       -3 0.21401015E-01 0.27547851E+03</pdfrwt>
<totfact> 0.10425603E+03</totfact>
</mgrwt>
</event>
<event>
 5    1  0.1107336E+001  0.2748854E+03  0.7818608E-02  0.1098516E+00
         -1   -1    0    0    0  501 -0.00000000000E+00  0.00000000000E+00  0.64244885651E+01  0.64244885651E+01  0.00000000000E+00 0. -1.
          1   -1    0    0  501    0  0.00000000000E+00 -0.00000000000E+00 -0.29403898094E+04  0.29403898094E+04  0.00000000000E+00 0. -1.
         35    2    1    2    0    0  0.00000000000E+00  0.00000000000E+00 -0.29339653209E+04  0.29468142980E+04  0.27488543583E+03 0.  0.
         25    1    3    3    0    0  0.44604615491E+01  0.63535029225E+02 -0.12436776893E+04  0.12510758532E+04  0.12000000000E+03 0.  0.
         25    1    3    3    0    0 -0.44604615491E+01 -0.63535029225E+02 -0.16902876316E+04  0.16957384448E+04  0.12000000000E+03 0.  0.
<mgrwt>
<rscale>  0 0.27488544E+03</rscale>
<asrwt>0</asrwt>
<pdfrwt beam="1">  1        1 0.45236939E+00 0.27488544E+03</pdfrwt>
<pdfrwt beam="2">  1       -1 0.98837909E-03 0.27488544E+03</pdfrwt>
<totfact> 0.15237937E+03</totfact>
</mgrwt>
</event>
<event>
 5    1  0.1107336E+001  0.2753196E+03  0.7818608E-02  0.1098273E+00
          2   -1    0    0  501    0  0.00000000000E+00  0.00000000000E+00  0.37034164673E+03  0.37034164673E+03  0.00000000000E+00 0.  1.
         -2   -1    0    0    0  501 -0.00000000000E+00 -0.00000000000E+00 -0.51169561536E+02  0.51169561536E+02  0.00000000000E+00 0.  1.
         35    2    1    2    0    0  0.00000000000E+00  0.00000000000E+00  0.31917208519E+03  0.42151120826E+03  0.27531959379E+03 0.  0.
         25    1    3    3    0    0  0.13726349603E+02  0.20110302019E+02  0.63275010712E+02  0.13782802292E+03  0.12000000000E+03 0.  0.
         25    1    3    3    0    0 -0.13726349603E+02 -0.20110302019E+02  0.25589707448E+03  0.28368318535E+03  0.12000000000E+03 0.  0.
<mgrwt>
<rscale>  0 0.27531959E+03</rscale>
<asrwt>0</asrwt>
<pdfrwt beam="1">  1        2 0.56975636E-01 0.27531959E+03</pdfrwt>
<pdfrwt beam="2">  1       -2 0.78722405E-02 0.27531959E+03</pdfrwt>
<totfact> 0.83668618E+03</totfact>
</mgrwt>
</event>
<event>
 5    1  0.1107336E+001  0.2750507E+03  0.7818608E-02  0.1098423E+00
         -2   -1    0    0    0  501 -0.00000000000E+00  0.00000000000E+00  0.28008439736E+03  0.28008439736E+03  0.00000000000E+00 0.  1.
          2   -1    0    0  501    0  0.00000000000E+00 -0.00000000000E+00 -0.67526860394E+02  0.67526860394E+02  0.00000000000E+00 0.  1.
         35    2    1    2    0    0  0.00000000000E+00  0.00000000000E+00  0.21255753696E+03  0.34761125775E+03  0.27505068623E+03 0.  0.
         25    1    3    3    0    0  0.50750649113E+02  0.11406610156E+02  0.52548630777E+02  0.14095069257E+03  0.12000000000E+03 0.  0.
         25    1    3    3    0    0 -0.50750649113E+02 -0.11406610156E+02  0.16000890619E+03  0.20666056518E+03  0.12000000000E+03 0.  0.
<mgrwt>
<rscale>  0 0.27505069E+03</rscale>
<asrwt>0</asrwt>
<pdfrwt beam="1">  1        2 0.10388748E-01 0.27505069E+03</pdfrwt>
<pdfrwt beam="2">  1       -2 0.43089907E-01 0.27505069E+03</pdfrwt>
<totfact> 0.31376601E+03</totfact>
</mgrwt>
</event>
<event>
 5    1  0.1107336E+001  0.2757555E+03  0.7818608E-02  0.1098030E+00
          1   -1    0    0  501    0  0.00000000000E+00  0.00000000000E+00  0.73085553205E+03  0.73085553205E+03  0.00000000000E+00 0. -1.
         -1   -1    0    0    0  501 -0.00000000000E+00 -0.00000000000E+00 -0.26010979866E+02  0.26010979866E+02  0.00000000000E+00 0. -1.
         35    2    1    2    0    0  0.00000000000E+00  0.00000000000E+00  0.70484455219E+03  0.75686651192E+03  0.27575546072E+03 0.  0.
         25    1    3    3    0    0 -0.18553985922E+02 -0.18785674241E+02  0.18072770553E+03  0.21853982588E+03  0.12000000000E+03 0.  0.
         25    1    3    3    0    0  0.18553985922E+02  0.18785674241E+02  0.52411684666E+03  0.53832668604E+03  0.12000000000E+03 0.  0.
<mgrwt>
<rscale>  0 0.27575546E+03</rscale>
<asrwt>0</asrwt>
<pdfrwt beam="1">  1        1 0.11243930E+00 0.27575546E+03</pdfrwt>
<pdfrwt beam="2">  1       -1 0.40016898E-02 0.27575546E+03</pdfrwt>
<totfact> 0.64833240E+03</totfact>
</mgrwt>
</event>
<event>
 5    1  0.1107336E+001  0.2740091E+03  0.7818608E-02  0.1099007E+00
         -1   -1    0    0    0  501 -0.00000000000E+00  0.00000000000E+00  0.14665827799E+02  0.14665827799E+02  0.00000000000E+00 0.  1.
          1   -1    0    0  501    0  0.00000000000E+00 -0.00000000000E+00 -0.12798625175E+04  0.12798625175E+04  0.00000000000E+00 0.  1.
         35    2    1    2    0    0  0.00000000000E+00  0.00000000000E+00 -0.12651966897E+04  0.12945283453E+04  0.27400907494E+03 0.  0.
         25    1    3    3    0    0  0.31134184887E+02 -0.36823763453E+02 -0.41895745296E+03  0.43846399443E+03  0.12000000000E+03 0.  0.
         25    1    3    3    0    0 -0.31134184887E+02  0.36823763453E+02 -0.84623923673E+03  0.85606435086E+03  0.12000000000E+03 0.  0.
<mgrwt>
<rscale>  0 0.27400907E+03</rscale>
<asrwt>0</asrwt>
<pdfrwt beam="1">  1        1 0.19690193E+00 0.27400907E+03</pdfrwt>
<pdfrwt beam="2">  1       -1 0.22562811E-02 0.27400907E+03</pdfrwt>
<totfact> 0.57865430E+03</totfact>
</mgrwt>
</event>
<event>
 5    1  0.1107336E+001  0.2762723E+03  0.7818608E-02  0.1097743E+00
          1   -1    0    0  501    0  0.00000000000E+00  0.00000000000E+00  0.39841886329E+03  0.39841886329E+03  0.00000000000E+00 0.  1.
         -1   -1    0    0    0  501 -0.00000000000E+00 -0.00000000000E+00 -0.47893301493E+02  0.47893301493E+02  0.00000000000E+00 0.  1.
         35    2    1    2    0    0  0.00000000000E+00  0.00000000000E+00  0.35052556180E+03  0.44631216479E+03  0.27627229134E+03 0.  0.
         25    1    3    3    0    0  0.41726600208E+02 -0.29769490521E+01  0.87793515206E+02  0.15445929141E+03  0.12000000000E+03 0.  0.
         25    1    3    3    0    0 -0.41726600208E+02  0.29769490521E+01  0.26273204659E+03  0.29185287338E+03  0.12000000000E+03 0.  0.
<mgrwt>
<rscale>  0 0.27627229E+03</rscale>
<asrwt>0</asrwt>
<pdfrwt beam="1">  1        1 0.61295208E-01 0.27627229E+03</pdfrwt>
<pdfrwt beam="2">  1       -1 0.73682005E-02 0.27627229E+03</pdfrwt>
<totfact> 0.59164522E+03</totfact>
</mgrwt>
</event>
<event>
 5    1  0.1107336E+001  0.2737285E+03  0.7818608E-02  0.1099164E+00
         -1   -1    0    0    0  501 -0.00000000000E+00  0.00000000000E+00  0.18033657751E+02  0.18033657751E+02  0.00000000000E+00 0.  1.
          1   -1    0    0  501    0  0.00000000000E+00 -0.00000000000E+00 -0.10387145111E+04  0.10387145111E+04  0.00000000000E+00 0.  1.
         35    2    1    2    0    0  0.00000000000E+00  0.00000000000E+00 -0.10206808534E+04  0.10567481689E+04  0.27372849318E+03 0.  0.
         25    1    3    3    0    0 -0.64500802274E+02  0.10557714449E+02 -0.54024506693E+03  0.55725806514E+03  0.12000000000E+03 0.  0.
         25    1    3    3    0    0  0.64500802274E+02 -0.10557714449E+02 -0.48043578646E+03  0.49949010375E+03  0.12000000000E+03 0.  0.
<mgrwt>
<rscale>  0 0.27372849E+03</rscale>
<asrwt>0</asrwt>
<pdfrwt beam="1">  1        1 0.15980223E+00 0.27372849E+03</pdfrwt>
<pdfrwt beam="2">  1       -1 0.27744089E-02 0.27372849E+03</pdfrwt>
<totfact> 0.63310441E+03</totfact>
</mgrwt>
</event>
<event>
 5    1  0.1107336E+001  0.2749871E+03  0.7818608E-02  0.1098459E+00
         -1   -1    0    0    0  501 -0.00000000000E+00  0.00000000000E+00  0.35638972700E+02  0.35638972700E+02  0.00000000000E+00 0. -1.
          1   -1    0    0  501    0  0.00000000000E+00 -0.00000000000E+00 -0.53044403242E+03  0.53044403242E+03  0.00000000000E+00 0. -1.
         35    2    1    2    0    0  0.00000000000E+00  0.00000000000E+00 -0.49480505972E+03  0.56608300512E+03  0.27498712981E+03 0.  0.
         25    1    3    3    0    0 -0.46871573458E+02 -0.97580793903E+01 -0.15057668016E+03  0.19840741196E+03  0.12000000000E+03 0.  0.
         25    1    3    3    0    0  0.46871573458E+02  0.97580793903E+01 -0.34422837956E+03  0.36767559316E+03  0.12000000000E+03 0.  0.
<mgrwt>
<rscale>  0 0.27498713E+03</rscale>
<asrwt>0</asrwt>
<pdfrwt beam="1">  1        1 0.81606768E-01 0.27498713E+03</pdfrwt>
<pdfrwt beam="2">  1       -1 0.54829193E-02 0.27498713E+03</pdfrwt>
<totfact> 0.63565739E+03</totfact>
</mgrwt>
</event>
<event>
 5    1  0.1107336E+001  0.2751907E+03  0.7818608E-02  0.1098345E+00
         -2   -1    0    0    0  501 -0.00000000000E+00  0.00000000000E+00  0.88787605611E+01  0.88787605611E+01  0.00000000000E+00 0.  1.
          2   -1    0    0  501    0  0.00000000000E+00 -0.00000000000E+00 -0.21323340684E+04  0.21323340684E+04  0.00000000000E+00 0.  1.
         35    2    1    2    0    0  0.00000000000E+00  0.00000000000E+00 -0.21234553079E+04  0.21412128290E+04  0.27519072390E+03 0.  0.
         25    1    3    3    0    0  0.10394100385E+02 -0.26889294657E+02 -0.58834780292E+03  0.60115240056E+03  0.12000000000E+03 0.  0.
         25    1    3    3    0    0 -0.10394100385E+02  0.26889294657E+02 -0.15351075049E+04  0.15400604284E+04  0.12000000000E+03 0.  0.
<mgrwt>
<rscale>  0 0.27519072E+03</rscale>
<asrwt>0</asrwt>
<pdfrwt beam="1">  1        2 0.32805138E+00 0.27519072E+03</pdfrwt>
<pdfrwt beam="2">  1       -2 0.13659632E-02 0.27519072E+03</pdfrwt>
<totfact> 0.85580980E+03</totfact>
</mgrwt>
</event>
<event>
 5    1  0.1107336E+001  0.2747035E+03  0.7818608E-02  0.1098617E+00
          2   -1    0    0  501    0  0.00000000000E+00  0.00000000000E+00  0.74622191548E+02  0.74622191548E+02  0.00000000000E+00 0.  1.
         -2   -1    0    0    0  501 -0.00000000000E+00 -0.00000000000E+00 -0.25281366662E+03  0.25281366662E+03  0.00000000000E+00 0.  1.
         35    2    1    2    0    0  0.00000000000E+00  0.00000000000E+00 -0.17819147507E+03  0.32743585816E+03  0.27470354826E+03 0.  0.
         25    1    3    3    0    0  0.33758382852E+01 -0.66706194558E+02 -0.86596260981E+02  0.16235770722E+03  0.12000000000E+03 0.  0.
         25    1    3    3    0    0 -0.33758382852E+01  0.66706194558E+02 -0.91595214089E+02  0.16507815095E+03  0.12000000000E+03 0.  0.
<mgrwt>
<rscale>  0 0.27470355E+03</rscale>
<asrwt>0</asrwt>
<pdfrwt beam="1">  1        2 0.11480337E-01 0.27470355E+03</pdfrwt>
<pdfrwt beam="2">  1       -2 0.38894410E-01 0.27470355E+03</pdfrwt>
<totfact> 0.33771590E+03</totfact>
</mgrwt>
</event>
<event>
 5    1  0.1107336E+001  0.2752105E+03  0.7818608E-02  0.1098334E+00
         -2   -1    0    0    0  501 -0.00000000000E+00  0.00000000000E+00  0.22582716140E+02  0.22582716140E+02  0.00000000000E+00 0.  1.
          2   -1    0    0  501    0  0.00000000000E+00 -0.00000000000E+00 -0.83848240634E+03  0.83848240634E+03  0.00000000000E+00 0.  1.
         35    2    1    2    0    0  0.00000000000E+00  0.00000000000E+00 -0.81589969020E+03  0.86106512248E+03  0.27521053883E+03 0.  0.
         25    1    3    3    0    0 -0.66568073596E+02 -0.84627022849E+01 -0.42572721145E+03  0.44737745173E+03  0.12000000000E+03 0.  0.
         25    1    3    3    0    0  0.66568073596E+02  0.84627022849E+01 -0.39017247876E+03  0.41368767075E+03  0.12000000000E+03 0.  0.
<mgrwt>
<rscale>  0 0.27521054E+03</rscale>
<asrwt>0</asrwt>
<pdfrwt beam="1">  1        2 0.12899728E+00 0.27521054E+03</pdfrwt>
<pdfrwt beam="2">  1       -2 0.34742643E-02 0.27521054E+03</pdfrwt>
<totfact> 0.11308953E+04</totfact>
</mgrwt>
</event>
<event>
 5    1  0.1107336E+001  0.2742510E+03  0.7818608E-02  0.1098871E+00
         -2   -1    0    0    0  501 -0.00000000000E+00  0.00000000000E+00  0.91325050418E+01  0.91325050418E+01  0.00000000000E+00 0.  1.
          2   -1    0    0  501    0  0.00000000000E+00 -0.00000000000E+00 -0.20589539635E+04  0.20589539635E+04  0.00000000000E+00 0.  1.
         35    2    1    2    0    0  0.00000000000E+00  0.00000000000E+00 -0.20498214584E+04  0.20680864685E+04  0.27425103429E+03 0.  0.
         25    1    3    3    0    0 -0.55879360902E+02 -0.21092842935E+02 -0.12429439331E+04  0.12501508036E+04  0.12000000000E+03 0.  0.
         25    1    3    3    0    0  0.55879360902E+02  0.21092842935E+02 -0.80687752530E+03  0.81793566485E+03  0.12000000000E+03 0.  0.
<mgrwt>
<rscale>  0 0.27425103E+03</rscale>
<asrwt>0</asrwt>
<pdfrwt beam="1">  1        2 0.31676249E+00 0.27425103E+03</pdfrwt>
<pdfrwt beam="2">  1       -2 0.14049993E-02 0.27425103E+03</pdfrwt>
<totfact> 0.89797585E+03</totfact>
</mgrwt>
</event>
<event>
 5    1  0.1107336E+001  0.2744547E+03  0.7818608E-02  0.1098757E+00
          2   -1    0    0  501    0  0.00000000000E+00  0.00000000000E+00  0.13528870979E+04  0.13528870979E+04  0.00000000000E+00 0. -1.
         -2   -1    0    0    0  501 -0.00000000000E+00 -0.00000000000E+00 -0.13919377035E+02  0.13919377035E+02  0.00000000000E+00 0. -1.
         35    2    1    2    0    0  0.00000000000E+00  0.00000000000E+00  0.13389677208E+04  0.13668064749E+04  0.27445470009E+03 0.  0.
         25    1    3    3    0    0  0.46698711616E+02  0.28372127413E+02  0.48013610013E+03  0.49791206244E+03  0.12000000000E+03 0.  0.
         25    1    3    3    0    0 -0.46698711616E+02 -0.28372127413E+02  0.85883162072E+03  0.86889441247E+03  0.12000000000E+03 0.  0.
<mgrwt>
<rscale>  0 0.27445470E+03</rscale>
<asrwt>0</asrwt>
<pdfrwt beam="1">  1        2 0.20813637E+00 0.27445470E+03</pdfrwt>
<pdfrwt beam="2">  1       -2 0.21414437E-02 0.27445470E+03</pdfrwt>
<totfact> 0.11456473E+04</totfact>
</mgrwt>
</event>
<event>
 5    1  0.1107336E+001  0.2749004E+03  0.7818608E-02  0.1098507E+00
          1   -1    0    0  501    0  0.00000000000E+00  0.00000000000E+00  0.47777915492E+03  0.47777915492E+03  0.00000000000E+00 0.  1.
         -1   -1    0    0    0  501 -0.00000000000E+00 -0.00000000000E+00 -0.39542451047E+02  0.39542451047E+02  0.00000000000E+00 0.  1.
         35    2    1    2    0    0  0.00000000000E+00  0.00000000000E+00  0.43823670387E+03  0.51732160597E+03  0.27490040993E+03 0.  0.
         25    1    3    3    0    0  0.19875848771E+02  0.29724170113E+02  0.32580425316E+03  0.34903722872E+03  0.12000000000E+03 0.  0.
         25    1    3    3    0    0 -0.19875848771E+02 -0.29724170113E+02  0.11243245072E+03  0.16828437725E+03  0.12000000000E+03 0.  0.
<mgrwt>
<rscale>  0 0.27490041E+03</rscale>
<asrwt>0</asrwt>
<pdfrwt beam="1">  1        1 0.73504481E-01 0.27490041E+03</pdfrwt>
<pdfrwt beam="2">  1       -1 0.60834543E-02 0.27490041E+03</pdfrwt>
<totfact> 0.62470056E+03</totfact>
</mgrwt>
</event>
<event>
 5    1  0.1107336E+001  0.2746504E+03  0.7818608E-02  0.1098647E+00
         -2   -1    0    0    0  501 -0.00000000000E+00  0.00000000000E+00  0.58887594259E+01  0.58887594259E+01  0.00000000000E+00 0.  1.
          2   -1    0    0  501    0  0.00000000000E+00 -0.00000000000E+00 -0.32024091363E+04  0.32024091363E+04  0.00000000000E+00 0.  1.
         35    2    1    2    0    0  0.00000000000E+00  0.00000000000E+00 -0.31965203769E+04  0.32082978958E+04  0.27465044684E+03 0.  0.
         25    1    3    3    0    0  0.24345760240E+02  0.60425125987E+02 -0.14272544734E+04  0.14337709872E+04  0.12000000000E+03 0.  0.
         25    1    3    3    0    0 -0.24345760240E+02 -0.60425125987E+02 -0.17692659035E+04  0.17745269085E+04  0.12000000000E+03 0.  0.
<mgrwt>
<rscale>  0 0.27465045E+03</rscale>
<asrwt>0</asrwt>
<pdfrwt beam="1">  1        2 0.49267736E+00 0.27465045E+03</pdfrwt>
<pdfrwt beam="2">  1       -2 0.90596477E-03 0.27465045E+03</pdfrwt>
<totfact> 0.38678375E+03</totfact>
</mgrwt>
</event>
<event>
 5    1  0.1107336E+001  0.2747942E+03  0.7818608E-02  0.1098567E+00
          1   -1    0    0  501    0  0.00000000000E+00  0.00000000000E+00  0.98519007096E+02  0.98519007096E+02  0.00000000000E+00 0. -1.
         -1   -1    0    0    0  501 -0.00000000000E+00 -0.00000000000E+00 -0.19161749194E+03  0.19161749194E+03  0.00000000000E+00 0. -1.
         35    2    1    2    0    0  0.00000000000E+00  0.00000000000E+00 -0.93098484846E+02  0.29013649904E+03  0.27479421427E+03 0.  0.
         25    1    3    3    0    0 -0.61628979618E+01  0.65731612424E+02 -0.58083396110E+02  0.14876930828E+03  0.12000000000E+03 0.  0.
         25    1    3    3    0    0  0.61628979618E+01 -0.65731612424E+02 -0.35015088736E+02  0.14136719076E+03  0.12000000000E+03 0.  0.
<mgrwt>
<rscale>  0 0.27479421E+03</rscale>
<asrwt>0</asrwt>
<pdfrwt beam="1">  1        1 0.15156771E-01 0.27479421E+03</pdfrwt>
<pdfrwt beam="2">  1       -1 0.29479614E-01 0.27479421E+03</pdfrwt>
<totfact> 0.38483521E+03</totfact>
</mgrwt>
</event>
<event>
 5    1  0.1107336E+001  0.2756775E+03  0.7818608E-02  0.1098073E+00
          2   -1    0    0  501    0  0.00000000000E+00  0.00000000000E+00  0.36876241229E+03  0.36876241229E+03  0.00000000000E+00 0. -1.
         -2   -1    0    0    0  501 -0.00000000000E+00 -0.00000000000E+00 -0.51522403832E+02  0.51522403832E+02  0.00000000000E+00 0. -1.
         35    2    1    2    0    0  0.00000000000E+00  0.00000000000E+00  0.31724000846E+03  0.42028481613E+03  0.27567753571E+03 0.  0.
         25    1    3    3    0    0 -0.38894890338E+02 -0.21047062193E+02  0.80231703513E+02  0.15097323461E+03  0.12000000000E+03 0.  0.
         25    1    3    3    0    0  0.38894890338E+02  0.21047062193E+02  0.23700830495E+03  0.26931158151E+03  0.12000000000E+03 0.  0.
<mgrwt>
<rscale>  0 0.27567754E+03</rscale>
<asrwt>0</asrwt>
<pdfrwt beam="1">  1        2 0.56732677E-01 0.27567754E+03</pdfrwt>
<pdfrwt beam="2">  1       -2 0.79265239E-02 0.27567754E+03</pdfrwt>
<totfact> 0.83163908E+03</totfact>
</mgrwt>
</event>
<event>
 5    1  0.1107336E+001  0.2755351E+03  0.7818608E-02  0.1098153E+00
          2   -1    0    0  501    0  0.00000000000E+00  0.00000000000E+00  0.10587082067E+04  0.10587082067E+04  0.00000000000E+00 0. -1.
         -2   -1    0    0    0  501 -0.00000000000E+00 -0.00000000000E+00 -0.17927416898E+02  0.17927416898E+02  0.00000000000E+00 0. -1.
         35    2    1    2    0    0  0.00000000000E+00  0.00000000000E+00  0.10407807898E+04  0.10766356236E+04  0.27553514037E+03 0.  0.
         25    1    3    3    0    0 -0.53041353487E+02  0.35806605101E+02  0.60638994316E+03  0.62145334605E+03  0.12000000000E+03 0.  0.
         25    1    3    3    0    0  0.53041353487E+02 -0.35806605101E+02  0.43439084660E+03  0.45518227751E+03  0.12000000000E+03 0.  0.
<mgrwt>
<rscale>  0 0.27553514E+03</rscale>
<asrwt>0</asrwt>
<pdfrwt beam="1">  1        2 0.16287814E+00 0.27553514E+03</pdfrwt>
<pdfrwt beam="2">  1       -2 0.27580650E-02 0.27553514E+03</pdfrwt>
<totfact> 0.11586665E+04</totfact>
</mgrwt>
</event>
<event>
 5    1  0.1107336E+001  0.2751411E+03  0.7818608E-02  0.1098373E+00
          3   -1    0    0  501    0  0.00000000000E+00  0.00000000000E+00  0.13757499624E+02  0.13757499624E+02  0.00000000000E+00 0.  1.
         -3   -1    0    0    0  501 -0.00000000000E+00 -0.00000000000E+00 -0.13756615282E+04  0.13756615282E+04  0.00000000000E+00 0.  1.
         35    2    1    2    0    0  0.00000000000E+00  0.00000000000E+00 -0.13619040285E+04  0.13894190278E+04  0.27514114891E+03 0.  0.
         25    1    3    3    0    0  0.36417920331E+02  0.16052058385E+02 -0.95484383330E+03  0.96317738735E+03  0.12000000000E+03 0.  0.
         25    1    3    3    0    0 -0.36417920331E+02 -0.16052058385E+02 -0.40706019524E+03  0.42624164045E+03  0.12000000000E+03 0.  0.
<mgrwt>
<rscale>  0 0.27514115E+03</rscale>
<asrwt>0</asrwt>
<pdfrwt beam="1">  1        3 0.21165380E-02 0.27514115E+03</pdfrwt>
<pdfrwt beam="2">  1       -3 0.21164027E+00 0.27514115E+03</pdfrwt>
<totfact> 0.30020858E+02</totfact>
</mgrwt>
</event>
<event>
 5    1  0.1107336E+001  0.2741297E+03  0.7818608E-02  0.1098939E+00
          2   -1    0    0  501    0  0.00000000000E+00  0.00000000000E+00  0.46351251877E+03  0.46351251877E+03  0.00000000000E+00 0.  1.
         -2   -1    0    0    0  501 -0.00000000000E+00 -0.00000000000E+00 -0.40531311159E+02  0.40531311159E+02  0.00000000000E+00 0.  1.
         35    2    1    2    0    0  0.00000000000E+00  0.00000000000E+00  0.42298120761E+03  0.50404382993E+03  0.27412967825E+03 0.  0.
         25    1    3    3    0    0  0.54130885737E+02  0.37254676421E+02  0.22673151393E+03  0.26481171257E+03  0.12000000000E+03 0.  0.
         25    1    3    3    0    0 -0.54130885737E+02 -0.37254676421E+02  0.19624969369E+03  0.23923211736E+03  0.12000000000E+03 0.  0.
<mgrwt>
<rscale>  0 0.27412968E+03</rscale>
<asrwt>0</asrwt>
<pdfrwt beam="1">  1        2 0.71309614E-01 0.27412968E+03</pdfrwt>
<pdfrwt beam="2">  1       -2 0.62355867E-02 0.27412968E+03</pdfrwt>
<totfact> 0.93948443E+03</totfact>
</mgrwt>
</event>
<event>
 5    1  0.1107336E+001  0.2745467E+03  0.7818608E-02  0.1098705E+00
          1   -1    0    0  501    0  0.00000000000E+00  0.00000000000E+00  0.41117667028E+03  0.41117667028E+03  0.00000000000E+00 0. -1.
         -1   -1    0    0    0  501 -0.00000000000E+00 -0.00000000000E+00 -0.45829377792E+02  0.45829377792E+02  0.00000000000E+00 0. -1.
         35    2    1    2    0    0  0.00000000000E+00  0.00000000000E+00  0.36534729249E+03  0.45700604807E+03  0.27454668792E+03 0.  0.
         25    1    3    3    0    0 -0.20856348969E+02  0.42441880000E+02  0.10446174106E+03  0.16597757624E+03  0.12000000000E+03 0.  0.
         25    1    3    3    0    0  0.20856348969E+02 -0.42441880000E+02  0.26088555143E+03  0.29102847183E+03  0.12000000000E+03 0.  0.
<mgrwt>
<rscale>  0 0.27454669E+03</rscale>
<asrwt>0</asrwt>
<pdfrwt beam="1">  1        1 0.63257947E-01 0.27454669E+03</pdfrwt>
<pdfrwt beam="2">  1       -1 0.70506738E-02 0.27454669E+03</pdfrwt>
<totfact> 0.60739579E+03</totfact>
</mgrwt>
</event>
<event>
 5    1  0.1107336E+001  0.2754026E+03  0.7818608E-02  0.1098227E+00
          2   -1    0    0  501    0  0.00000000000E+00  0.00000000000E+00  0.51376392400E+03  0.51376392400E+03  0.00000000000E+00 0.  1.
         -2   -1    0    0    0  501 -0.00000000000E+00 -0.00000000000E+00 -0.36907329046E+02  0.36907329046E+02  0.00000000000E+00 0.  1.
         35    2    1    2    0    0  0.00000000000E+00  0.00000000000E+00  0.47685659495E+03  0.55067125304E+03  0.27540264483E+03 0.  0.
         25    1    3    3    0    0  0.38203750991E+02 -0.20432001059E+02  0.34203050769E+03  0.36505049164E+03  0.12000000000E+03 0.  0.
         25    1    3    3    0    0 -0.38203750991E+02  0.20432001059E+02  0.13482608726E+03  0.18562076140E+03  0.12000000000E+03 0.  0.
<mgrwt>
<rscale>  0 0.27540264E+03</rscale>
<asrwt>0</asrwt>
<pdfrwt beam="1">  1        2 0.79040599E-01 0.27540264E+03</pdfrwt>
<pdfrwt beam="2">  1       -2 0.56780510E-02 0.27540264E+03</pdfrwt>
<totfact> 0.96722376E+03</totfact>
</mgrwt>
</event>
<event>
 5    1  0.1107336E+001  0.2755873E+03  0.7818608E-02  0.1098124E+00
          1   -1    0    0  501    0  0.00000000000E+00  0.00000000000E+00  0.23263613557E+04  0.23263613557E+04  0.00000000000E+00 0. -1.
         -1   -1    0    0    0  501 -0.00000000000E+00 -0.00000000000E+00 -0.81617108210E+01  0.81617108210E+01  0.00000000000E+00 0. -1.
         35    2    1    2    0    0  0.00000000000E+00  0.00000000000E+00  0.23181996449E+04  0.23345230665E+04  0.27558729035E+03 0.  0.
         25    1    3    3    0    0  0.65680145824E+02  0.15197401338E+02  0.11040403265E+04  0.11125870236E+04  0.12000000000E+03 0.  0.
         25    1    3    3    0    0 -0.65680145824E+02 -0.15197401338E+02  0.12141593184E+04  0.12219360429E+04  0.12000000000E+03 0.  0.
<mgrwt>
<rscale>  0 0.27558729E+03</rscale>
<asrwt>0</asrwt>
<pdfrwt beam="1">  1        1 0.35790122E+00 0.27558729E+03</pdfrwt>
<pdfrwt beam="2">  1       -1 0.12556497E-02 0.27558729E+03</pdfrwt>
<totfact> 0.27925959E+03</totfact>
</mgrwt>
</event>
<event>
 5    1  0.1107336E+001  0.2829911E+03  0.7818608E-02  0.1094066E+00
         -2   -1    0    0    0  501 -0.00000000000E+00  0.00000000000E+00  0.14456737978E+03  0.14456737978E+03  0.00000000000E+00 0.  1.
          2   -1    0    0  501    0  0.00000000000E+00 -0.00000000000E+00 -0.13848896980E+03  0.13848896980E+03  0.00000000000E+00 0.  1.
         35    2    1    2    0    0  0.00000000000E+00  0.00000000000E+00  0.60784099774E+01  0.28305634958E+03  0.28299107754E+03 0.  0.
         25    1    3    3    0    0 -0.36262117507E+02  0.56136941253E+02 -0.30949364765E+02  0.14079829729E+03  0.12000000000E+03 0.  0.
         25    1    3    3    0    0  0.36262117507E+02 -0.56136941253E+02  0.37027774742E+02  0.14225805229E+03  0.12000000000E+03 0.  0.
<mgrwt>
<rscale>  0 0.28299108E+03</rscale>
<asrwt>0</asrwt>
<pdfrwt beam="1">  1        2 0.21305995E-01 0.28299108E+03</pdfrwt>
<pdfrwt beam="2">  1       -2 0.22241135E-01 0.28299108E+03</pdfrwt>
<totfact> 0.44886120E+03</totfact>
</mgrwt>
</event>
<event>
 5    1  0.1107336E+001  0.2745852E+03  0.7818608E-02  0.1098684E+00
         -2   -1    0    0    0  501 -0.00000000000E+00  0.00000000000E+00  0.53936465690E+02  0.53936465690E+02  0.00000000000E+00 0. -1.
          2   -1    0    0  501    0  0.00000000000E+00 -0.00000000000E+00 -0.34947160423E+03  0.34947160423E+03  0.00000000000E+00 0. -1.
         35    2    1    2    0    0  0.00000000000E+00  0.00000000000E+00 -0.29553513854E+03  0.40340806992E+03  0.27458523770E+03 0.  0.
         25    1    3    3    0    0 -0.45557734764E+02 -0.14031806484E+02 -0.79221416351E+02  0.15148739749E+03  0.12000000000E+03 0.  0.
         25    1    3    3    0    0  0.45557734764E+02  0.14031806484E+02 -0.21631372219E+03  0.25192067243E+03  0.12000000000E+03 0.  0.
<mgrwt>
<rscale>  0 0.27458524E+03</rscale>
<asrwt>0</asrwt>
<pdfrwt beam="1">  1        2 0.53764860E-01 0.27458524E+03</pdfrwt>
<pdfrwt beam="2">  1       -2 0.82979181E-02 0.27458524E+03</pdfrwt>
<totfact> 0.82033353E+03</totfact>
</mgrwt>
</event>
<event>
 5    1  0.1107336E+001  0.2745138E+03  0.7818608E-02  0.1098724E+00
          2   -1    0    0  501    0  0.00000000000E+00  0.00000000000E+00  0.76706071526E+03  0.76706071526E+03  0.00000000000E+00 0.  1.
         -2   -1    0    0    0  501 -0.00000000000E+00 -0.00000000000E+00 -0.24560586249E+02  0.24560586249E+02  0.00000000000E+00 0.  1.
         35    2    1    2    0    0  0.00000000000E+00  0.00000000000E+00  0.74250012901E+03  0.79162130151E+03  0.27451383102E+03 0.  0.
         25    1    3    3    0    0  0.57076448279E+01 -0.50355314436E+02  0.24650701477E+03  0.27880807598E+03  0.12000000000E+03 0.  0.
         25    1    3    3    0    0 -0.57076448279E+01  0.50355314436E+02  0.49599311425E+03  0.51281322553E+03  0.12000000000E+03 0.  0.
<mgrwt>
<rscale>  0 0.27451383E+03</rscale>
<asrwt>0</asrwt>
<pdfrwt beam="1">  1        2 0.11800932E+00 0.27451383E+03</pdfrwt>
<pdfrwt beam="2">  1       -2 0.37785523E-02 0.27451383E+03</pdfrwt>
<totfact> 0.11169344E+04</totfact>
</mgrwt>
</event>
<event>
 5    1  0.1107336E+001  0.2748986E+03  0.7818608E-02  0.1098508E+00
          3   -1    0    0  501    0  0.00000000000E+00  0.00000000000E+00  0.11825174340E+03  0.11825174340E+03  0.00000000000E+00 0. -1.
         -3   -1    0    0    0  501 -0.00000000000E+00 -0.00000000000E+00 -0.15976344278E+03  0.15976344278E+03  0.00000000000E+00 0. -1.
         35    2    1    2    0    0  0.00000000000E+00  0.00000000000E+00 -0.41511699378E+02  0.27801518617E+03  0.27489856776E+03 0.  0.
         25    1    3    3    0    0  0.60714068325E+02 -0.38643161105E+01 -0.49202570627E+02  0.14325510109E+03  0.12000000000E+03 0.  0.
         25    1    3    3    0    0 -0.60714068325E+02  0.38643161105E+01  0.76908712492E+01  0.13476008509E+03  0.12000000000E+03 0.  0.
<mgrwt>
<rscale>  0 0.27489857E+03</rscale>
<asrwt>0</asrwt>
<pdfrwt beam="1">  1        3 0.18192576E-01 0.27489857E+03</pdfrwt>
<pdfrwt beam="2">  1       -3 0.24578991E-01 0.27489857E+03</pdfrwt>
<totfact> 0.10454598E+03</totfact>
</mgrwt>
</event>
<event>
 5    1  0.1107336E+001  0.2751535E+03  0.7818608E-02  0.1098366E+00
          1   -1    0    0  501    0  0.00000000000E+00  0.00000000000E+00  0.44273827305E+03  0.44273827305E+03  0.00000000000E+00 0.  1.
         -1   -1    0    0    0  501 -0.00000000000E+00 -0.00000000000E+00 -0.42750683304E+02  0.42750683304E+02  0.00000000000E+00 0.  1.
         35    2    1    2    0    0  0.00000000000E+00  0.00000000000E+00  0.39998758975E+03  0.48548895635E+03  0.27515351132E+03 0.  0.
         25    1    3    3    0    0  0.14596714778E+02 -0.29553365649E+02  0.96493828766E+02  0.15747229754E+03  0.12000000000E+03 0.  0.
         25    1    3    3    0    0 -0.14596714778E+02  0.29553365649E+02  0.30349376098E+03  0.32801665881E+03  0.12000000000E+03 0.  0.
<mgrwt>
<rscale>  0 0.27515351E+03</rscale>
<asrwt>0</asrwt>
<pdfrwt beam="1">  1        1 0.68113577E-01 0.27515351E+03</pdfrwt>
<pdfrwt beam="2">  1       -1 0.65770285E-02 0.27515351E+03</pdfrwt>
<totfact> 0.61341280E+03</totfact>
</mgrwt>
</event>
<event>
 5    1  0.1107336E+001  0.2750739E+03  0.7818608E-02  0.1098410E+00
         -1   -1    0    0    0  501 -0.00000000000E+00  0.00000000000E+00  0.16353932883E+02  0.16353932883E+02  0.00000000000E+00 0. -1.
          1   -1    0    0  501    0  0.00000000000E+00 -0.00000000000E+00 -0.11566885919E+04  0.11566885919E+04  0.00000000000E+00 0. -1.
         35    2    1    2    0    0  0.00000000000E+00  0.00000000000E+00 -0.11403346590E+04  0.11730425248E+04  0.27507386352E+03 0.  0.
         25    1    3    3    0    0 -0.62091280314E+02 -0.24499924895E+02 -0.53690610108E+03  0.55418745456E+03  0.12000000000E+03 0.  0.
         25    1    3    3    0    0  0.62091280314E+02  0.24499924895E+02 -0.60342855795E+03  0.61885507024E+03  0.12000000000E+03 0.  0.
<mgrwt>
<rscale>  0 0.27507386E+03</rscale>
<asrwt>0</asrwt>
<pdfrwt beam="1">  1        1 0.17795215E+00 0.27507386E+03</pdfrwt>
<pdfrwt beam="2">  1       -1 0.25159889E-02 0.27507386E+03</pdfrwt>
<totfact> 0.60093510E+03</totfact>
</mgrwt>
</event>
<event>
 5    1  0.1107336E+001  0.2748184E+03  0.7818608E-02  0.1098553E+00
         -2   -1    0    0    0  501 -0.00000000000E+00  0.00000000000E+00  0.11961488623E+03  0.11961488623E+03  0.00000000000E+00 0.  1.
          2   -1    0    0  501    0  0.00000000000E+00 -0.00000000000E+00 -0.15785061409E+03  0.15785061409E+03  0.00000000000E+00 0.  1.
         35    2    1    2    0    0  0.00000000000E+00  0.00000000000E+00 -0.38235727852E+02  0.27746550032E+03  0.27481836362E+03 0.  0.
         25    1    3    3    0    0  0.66344938062E+02  0.41646289332E+01 -0.11149548829E+02  0.13763468814E+03  0.12000000000E+03 0.  0.
         25    1    3    3    0    0 -0.66344938062E+02 -0.41646289332E+01 -0.27086179023E+02  0.13983081218E+03  0.12000000000E+03 0.  0.
<mgrwt>
<rscale>  0 0.27481836E+03</rscale>
<asrwt>0</asrwt>
<pdfrwt beam="1">  1        2 0.24284710E-01 0.27481836E+03</pdfrwt>
<pdfrwt beam="2">  1       -2 0.18402290E-01 0.27481836E+03</pdfrwt>
<totfact> 0.53522827E+03</totfact>
</mgrwt>
</event>
<event>
 5    1  0.1107336E+001  0.2743117E+03  0.7818608E-02  0.1098837E+00
         -3   -1    0    0    0  501 -0.00000000000E+00  0.00000000000E+00  0.41530619234E+03  0.41530619234E+03  0.00000000000E+00 0.  1.
          3   -1    0    0  501    0  0.00000000000E+00 -0.00000000000E+00 -0.45296052871E+02  0.45296052871E+02  0.00000000000E+00 0.  1.
         35    2    1    2    0    0  0.00000000000E+00  0.00000000000E+00  0.37001013947E+03  0.46060224521E+03  0.27431172958E+03 0.  0.
         25    1    3    3    0    0 -0.13729122541E+02 -0.63968937094E+02  0.20423942337E+03  0.24575242781E+03  0.12000000000E+03 0.  0.
         25    1    3    3    0    0  0.13729122541E+02  0.63968937094E+02  0.16577071610E+03  0.21484981739E+03  0.12000000000E+03 0.  0.
<mgrwt>
<rscale>  0 0.27431173E+03</rscale>
<asrwt>0</asrwt>
<pdfrwt beam="1">  1        3 0.69686238E-02 0.27431173E+03</pdfrwt>
<pdfrwt beam="2">  1       -3 0.63893258E-01 0.27431173E+03</pdfrwt>
<totfact> 0.81948800E+02</totfact>
</mgrwt>
</event>
<event>
 5    1  0.1107336E+001  0.2748015E+03  0.7818608E-02  0.1098563E+00
         -4   -1    0    0    0  501 -0.00000000000E+00  0.00000000000E+00  0.45146839318E+03  0.45146839318E+03  0.00000000000E+00 0.  1.
          4   -1    0    0  501    0  0.00000000000E+00 -0.00000000000E+00 -0.41816802691E+02  0.41816802691E+02  0.00000000000E+00 0.  1.
         35    2    1    2    0    0  0.00000000000E+00  0.00000000000E+00  0.40965159048E+03  0.49328519587E+03  0.27480148994E+03 0.  0.
         25    1    3    3    0    0 -0.81706718139E+01  0.49062720163E+02  0.28520469764E+03  0.31339372990E+03  0.12000000000E+03 0.  0.
         25    1    3    3    0    0  0.81706718139E+01 -0.49062720163E+02  0.12444689285E+03  0.17989146596E+03  0.12000000000E+03 0.  0.
<mgrwt>
<rscale>  0 0.27480149E+03</rscale>
<asrwt>0</asrwt>
<pdfrwt beam="1">  1        4 0.64333546E-02 0.27480149E+03</pdfrwt>
<pdfrwt beam="2">  1       -4 0.69456672E-01 0.27480149E+03</pdfrwt>
<totfact> 0.57515183E+02</totfact>
</mgrwt>
</event>
<event>
 5    1  0.1107336E+001  0.2801450E+03  0.7818608E-02  0.1095610E+00
         -2   -1    0    0    0  501 -0.00000000000E+00  0.00000000000E+00  0.52626188742E+01  0.52626188742E+01  0.00000000000E+00 0. -1.
          2   -1    0    0  501    0  0.00000000000E+00 -0.00000000000E+00 -0.37282396522E+04  0.37282396522E+04  0.00000000000E+00 0. -1.
         35    2    1    2    0    0  0.00000000000E+00  0.00000000000E+00 -0.37229770333E+04  0.37335022710E+04  0.28014499361E+03 0.  0.
         25    1    3    3    0    0  0.24628463283E+02 -0.67559731172E+02 -0.19551822976E+04  0.19601807813E+04  0.12000000000E+03 0.  0.
         25    1    3    3    0    0 -0.24628463283E+02  0.67559731172E+02 -0.17677947357E+04  0.17733214898E+04  0.12000000000E+03 0.  0.
<mgrwt>
<rscale>  0 0.28014499E+03</rscale>
<asrwt>0</asrwt>
<pdfrwt beam="1">  1        2 0.57357397E+00 0.28014499E+03</pdfrwt>
<pdfrwt beam="2">  1       -2 0.80963559E-03 0.28014499E+03</pdfrwt>
<totfact> 0.20497418E+03</totfact>
</mgrwt>
</event>
<event>
 5    1  0.1107336E+001  0.2748087E+03  0.7818608E-02  0.1098559E+00
         -1   -1    0    0    0  501 -0.00000000000E+00  0.00000000000E+00  0.27891969493E+02  0.27891969493E+02  0.00000000000E+00 0.  1.
          1   -1    0    0  501    0  0.00000000000E+00 -0.00000000000E+00 -0.67689580469E+03  0.67689580469E+03  0.00000000000E+00 0.  1.
         35    2    1    2    0    0  0.00000000000E+00  0.00000000000E+00 -0.64900383520E+03  0.70478777418E+03  0.27480871263E+03 0.  0.
         25    1    3    3    0    0  0.41060567271E+02 -0.34757968218E+02 -0.22236994090E+03  0.25834565442E+03  0.12000000000E+03 0.  0.
         25    1    3    3    0    0 -0.41060567271E+02  0.34757968218E+02 -0.42663389430E+03  0.44644211977E+03  0.12000000000E+03 0.  0.
<mgrwt>
<rscale>  0 0.27480871E+03</rscale>
<asrwt>0</asrwt>
<pdfrwt beam="1">  1        1 0.10413780E+00 0.27480871E+03</pdfrwt>
<pdfrwt beam="2">  1       -1 0.42910727E-02 0.27480871E+03</pdfrwt>
<totfact> 0.65361620E+03</totfact>
</mgrwt>
</event>
<event>
 5    1  0.1107336E+001  0.2748311E+03  0.7818608E-02  0.1098546E+00
         -2   -1    0    0    0  501 -0.00000000000E+00  0.00000000000E+00  0.16039215377E+03  0.16039215377E+03  0.00000000000E+00 0.  1.
          2   -1    0    0  501    0  0.00000000000E+00 -0.00000000000E+00 -0.11773036779E+03  0.11773036779E+03  0.00000000000E+00 0.  1.
         35    2    1    2    0    0  0.00000000000E+00  0.00000000000E+00  0.42661785984E+02  0.27812252156E+03  0.27483105540E+03 0.  0.
         25    1    3    3    0    0  0.31957494530E+01  0.12471838031E+02 -0.45161940732E+02  0.12886178817E+03  0.12000000000E+03 0.  0.
         25    1    3    3    0    0 -0.31957494530E+01 -0.12471838031E+02  0.87823726717E+02  0.14926073339E+03  0.12000000000E+03 0.  0.
<mgrwt>
<rscale>  0 0.27483106E+03</rscale>
<asrwt>0</asrwt>
<pdfrwt beam="1">  1        2 0.18112364E-01 0.27483106E+03</pdfrwt>
<pdfrwt beam="2">  1       -2 0.24675716E-01 0.27483106E+03</pdfrwt>
<totfact> 0.45059830E+03</totfact>
</mgrwt>
</event>
<event>
 5    1  0.1107336E+001  0.2754406E+03  0.7818608E-02  0.1098206E+00
         -2   -1    0    0    0  501 -0.00000000000E+00  0.00000000000E+00  0.26608749974E+03  0.26608749974E+03  0.00000000000E+00 0.  1.
          2   -1    0    0  501    0  0.00000000000E+00 -0.00000000000E+00 -0.71280629355E+02  0.71280629355E+02  0.00000000000E+00 0.  1.
         35    2    1    2    0    0  0.00000000000E+00  0.00000000000E+00  0.19480687039E+03  0.33736812910E+03  0.27544062478E+03 0.  0.
         25    1    3    3    0    0  0.26072438021E+02  0.29260536275E+02  0.29971712103E+02  0.12974688641E+03  0.12000000000E+03 0.  0.
         25    1    3    3    0    0 -0.26072438021E+02 -0.29260536275E+02  0.16483515829E+03  0.20762124269E+03  0.12000000000E+03 0.  0.
<mgrwt>
<rscale>  0 0.27544062E+03</rscale>
<asrwt>0</asrwt>
<pdfrwt beam="1">  1        2 0.10966251E-01 0.27544062E+03</pdfrwt>
<pdfrwt beam="2">  1       -2 0.40936538E-01 0.27544062E+03</pdfrwt>
<totfact> 0.32401417E+03</totfact>
</mgrwt>
</event>
<event>
 5    1  0.1107336E+001  0.2745551E+03  0.7818608E-02  0.1098701E+00
          2   -1    0    0  501    0  0.00000000000E+00  0.00000000000E+00  0.11934064320E+04  0.11934064320E+04  0.00000000000E+00 0. -1.
         -2   -1    0    0    0  501 -0.00000000000E+00 -0.00000000000E+00 -0.15791041414E+02  0.15791041414E+02  0.00000000000E+00 0. -1.
         35    2    1    2    0    0  0.00000000000E+00  0.00000000000E+00  0.11776153905E+04  0.12091974734E+04  0.27455513392E+03 0.  0.
         25    1    3    3    0    0  0.12441545562E+02  0.45869604396E+02  0.38287547585E+03  0.40404509979E+03  0.12000000000E+03 0.  0.
         25    1    3    3    0    0 -0.12441545562E+02 -0.45869604396E+02  0.79473991470E+03  0.80515237358E+03  0.12000000000E+03 0.  0.
<mgrwt>
<rscale>  0 0.27455513E+03</rscale>
<asrwt>0</asrwt>
<pdfrwt beam="1">  1        2 0.18360092E+00 0.27455513E+03</pdfrwt>
<pdfrwt beam="2">  1       -2 0.24293919E-02 0.27455513E+03</pdfrwt>
<totfact> 0.11671139E+04</totfact>
</mgrwt>
</event>
<event>
 5    1  0.1107336E+001  0.2765171E+03  0.7818608E-02  0.1097607E+00
         -1   -1    0    0    0  501 -0.00000000000E+00  0.00000000000E+00  0.10255200262E+02  0.10255200262E+02  0.00000000000E+00 0.  1.
          1   -1    0    0  501    0  0.00000000000E+00 -0.00000000000E+00 -0.18639737158E+04  0.18639737158E+04  0.00000000000E+00 0.  1.
         35    2    1    2    0    0  0.00000000000E+00  0.00000000000E+00 -0.18537185155E+04  0.18742289161E+04  0.27651707895E+03 0.  0.
         25    1    3    3    0    0  0.39644611266E+02  0.48810129198E+02 -0.73984335498E+03  0.75214514146E+03  0.12000000000E+03 0.  0.
         25    1    3    3    0    0 -0.39644611266E+02 -0.48810129198E+02 -0.11138751606E+04  0.11220837746E+04  0.12000000000E+03 0.  0.
<mgrwt>
<rscale>  0 0.27651708E+03</rscale>
<asrwt>0</asrwt>
<pdfrwt beam="1">  1        1 0.28676510E+00 0.27651708E+03</pdfrwt>
<pdfrwt beam="2">  1       -1 0.15777236E-02 0.27651708E+03</pdfrwt>
<totfact> 0.40093113E+03</totfact>
</mgrwt>
</event>
<event>
 5    1  0.1107336E+001  0.2738736E+03  0.7818608E-02  0.1099083E+00
         -1   -1    0    0    0  501 -0.00000000000E+00  0.00000000000E+00  0.11016376518E+02  0.11016376518E+02  0.00000000000E+00 0. -1.
          1   -1    0    0  501    0  0.00000000000E+00 -0.00000000000E+00 -0.17021644109E+04  0.17021644109E+04  0.00000000000E+00 0. -1.
         35    2    1    2    0    0  0.00000000000E+00  0.00000000000E+00 -0.16911480344E+04  0.17131807874E+04  0.27387357701E+03 0.  0.
         25    1    3    3    0    0 -0.38418599029E+01 -0.60546980401E+02 -0.68353850029E+03  0.69663877160E+03  0.12000000000E+03 0.  0.
         25    1    3    3    0    0  0.38418599029E+01  0.60546980401E+02 -0.10076095341E+04  0.10165420158E+04  0.12000000000E+03 0.  0.
<mgrwt>
<rscale>  0 0.27387358E+03</rscale>
<asrwt>0</asrwt>
<pdfrwt beam="1">  1        1 0.26187146E+00 0.27387358E+03</pdfrwt>
<pdfrwt beam="2">  1       -1 0.16948271E-02 0.27387358E+03</pdfrwt>
<totfact> 0.46027098E+03</totfact>
</mgrwt>
</event>
<event>
 5    1  0.1107336E+001  0.2751335E+03  0.7818608E-02  0.1098377E+00
          2   -1    0    0  501    0  0.00000000000E+00  0.00000000000E+00  0.13277652143E+03  0.13277652143E+03  0.00000000000E+00 0.  1.
         -2   -1    0    0    0  501 -0.00000000000E+00 -0.00000000000E+00 -0.14252975564E+03  0.14252975564E+03  0.00000000000E+00 0.  1.
         35    2    1    2    0    0  0.00000000000E+00  0.00000000000E+00 -0.97532342026E+01  0.27530627707E+03  0.27513345965E+03 0.  0.
         25    1    3    3    0    0  0.34041247834E+02  0.57168296128E+02 -0.14761309641E+02  0.13800332206E+03  0.12000000000E+03 0.  0.
         25    1    3    3    0    0 -0.34041247834E+02 -0.57168296128E+02  0.50080754388E+01  0.13730295502E+03  0.12000000000E+03 0.  0.
<mgrwt>
<rscale>  0 0.27513346E+03</rscale>
<asrwt>0</asrwt>
<pdfrwt beam="1">  1        2 0.20427157E-01 0.27513346E+03</pdfrwt>
<pdfrwt beam="2">  1       -2 0.21927654E-01 0.27513346E+03</pdfrwt>
<totfact> 0.48223018E+03</totfact>
</mgrwt>
</event>
<event>
 5    1  0.1107336E+001  0.2746985E+03  0.7818608E-02  0.1098620E+00
          1   -1    0    0  501    0  0.00000000000E+00  0.00000000000E+00  0.12933918704E+03  0.12933918704E+03  0.00000000000E+00 0. -1.
         -1   -1    0    0    0  501 -0.00000000000E+00 -0.00000000000E+00 -0.14585537556E+03  0.14585537556E+03  0.00000000000E+00 0. -1.
         35    2    1    2    0    0  0.00000000000E+00  0.00000000000E+00 -0.16516188519E+02  0.27519456261E+03  0.27469849436E+03 0.  0.
         25    1    3    3    0    0  0.27847077892E+01 -0.41571452743E+02  0.44074880794E+02  0.13445644424E+03  0.12000000000E+03 0.  0.
         25    1    3    3    0    0 -0.27847077892E+01  0.41571452743E+02 -0.60591069313E+02  0.14073811837E+03  0.12000000000E+03 0.  0.
<mgrwt>
<rscale>  0 0.27469849E+03</rscale>
<asrwt>0</asrwt>
<pdfrwt beam="1">  1        1 0.19898337E-01 0.27469849E+03</pdfrwt>
<pdfrwt beam="2">  1       -1 0.22439288E-01 0.27469849E+03</pdfrwt>
<totfact> 0.42601849E+03</totfact>
</mgrwt>
</event>
<event>
 5    1  0.1107336E+001  0.2750227E+03  0.7818608E-02  0.1098439E+00
          1   -1    0    0  501    0  0.00000000000E+00  0.00000000000E+00  0.26511406434E+03  0.26511406434E+03  0.00000000000E+00 0.  1.
         -1   -1    0    0    0  501 -0.00000000000E+00 -0.00000000000E+00 -0.71325431343E+02  0.71325431343E+02  0.00000000000E+00 0.  1.
         35    2    1    2    0    0  0.00000000000E+00  0.00000000000E+00  0.19378863300E+03  0.33643949569E+03  0.27502272629E+03 0.  0.
         25    1    3    3    0    0  0.27762339042E+02  0.59734208784E+02  0.11286557798E+03  0.17741916993E+03  0.12000000000E+03 0.  0.
         25    1    3    3    0    0 -0.27762339042E+02 -0.59734208784E+02  0.80923055024E+02  0.15902032575E+03  0.12000000000E+03 0.  0.
<mgrwt>
<rscale>  0 0.27502273E+03</rscale>
<asrwt>0</asrwt>
<pdfrwt beam="1">  1        1 0.40786779E-01 0.27502273E+03</pdfrwt>
<pdfrwt beam="2">  1       -1 0.10973143E-01 0.27502273E+03</pdfrwt>
<totfact> 0.53679629E+03</totfact>
</mgrwt>
</event>
<event>
 5    1  0.1107336E+001  0.2731711E+03  0.7818608E-02  0.1099478E+00
          1   -1    0    0  501    0  0.00000000000E+00  0.00000000000E+00  0.99442685357E+02  0.99442685357E+02  0.00000000000E+00 0. -1.
         -1   -1    0    0    0  501 -0.00000000000E+00 -0.00000000000E+00 -0.18760169341E+03  0.18760169341E+03  0.00000000000E+00 0. -1.
         35    2    1    2    0    0  0.00000000000E+00  0.00000000000E+00 -0.88159008058E+02  0.28704437877E+03  0.27317112710E+03 0.  0.
         25    1    3    3    0    0 -0.10720783375E+02  0.28900630520E+02  0.16333235724E+02  0.12496782078E+03  0.12000000000E+03 0.  0.
         25    1    3    3    0    0  0.10720783375E+02 -0.28900630520E+02 -0.10449224378E+03  0.16207655799E+03  0.12000000000E+03 0.  0.
<mgrwt>
<rscale>  0 0.27317113E+03</rscale>
<asrwt>0</asrwt>
<pdfrwt beam="1">  1        1 0.15298875E-01 0.27317113E+03</pdfrwt>
<pdfrwt beam="2">  1       -1 0.28861799E-01 0.27317113E+03</pdfrwt>
<totfact> 0.39398202E+03</totfact>
</mgrwt>
</event>
<event>
 5    1  0.1107336E+001  0.2743767E+03  0.7818608E-02  0.1098800E+00
         -1   -1    0    0    0  501 -0.00000000000E+00  0.00000000000E+00  0.23933959439E+03  0.23933959439E+03  0.00000000000E+00 0.  1.
          1   -1    0    0  501    0  0.00000000000E+00 -0.00000000000E+00 -0.78635756500E+02  0.78635756500E+02  0.00000000000E+00 0.  1.
         35    2    1    2    0    0  0.00000000000E+00  0.00000000000E+00  0.16070383789E+03  0.31797535089E+03  0.27437674876E+03 0.  0.
         25    1    3    3    0    0  0.37865658665E+02  0.40354471075E+02  0.12306425962E+03  0.18057437093E+03  0.12000000000E+03 0.  0.
         25    1    3    3    0    0 -0.37865658665E+02 -0.40354471075E+02  0.37639578277E+02  0.13740097996E+03  0.12000000000E+03 0.  0.
<mgrwt>
<rscale>  0 0.27437675E+03</rscale>
<asrwt>0</asrwt>
<pdfrwt beam="1">  1        1 0.12097809E-01 0.27437675E+03</pdfrwt>
<pdfrwt beam="2">  1       -1 0.36821476E-01 0.27437675E+03</pdfrwt>
<totfact> 0.35325951E+03</totfact>
</mgrwt>
</event>
<event>
 5    1  0.1107336E+001  0.2752039E+03  0.7818608E-02  0.1098338E+00
         -1   -1    0    0    0  501 -0.00000000000E+00  0.00000000000E+00  0.19629321696E+02  0.19629321696E+02  0.00000000000E+00 0. -1.
          1   -1    0    0  501    0  0.00000000000E+00 -0.00000000000E+00 -0.96459278624E+03  0.96459278624E+03  0.00000000000E+00 0. -1.
         35    2    1    2    0    0  0.00000000000E+00  0.00000000000E+00 -0.94496346454E+03  0.98422210793E+03  0.27520393970E+03 0.  0.
         25    1    3    3    0    0  0.12642077773E+02 -0.65552736243E+02 -0.44103461263E+03  0.46191829677E+03  0.12000000000E+03 0.  0.
         25    1    3    3    0    0 -0.12642077773E+02  0.65552736243E+02 -0.50392885191E+03  0.52230381116E+03  0.12000000000E+03 0.  0.
<mgrwt>
<rscale>  0 0.27520394E+03</rscale>
<asrwt>0</asrwt>
<pdfrwt beam="1">  1        1 0.14839888E+00 0.27520394E+03</pdfrwt>
<pdfrwt beam="2">  1       -1 0.30198959E-02 0.27520394E+03</pdfrwt>
<totfact> 0.63490139E+03</totfact>
</mgrwt>
</event>
<event>
 5    1  0.1107336E+001  0.2752032E+03  0.7818608E-02  0.1098338E+00
         -2   -1    0    0    0  501 -0.00000000000E+00  0.00000000000E+00  0.44930398130E+02  0.44930398130E+02  0.00000000000E+00 0. -1.
          2   -1    0    0  501    0  0.00000000000E+00 -0.00000000000E+00 -0.42141173195E+03  0.42141173195E+03  0.00000000000E+00 0. -1.
         35    2    1    2    0    0  0.00000000000E+00  0.00000000000E+00 -0.37648133382E+03  0.46634213008E+03  0.27520317508E+03 0.  0.
         25    1    3    3    0    0  0.64718080373E+02 -0.47047147870E+01 -0.15775628740E+03  0.20856080764E+03  0.12000000000E+03 0.  0.
         25    1    3    3    0    0 -0.64718080373E+02  0.47047147870E+01 -0.21872504642E+03  0.25778132245E+03  0.12000000000E+03 0.  0.
<mgrwt>
<rscale>  0 0.27520318E+03</rscale>
<asrwt>0</asrwt>
<pdfrwt beam="1">  1        2 0.64832571E-01 0.27520318E+03</pdfrwt>
<pdfrwt beam="2">  1       -2 0.69123693E-02 0.27520318E+03</pdfrwt>
<totfact> 0.88994952E+03</totfact>
</mgrwt>
</event>
<event>
 5    1  0.1107336E+001  0.2795894E+03  0.7818608E-02  0.1095913E+00
          1   -1    0    0  501    0  0.00000000000E+00  0.00000000000E+00  0.15354924775E+04  0.15354924775E+04  0.00000000000E+00 0.  1.
         -1   -1    0    0    0  501 -0.00000000000E+00 -0.00000000000E+00 -0.12727226659E+02  0.12727226659E+02  0.00000000000E+00 0.  1.
         35    2    1    2    0    0  0.00000000000E+00  0.00000000000E+00  0.15227652508E+04  0.15482197041E+04  0.27958941893E+03 0.  0.
         25    1    3    3    0    0  0.57276102552E+02  0.82884303666E+01  0.52688435703E+03  0.54346699595E+03  0.12000000000E+03 0.  0.
         25    1    3    3    0    0 -0.57276102552E+02 -0.82884303666E+01  0.99588089379E+03  0.10047527082E+04  0.12000000000E+03 0.  0.
<mgrwt>
<rscale>  0 0.27958942E+03</rscale>
<asrwt>0</asrwt>
<pdfrwt beam="1">  1        1 0.23622946E+00 0.27958942E+03</pdfrwt>
<pdfrwt beam="2">  1       -1 0.19580361E-02 0.27958942E+03</pdfrwt>
<totfact> 0.47959687E+03</totfact>
</mgrwt>
</event>
<event>
 5    1  0.1107336E+001  0.2752472E+03  0.7818608E-02  0.1098314E+00
          2   -1    0    0  501    0  0.00000000000E+00  0.00000000000E+00  0.55900685503E+03  0.55900685503E+03  0.00000000000E+00 0. -1.
         -2   -1    0    0    0  501 -0.00000000000E+00 -0.00000000000E+00 -0.33881967414E+02  0.33881967414E+02  0.00000000000E+00 0. -1.
         35    2    1    2    0    0  0.00000000000E+00  0.00000000000E+00  0.52512488762E+03  0.59288882245E+03  0.27524717653E+03 0.  0.
         25    1    3    3    0    0 -0.37312805558E+02 -0.32943434039E+02  0.16473239003E+03  0.20979579507E+03  0.12000000000E+03 0.  0.
         25    1    3    3    0    0  0.37312805558E+02  0.32943434039E+02  0.36039249759E+03  0.38309302738E+03  0.12000000000E+03 0.  0.
<mgrwt>
<rscale>  0 0.27524718E+03</rscale>
<asrwt>0</asrwt>
<pdfrwt beam="1">  1        2 0.86001048E-01 0.27524718E+03</pdfrwt>
<pdfrwt beam="2">  1       -2 0.52126108E-02 0.27524718E+03</pdfrwt>
<totfact> 0.10015487E+04</totfact>
</mgrwt>
</event>
<event>
 5    1  0.1107336E+001  0.2746357E+03  0.7818608E-02  0.1098655E+00
         -4   -1    0    0    0  501 -0.00000000000E+00  0.00000000000E+00  0.73500398826E+02  0.73500398826E+02  0.00000000000E+00 0. -1.
          4   -1    0    0  501    0  0.00000000000E+00 -0.00000000000E+00 -0.25654551462E+03  0.25654551462E+03  0.00000000000E+00 0. -1.
         35    2    1    2    0    0  0.00000000000E+00  0.00000000000E+00 -0.18304511579E+03  0.33004591344E+03  0.27463574160E+03 0.  0.
         25    1    3    3    0    0 -0.60384684370E+02  0.93264601074E+01 -0.12383411003E+03  0.18294310529E+03  0.12000000000E+03 0.  0.
         25    1    3    3    0    0  0.60384684370E+02 -0.93264601074E+01 -0.59211005757E+02  0.14710280816E+03  0.12000000000E+03 0.  0.
<mgrwt>
<rscale>  0 0.27463574E+03</rscale>
<asrwt>0</asrwt>
<pdfrwt beam="1">  1        4 0.39468541E-01 0.27463574E+03</pdfrwt>
<pdfrwt beam="2">  1       -4 0.11307753E-01 0.27463574E+03</pdfrwt>
<totfact> 0.72052356E+02</totfact>
</mgrwt>
</event>
<event>
 5    1  0.1107336E+001  0.2750840E+03  0.7818608E-02  0.1098405E+00
         -2   -1    0    0    0  501 -0.00000000000E+00  0.00000000000E+00  0.92122936874E+03  0.92122936874E+03  0.00000000000E+00 0.  1.
          2   -1    0    0  501    0  0.00000000000E+00 -0.00000000000E+00 -0.20535384668E+02  0.20535384668E+02  0.00000000000E+00 0.  1.
         35    2    1    2    0    0  0.00000000000E+00  0.00000000000E+00  0.90069398407E+03  0.94176475341E+03  0.27508398321E+03 0.  0.
         25    1    3    3    0    0 -0.13504091012E+02  0.63814337610E+02  0.50588556771E+03  0.52399889100E+03  0.12000000000E+03 0.  0.
         25    1    3    3    0    0  0.13504091012E+02 -0.63814337610E+02  0.39480841637E+03  0.41776586241E+03  0.12000000000E+03 0.  0.
<mgrwt>
<rscale>  0 0.27508398E+03</rscale>
<asrwt>0</asrwt>
<pdfrwt beam="1">  1        2 0.31592907E-02 0.27508398E+03</pdfrwt>
<pdfrwt beam="2">  1       -2 0.14172756E+00 0.27508398E+03</pdfrwt>
<totfact> 0.10712047E+03</totfact>
</mgrwt>
</event>
<event>
 5    1  0.1107336E+001  0.2754650E+03  0.7818608E-02  0.1098192E+00
          1   -1    0    0  501    0  0.00000000000E+00  0.00000000000E+00  0.20349685677E+03  0.20349685677E+03  0.00000000000E+00 0.  1.
         -1   -1    0    0    0  501 -0.00000000000E+00 -0.00000000000E+00 -0.93221300152E+02  0.93221300152E+02  0.00000000000E+00 0.  1.
         35    2    1    2    0    0  0.00000000000E+00  0.00000000000E+00  0.11027555662E+03  0.29671815692E+03  0.27546500006E+03 0.  0.
         25    1    3    3    0    0  0.30775158782E+02  0.39637006543E+02  0.63433213648E+01  0.13022457683E+03  0.12000000000E+03 0.  0.
         25    1    3    3    0    0 -0.30775158782E+02 -0.39637006543E+02  0.10393223525E+03  0.16649358009E+03  0.12000000000E+03 0.  0.
<mgrwt>
<rscale>  0 0.27546500E+03</rscale>
<asrwt>0</asrwt>
<pdfrwt beam="1">  1        1 0.31307209E-01 0.27546500E+03</pdfrwt>
<pdfrwt beam="2">  1       -1 0.14341739E-01 0.27546500E+03</pdfrwt>
<totfact> 0.49203374E+03</totfact>
</mgrwt>
</event>
<event>
 5    1  0.1107336E+001  0.2749376E+03  0.7818608E-02  0.1098486E+00
          2   -1    0    0  501    0  0.00000000000E+00  0.00000000000E+00  0.28086651395E+04  0.28086651395E+04  0.00000000000E+00 0. -1.
         -2   -1    0    0    0  501 -0.00000000000E+00 -0.00000000000E+00 -0.67283468338E+01  0.67283468338E+01  0.00000000000E+00 0. -1.
         35    2    1    2    0    0  0.00000000000E+00  0.00000000000E+00  0.28019367927E+04  0.28153934864E+04  0.27493761619E+03 0.  0.
         25    1    3    3    0    0  0.47077011031E+02  0.46437422101E+02  0.12864831230E+04  0.12937586734E+04  0.12000000000E+03 0.  0.
         25    1    3    3    0    0 -0.47077011031E+02 -0.46437422101E+02  0.15154536697E+04  0.15216348130E+04  0.12000000000E+03 0.  0.
<mgrwt>
<rscale>  0 0.27493762E+03</rscale>
<asrwt>0</asrwt>
<pdfrwt beam="1">  1        2 0.43210139E+00 0.27493762E+03</pdfrwt>
<pdfrwt beam="2">  1       -2 0.10351325E-02 0.27493762E+03</pdfrwt>
<totfact> 0.54617194E+03</totfact>
</mgrwt>
</event>
<event>
 5    1  0.1107336E+001  0.2728748E+03  0.7818608E-02  0.1099645E+00
          2   -1    0    0  501    0  0.00000000000E+00  0.00000000000E+00  0.75252439838E+03  0.75252439838E+03  0.00000000000E+00 0.  1.
         -2   -1    0    0    0  501 -0.00000000000E+00 -0.00000000000E+00 -0.24736953998E+02  0.24736953998E+02  0.00000000000E+00 0.  1.
         35    2    1    2    0    0  0.00000000000E+00  0.00000000000E+00  0.72778744439E+03  0.77726135238E+03  0.27287478026E+03 0.  0.
         25    1    3    3    0    0 -0.45958473094E+02  0.34906612328E+02  0.44860762745E+03  0.46795240809E+03  0.12000000000E+03 0.  0.
         25    1    3    3    0    0  0.45958473094E+02 -0.34906612328E+02  0.27917981694E+03  0.30930894429E+03  0.12000000000E+03 0.  0.
<mgrwt>
<rscale>  0 0.27287478E+03</rscale>
<asrwt>0</asrwt>
<pdfrwt beam="1">  1        2 0.11577297E+00 0.27287478E+03</pdfrwt>
<pdfrwt beam="2">  1       -2 0.38056858E-02 0.27287478E+03</pdfrwt>
<totfact> 0.11314576E+04</totfact>
</mgrwt>
</event>
<event>
 5    1  0.1107336E+001  0.2750832E+03  0.7818608E-02  0.1098405E+00
         -2   -1    0    0    0  501 -0.00000000000E+00  0.00000000000E+00  0.14834375983E+03  0.14834375983E+03  0.00000000000E+00 0.  1.
          2   -1    0    0  501    0  0.00000000000E+00 -0.00000000000E+00 -0.12752602854E+03  0.12752602854E+03  0.00000000000E+00 0.  1.
         35    2    1    2    0    0  0.00000000000E+00  0.00000000000E+00  0.20817731292E+02  0.27586978838E+03  0.27508319142E+03 0.  0.
         25    1    3    3    0    0  0.64052309676E+02  0.19982977584E+02  0.14379072617E+02  0.13823449460E+03  0.12000000000E+03 0.  0.
         25    1    3    3    0    0 -0.64052309676E+02 -0.19982977584E+02  0.64386586745E+01  0.13763529378E+03  0.12000000000E+03 0.  0.
<mgrwt>
<rscale>  0 0.27508319E+03</rscale>
<asrwt>0</asrwt>
<pdfrwt beam="1">  1        2 0.19619389E-01 0.27508319E+03</pdfrwt>
<pdfrwt beam="2">  1       -2 0.22822117E-01 0.27508319E+03</pdfrwt>
<totfact> 0.47115038E+03</totfact>
</mgrwt>
</event>
<event>
 5    1  0.1107336E+001  0.2746593E+03  0.7818608E-02  0.1098642E+00
          1   -1    0    0  501    0  0.00000000000E+00  0.00000000000E+00  0.62243396516E+03  0.62243396516E+03  0.00000000000E+00 0. -1.
         -1   -1    0    0    0  501 -0.00000000000E+00 -0.00000000000E+00 -0.30299482768E+02  0.30299482768E+02  0.00000000000E+00 0. -1.
         35    2    1    2    0    0  0.00000000000E+00  0.00000000000E+00  0.59213448239E+03  0.65273344793E+03  0.27465925946E+03 0.  0.
         25    1    3    3    0    0 -0.55244889637E+02  0.36192136337E+02  0.31954055945E+03  0.34766080840E+03  0.12000000000E+03 0.  0.
         25    1    3    3    0    0  0.55244889637E+02 -0.36192136337E+02  0.27259392294E+03  0.30507263953E+03  0.12000000000E+03 0.  0.
<mgrwt>
<rscale>  0 0.27465926E+03</rscale>
<asrwt>0</asrwt>
<pdfrwt beam="1">  1        1 0.95759062E-01 0.27465926E+03</pdfrwt>
<pdfrwt beam="2">  1       -1 0.46614593E-02 0.27465926E+03</pdfrwt>
<totfact> 0.65084245E+03</totfact>
</mgrwt>
</event>
<event>
 5    1  0.1107336E+001  0.2734259E+03  0.7818608E-02  0.1099335E+00
          2   -1    0    0  501    0  0.00000000000E+00  0.00000000000E+00  0.11646881622E+02  0.11646881622E+02  0.00000000000E+00 0. -1.
         -2   -1    0    0    0  501 -0.00000000000E+00 -0.00000000000E+00 -0.16047585385E+04  0.16047585385E+04  0.00000000000E+00 0. -1.
         35    2    1    2    0    0  0.00000000000E+00  0.00000000000E+00 -0.15931116569E+04  0.16164054201E+04  0.27342591486E+03 0.  0.
         25    1    3    3    0    0  0.34086034888E+02 -0.25431868699E+02 -0.50205021467E+03  0.51794117019E+03  0.12000000000E+03 0.  0.
         25    1    3    3    0    0 -0.34086034888E+02  0.25431868699E+02 -0.10910614422E+04  0.10984642499E+04  0.12000000000E+03 0.  0.
<mgrwt>
<rscale>  0 0.27342591E+03</rscale>
<asrwt>0</asrwt>
<pdfrwt beam="1">  1        2 0.17918292E-02 0.27342591E+03</pdfrwt>
<pdfrwt beam="2">  1       -2 0.24688576E+00 0.27342591E+03</pdfrwt>
<totfact> 0.47731515E+02</totfact>
</mgrwt>
</event>
<event>
 5    1  0.1107336E+001  0.2749724E+03  0.7818608E-02  0.1098467E+00
         -1   -1    0    0    0  501 -0.00000000000E+00  0.00000000000E+00  0.33058283795E+02  0.33058283795E+02  0.00000000000E+00 0. -1.
          1   -1    0    0  501    0  0.00000000000E+00 -0.00000000000E+00 -0.57179178384E+03  0.57179178384E+03  0.00000000000E+00 0. -1.
         35    2    1    2    0    0  0.00000000000E+00  0.00000000000E+00 -0.53873350005E+03  0.60485006764E+03  0.27497239906E+03 0.  0.
         25    1    3    3    0    0  0.12129230521E+02 -0.27391035542E+02 -0.40144015098E+03  0.42006140251E+03  0.12000000000E+03 0.  0.
         25    1    3    3    0    0 -0.12129230521E+02  0.27391035542E+02 -0.13729334907E+03  0.18478866513E+03  0.12000000000E+03 0.  0.
<mgrwt>
<rscale>  0 0.27497240E+03</rscale>
<asrwt>0</asrwt>
<pdfrwt beam="1">  1        1 0.87967961E-01 0.27497240E+03</pdfrwt>
<pdfrwt beam="2">  1       -1 0.50858901E-02 0.27497240E+03</pdfrwt>
<totfact> 0.64262061E+03</totfact>
</mgrwt>
</event>
<event>
 5    1  0.1107336E+001  0.2764408E+03  0.7818608E-02  0.1097649E+00
         -1   -1    0    0    0  501 -0.00000000000E+00  0.00000000000E+00  0.23300670787E+03  0.23300670787E+03  0.00000000000E+00 0. -1.
          1   -1    0    0  501    0  0.00000000000E+00 -0.00000000000E+00 -0.81992803674E+02  0.81992803674E+02  0.00000000000E+00 0. -1.
         35    2    1    2    0    0  0.00000000000E+00  0.00000000000E+00  0.15101390420E+03  0.31499951154E+03  0.27644075859E+03 0.  0.
         25    1    3    3    0    0 -0.35414158708E+02  0.57317714089E+02  0.90161174530E+02  0.16452513601E+03  0.12000000000E+03 0.  0.
         25    1    3    3    0    0  0.35414158708E+02 -0.57317714089E+02  0.60852729666E+02  0.15047437554E+03  0.12000000000E+03 0.  0.
<mgrwt>
<rscale>  0 0.27644076E+03</rscale>
<asrwt>0</asrwt>
<pdfrwt beam="1">  1        1 0.12614278E-01 0.27644076E+03</pdfrwt>
<pdfrwt beam="2">  1       -1 0.35847186E-01 0.27644076E+03</pdfrwt>
<totfact> 0.35029073E+03</totfact>
</mgrwt>
</event>
<event>
 5    1  0.1107336E+001  0.2748139E+03  0.7818608E-02  0.1098556E+00
         -2   -1    0    0    0  501 -0.00000000000E+00  0.00000000000E+00  0.80025256920E+02  0.80025256920E+02  0.00000000000E+00 0. -1.
          2   -1    0    0  501    0  0.00000000000E+00 -0.00000000000E+00 -0.23593382386E+03  0.23593382386E+03  0.00000000000E+00 0. -1.
         35    2    1    2    0    0  0.00000000000E+00  0.00000000000E+00 -0.15590856694E+03  0.31595908077E+03  0.27481386333E+03 0.  0.
         25    1    3    3    0    0 -0.41431484521E+02  0.75750546923E+01 -0.13776975211E+03  0.18749521050E+03  0.12000000000E+03 0.  0.
         25    1    3    3    0    0  0.41431484521E+02 -0.75750546923E+01 -0.18138814825E+02  0.12846387028E+03  0.12000000000E+03 0.  0.
<mgrwt>
<rscale>  0 0.27481386E+03</rscale>
<asrwt>0</asrwt>
<pdfrwt beam="1">  1        2 0.36297511E-01 0.27481386E+03</pdfrwt>
<pdfrwt beam="2">  1       -2 0.12311578E-01 0.27481386E+03</pdfrwt>
<totfact> 0.66864985E+03</totfact>
</mgrwt>
</event>
<event>
 5    1  0.1107336E+001  0.2748433E+03  0.7818608E-02  0.1098539E+00
         -2   -1    0    0    0  501 -0.00000000000E+00  0.00000000000E+00  0.12828021977E+02  0.12828021977E+02  0.00000000000E+00 0.  1.
          2   -1    0    0  501    0  0.00000000000E+00 -0.00000000000E+00 -0.14721450272E+04  0.14721450272E+04  0.00000000000E+00 0.  1.
         35    2    1    2    0    0  0.00000000000E+00  0.00000000000E+00 -0.14593170052E+04  0.14849730491E+04  0.27484329179E+03 0.  0.
         25    1    3    3    0    0  0.10362555989E+02 -0.65746224804E+02 -0.76964060435E+03  0.78177785112E+03  0.12000000000E+03 0.  0.
         25    1    3    3    0    0 -0.10362555989E+02  0.65746224804E+02 -0.68967640084E+03  0.70319519802E+03  0.12000000000E+03 0.  0.
<mgrwt>
<rscale>  0 0.27484329E+03</rscale>
<asrwt>0</asrwt>
<pdfrwt beam="1">  1        2 0.22648394E+00 0.27484329E+03</pdfrwt>
<pdfrwt beam="2">  1       -2 0.19735410E-02 0.27484329E+03</pdfrwt>
<totfact> 0.11133306E+04</totfact>
</mgrwt>
</event>
<event>
 5    1  0.1107336E+001  0.2746930E+03  0.7818608E-02  0.1098623E+00
          1   -1    0    0  501    0  0.00000000000E+00  0.00000000000E+00  0.13458782474E+04  0.13458782474E+04  0.00000000000E+00 0. -1.
         -1   -1    0    0    0  501 -0.00000000000E+00 -0.00000000000E+00 -0.14016176641E+02  0.14016176641E+02  0.00000000000E+00 0. -1.
         35    2    1    2    0    0  0.00000000000E+00  0.00000000000E+00  0.13318620708E+04  0.13598944240E+04  0.27469304508E+03 0.  0.
         25    1    3    3    0    0  0.23869298134E+01 -0.60449466304E+02  0.52553716021E+03  0.54244736350E+03  0.12000000000E+03 0.  0.
         25    1    3    3    0    0 -0.23869298134E+01  0.60449466304E+02  0.80632491056E+03  0.81744706055E+03  0.12000000000E+03 0.  0.
<mgrwt>
<rscale>  0 0.27469305E+03</rscale>
<asrwt>0</asrwt>
<pdfrwt beam="1">  1        1 0.20705809E+00 0.27469305E+03</pdfrwt>
<pdfrwt beam="2">  1       -1 0.21563359E-02 0.27469305E+03</pdfrwt>
<totfact> 0.55749295E+03</totfact>
</mgrwt>
</event>
<event>
 5    1  0.1107336E+001  0.2740842E+03  0.7818608E-02  0.1098965E+00
          1   -1    0    0  501    0  0.00000000000E+00  0.00000000000E+00  0.12018594151E+03  0.12018594151E+03  0.00000000000E+00 0. -1.
         -1   -1    0    0    0  501 -0.00000000000E+00 -0.00000000000E+00 -0.15626240028E+03  0.15626240028E+03  0.00000000000E+00 0. -1.
         35    2    1    2    0    0  0.00000000000E+00  0.00000000000E+00 -0.36076458767E+02  0.27644834179E+03  0.27408424763E+03 0.  0.
         25    1    3    3    0    0  0.50179564106E+02  0.35976372213E+02  0.60054987789E+01  0.13508646870E+03  0.12000000000E+03 0.  0.
         25    1    3    3    0    0 -0.50179564106E+02 -0.35976372213E+02 -0.42081957546E+02  0.14136187309E+03  0.12000000000E+03 0.  0.
<mgrwt>
<rscale>  0 0.27408425E+03</rscale>
<asrwt>0</asrwt>
<pdfrwt beam="1">  1        1 0.18490145E-01 0.27408425E+03</pdfrwt>
<pdfrwt beam="2">  1       -1 0.24040369E-01 0.27408425E+03</pdfrwt>
<totfact> 0.41801264E+03</totfact>
</mgrwt>
</event>
<event>
 5    1  0.1107336E+001  0.2813811E+03  0.7818608E-02  0.1094937E+00
         -2   -1    0    0    0  501 -0.00000000000E+00  0.00000000000E+00  0.82270559489E+02  0.82270559489E+02  0.00000000000E+00 0.  1.
          2   -1    0    0  501    0  0.00000000000E+00 -0.00000000000E+00 -0.24059430887E+03  0.24059430887E+03  0.00000000000E+00 0.  1.
         35    2    1    2    0    0  0.00000000000E+00  0.00000000000E+00 -0.15832374938E+03  0.32286486836E+03  0.28138108253E+03 0.  0.
         25    1    3    3    0    0 -0.35077014846E+02  0.55177971597E+02 -0.11754201558E+03  0.18025296377E+03  0.12000000000E+03 0.  0.
         25    1    3    3    0    0  0.35077014846E+02 -0.55177971597E+02 -0.40781733803E+02  0.14261190459E+03  0.12000000000E+03 0.  0.
<mgrwt>
<rscale>  0 0.28138108E+03</rscale>
<asrwt>0</asrwt>
<pdfrwt beam="1">  1        2 0.37014508E-01 0.28138108E+03</pdfrwt>
<pdfrwt beam="2">  1       -2 0.12657010E-01 0.28138108E+03</pdfrwt>
<totfact> 0.62644908E+03</totfact>
</mgrwt>
</event>
<event>
 5    1  0.1107336E+001  0.2734336E+03  0.7818608E-02  0.1099330E+00
         -2   -1    0    0    0  501 -0.00000000000E+00  0.00000000000E+00  0.21929710088E+02  0.21929710088E+02  0.00000000000E+00 0. -1.
          2   -1    0    0  501    0  0.00000000000E+00 -0.00000000000E+00 -0.85233620905E+03  0.85233620905E+03  0.00000000000E+00 0. -1.
         35    2    1    2    0    0  0.00000000000E+00  0.00000000000E+00 -0.83040649896E+03  0.87426591914E+03  0.27343361872E+03 0.  0.
         25    1    3    3    0    0  0.23958267664E+01  0.52229442219E+01 -0.20655330513E+03  0.23895038605E+03  0.12000000000E+03 0.  0.
         25    1    3    3    0    0 -0.23958267664E+01 -0.52229442219E+01 -0.62385319383E+03  0.63531553309E+03  0.12000000000E+03 0.  0.
<mgrwt>
<rscale>  0 0.27343362E+03</rscale>
<asrwt>0</asrwt>
<pdfrwt beam="1">  1        2 0.13112863E+00 0.27343362E+03</pdfrwt>
<pdfrwt beam="2">  1       -2 0.33738021E-02 0.27343362E+03</pdfrwt>
<totfact> 0.11564101E+04</totfact>
</mgrwt>
</event>
<event>
 5    1  0.1107336E+001  0.2765139E+03  0.7818608E-02  0.1097608E+00
          1   -1    0    0  501    0  0.00000000000E+00  0.00000000000E+00  0.10191264776E+04  0.10191264776E+04  0.00000000000E+00 0. -1.
         -1   -1    0    0    0  501 -0.00000000000E+00 -0.00000000000E+00 -0.18756246829E+02  0.18756246829E+02  0.00000000000E+00 0. -1.
         35    2    1    2    0    0  0.00000000000E+00  0.00000000000E+00  0.10003702308E+04  0.10378827244E+04  0.27651392561E+03 0.  0.
         25    1    3    3    0    0 -0.15055453223E+02  0.29676248610E+02  0.27473889746E+03  0.30164351175E+03  0.12000000000E+03 0.  0.
         25    1    3    3    0    0  0.15055453223E+02 -0.29676248610E+02  0.72563133331E+03  0.73623921268E+03  0.12000000000E+03 0.  0.
<mgrwt>
<rscale>  0 0.27651393E+03</rscale>
<asrwt>0</asrwt>
<pdfrwt beam="1">  1        1 0.15678865E+00 0.27651393E+03</pdfrwt>
<pdfrwt beam="2">  1       -1 0.28855772E-02 0.27651393E+03</pdfrwt>
<totfact> 0.61790106E+03</totfact>
</mgrwt>
</event>
<event>
 5    1  0.1107336E+001  0.2762438E+03  0.7818608E-02  0.1097758E+00
         -1   -1    0    0    0  501 -0.00000000000E+00  0.00000000000E+00  0.20324635914E+02  0.20324635914E+02  0.00000000000E+00 0.  1.
          1   -1    0    0  501    0  0.00000000000E+00 -0.00000000000E+00 -0.93864693588E+03  0.93864693588E+03  0.00000000000E+00 0.  1.
         35    2    1    2    0    0  0.00000000000E+00  0.00000000000E+00 -0.91832229997E+03  0.95897157179E+03  0.27624378526E+03 0.  0.
         25    1    3    3    0    0  0.52323836575E+02 -0.47197908291E+00 -0.61204970198E+03  0.62589363659E+03  0.12000000000E+03 0.  0.
         25    1    3    3    0    0 -0.52323836575E+02  0.47197908291E+00 -0.30627259799E+03  0.33307793520E+03  0.12000000000E+03 0.  0.
<mgrwt>
<rscale>  0 0.27624379E+03</rscale>
<asrwt>0</asrwt>
<pdfrwt beam="1">  1        1 0.14440722E+00 0.27624379E+03</pdfrwt>
<pdfrwt beam="2">  1       -1 0.31268672E-02 0.27624379E+03</pdfrwt>
<totfact> 0.63135824E+03</totfact>
</mgrwt>
</event>
<event>
 5    1  0.1107336E+001  0.2733874E+03  0.7818608E-02  0.1099356E+00
          2   -1    0    0  501    0  0.00000000000E+00  0.00000000000E+00  0.18485570969E+04  0.18485570969E+04  0.00000000000E+00 0.  1.
         -2   -1    0    0    0  501 -0.00000000000E+00 -0.00000000000E+00 -0.10107971658E+02  0.10107971658E+02  0.00000000000E+00 0.  1.
         35    2    1    2    0    0  0.00000000000E+00  0.00000000000E+00  0.18384491253E+04  0.18586650686E+04  0.27338736433E+03 0.  0.
         25    1    3    3    0    0 -0.48221960493E+02  0.43786710701E+02  0.87488754348E+03  0.88547775084E+03  0.12000000000E+03 0.  0.
         25    1    3    3    0    0  0.48221960493E+02 -0.43786710701E+02  0.96356158178E+03  0.97318731773E+03  0.12000000000E+03 0.  0.
<mgrwt>
<rscale>  0 0.27338736E+03</rscale>
<asrwt>0</asrwt>
<pdfrwt beam="1">  1        2 0.28439313E+00 0.27338736E+03</pdfrwt>
<pdfrwt beam="2">  1       -2 0.15550740E-02 0.27338736E+03</pdfrwt>
<totfact> 0.99857325E+03</totfact>
</mgrwt>
</event>
<event>
 5    1  0.1107336E+001  0.2746435E+03  0.7818608E-02  0.1098651E+00
         -2   -1    0    0    0  501 -0.00000000000E+00  0.00000000000E+00  0.68052209168E+02  0.68052209168E+02  0.00000000000E+00 0.  1.
          2   -1    0    0  501    0  0.00000000000E+00 -0.00000000000E+00 -0.27710002260E+03  0.27710002260E+03  0.00000000000E+00 0.  1.
         35    2    1    2    0    0  0.00000000000E+00  0.00000000000E+00 -0.20904781343E+03  0.34515223177E+03  0.27464354133E+03 0.  0.
         25    1    3    3    0    0  0.39389693778E+01  0.59849719210E+02 -0.67674456993E+02  0.15025756719E+03  0.12000000000E+03 0.  0.
         25    1    3    3    0    0 -0.39389693778E+01 -0.59849719210E+02 -0.14137335644E+03  0.19489466458E+03  0.12000000000E+03 0.  0.
<mgrwt>
<rscale>  0 0.27464354E+03</rscale>
<asrwt>0</asrwt>
<pdfrwt beam="1">  1        2 0.42630772E-01 0.27464354E+03</pdfrwt>
<pdfrwt beam="2">  1       -2 0.10469571E-01 0.27464354E+03</pdfrwt>
<totfact> 0.72927464E+03</totfact>
</mgrwt>
</event>
<event>
 5    1  0.1107336E+001  0.2744276E+03  0.7818608E-02  0.1098772E+00
          2   -1    0    0  501    0  0.00000000000E+00  0.00000000000E+00  0.91571962994E+02  0.91571962994E+02  0.00000000000E+00 0.  1.
         -2   -1    0    0    0  501 -0.00000000000E+00 -0.00000000000E+00 -0.20560474591E+03  0.20560474591E+03  0.00000000000E+00 0.  1.
         35    2    1    2    0    0  0.00000000000E+00  0.00000000000E+00 -0.11403278291E+03  0.29717670890E+03  0.27442762385E+03 0.  0.
         25    1    3    3    0    0  0.65904560249E+02 -0.90082240128E+01 -0.58914095198E+02  0.14931654220E+03  0.12000000000E+03 0.  0.
         25    1    3    3    0    0 -0.65904560249E+02  0.90082240128E+01 -0.55118687715E+02  0.14786016670E+03  0.12000000000E+03 0.  0.
<mgrwt>
<rscale>  0 0.27442762E+03</rscale>
<asrwt>0</asrwt>
<pdfrwt beam="1">  1        2 0.14087994E-01 0.27442762E+03</pdfrwt>
<pdfrwt beam="2">  1       -2 0.31631499E-01 0.27442762E+03</pdfrwt>
<totfact> 0.38771108E+03</totfact>
</mgrwt>
</event>
<event>
 5    1  0.1107336E+001  0.2777493E+03  0.7818608E-02  0.1096925E+00
          3   -1    0    0  501    0  0.00000000000E+00  0.00000000000E+00  0.96180678896E+02  0.96180678896E+02  0.00000000000E+00 0.  1.
         -3   -1    0    0    0  501 -0.00000000000E+00 -0.00000000000E+00 -0.20052024990E+03  0.20052024990E+03  0.00000000000E+00 0.  1.
         35    2    1    2    0    0  0.00000000000E+00  0.00000000000E+00 -0.10433957100E+03  0.29670092879E+03  0.27774933856E+03 0.  0.
         25    1    3    3    0    0  0.29359936290E+02 -0.61032319544E+02 -0.33691401101E+02  0.14185224847E+03  0.12000000000E+03 0.  0.
         25    1    3    3    0    0 -0.29359936290E+02  0.61032319544E+02 -0.70648169902E+02  0.15484868032E+03  0.12000000000E+03 0.  0.
<mgrwt>
<rscale>  0 0.27774934E+03</rscale>
<asrwt>0</asrwt>
<pdfrwt beam="1">  1        3 0.14797028E-01 0.27774934E+03</pdfrwt>
<pdfrwt beam="2">  1       -3 0.30849269E-01 0.27774934E+03</pdfrwt>
<totfact> 0.98578625E+02</totfact>
</mgrwt>
</event>
<event>
 5    1  0.1107336E+001  0.2744839E+03  0.7818608E-02  0.1098740E+00
         -1   -1    0    0    0  501 -0.00000000000E+00  0.00000000000E+00  0.67931962557E+02  0.67931962557E+02  0.00000000000E+00 0.  1.
          1   -1    0    0  501    0  0.00000000000E+00 -0.00000000000E+00 -0.27726799470E+03  0.27726799470E+03  0.00000000000E+00 0.  1.
         35    2    1    2    0    0  0.00000000000E+00  0.00000000000E+00 -0.20933603214E+03  0.34519995726E+03  0.27448394513E+03 0.  0.
         25    1    3    3    0    0  0.39666082473E+02 -0.23272615111E+02 -0.44087887450E+02  0.13586299913E+03  0.12000000000E+03 0.  0.
         25    1    3    3    0    0 -0.39666082473E+02  0.23272615111E+02 -0.16524814469E+03  0.20933695813E+03  0.12000000000E+03 0.  0.
<mgrwt>
<rscale>  0 0.27448395E+03</rscale>
<asrwt>0</asrwt>
<pdfrwt beam="1">  1        1 0.42656615E-01 0.27448395E+03</pdfrwt>
<pdfrwt beam="2">  1       -1 0.10451071E-01 0.27448395E+03</pdfrwt>
<totfact> 0.54726945E+03</totfact>
</mgrwt>
</event>
<event>
 5    1  0.1107336E+001  0.2749051E+03  0.7818608E-02  0.1098505E+00
         -4   -1    0    0    0  501 -0.00000000000E+00  0.00000000000E+00  0.61201738361E+02  0.61201738361E+02  0.00000000000E+00 0. -1.
          4   -1    0    0  501    0  0.00000000000E+00 -0.00000000000E+00 -0.30870360751E+03  0.30870360751E+03  0.00000000000E+00 0. -1.
         35    2    1    2    0    0  0.00000000000E+00  0.00000000000E+00 -0.24750186915E+03  0.36990534587E+03  0.27490505574E+03 0.  0.
         25    1    3    3    0    0 -0.13628133586E+02 -0.33881334911E+02 -0.19938525072E+03  0.23555922628E+03  0.12000000000E+03 0.  0.
         25    1    3    3    0    0  0.13628133586E+02  0.33881334911E+02 -0.48116618427E+02  0.13434611959E+03  0.12000000000E+03 0.  0.
<mgrwt>
<rscale>  0 0.27490506E+03</rscale>
<asrwt>0</asrwt>
<pdfrwt beam="1">  1        4 0.47492863E-01 0.27490506E+03</pdfrwt>
<pdfrwt beam="2">  1       -4 0.94156519E-02 0.27490506E+03</pdfrwt>
<totfact> 0.67857407E+02</totfact>
</mgrwt>
</event>
<event>
 5    1  0.1107336E+001  0.2748193E+03  0.7818608E-02  0.1098553E+00
          2   -1    0    0  501    0  0.00000000000E+00  0.00000000000E+00  0.53344782828E+03  0.53344782828E+03  0.00000000000E+00 0. -1.
         -2   -1    0    0    0  501 -0.00000000000E+00 -0.00000000000E+00 -0.35395057964E+02  0.35395057964E+02  0.00000000000E+00 0. -1.
         35    2    1    2    0    0  0.00000000000E+00  0.00000000000E+00  0.49805277032E+03  0.56884288625E+03  0.27481933558E+03 0.  0.
         25    1    3    3    0    0 -0.35947926016E+02 -0.33921287689E+02  0.15557162380E+03  0.20259673560E+03  0.12000000000E+03 0.  0.
         25    1    3    3    0    0  0.35947926016E+02  0.33921287689E+02  0.34248114652E+03  0.36624615065E+03  0.12000000000E+03 0.  0.
<mgrwt>
<rscale>  0 0.27481934E+03</rscale>
<asrwt>0</asrwt>
<pdfrwt beam="1">  1        2 0.82068891E-01 0.27481934E+03</pdfrwt>
<pdfrwt beam="2">  1       -2 0.54453939E-02 0.27481934E+03</pdfrwt>
<totfact> 0.98817093E+03</totfact>
</mgrwt>
</event>
<event>
 5    1  0.1107336E+001  0.2742386E+03  0.7818608E-02  0.1098878E+00
          2   -1    0    0  501    0  0.00000000000E+00  0.00000000000E+00  0.25710932214E+04  0.25710932214E+04  0.00000000000E+00 0.  1.
         -2   -1    0    0    0  501 -0.00000000000E+00 -0.00000000000E+00 -0.73127266646E+01  0.73127266646E+01  0.00000000000E+00 0.  1.
         35    2    1    2    0    0  0.00000000000E+00  0.00000000000E+00  0.25637804948E+04  0.25784059481E+04  0.27423859654E+03 0.  0.
         25    1    3    3    0    0  0.18612325050E+02  0.36161895459E+02  0.78905754243E+03  0.79916575665E+03  0.12000000000E+03 0.  0.
         25    1    3    3    0    0 -0.18612325050E+02 -0.36161895459E+02  0.17747229523E+04  0.17792401915E+04  0.12000000000E+03 0.  0.
<mgrwt>
<rscale>  0 0.27423860E+03</rscale>
<asrwt>0</asrwt>
<pdfrwt beam="1">  1        2 0.39555208E+00 0.27423860E+03</pdfrwt>
<pdfrwt beam="2">  1       -2 0.11250369E-02 0.27423860E+03</pdfrwt>
<totfact> 0.65825511E+03</totfact>
</mgrwt>
</event>
<event>
 5    1  0.1107336E+001  0.2661378E+03  0.7818608E-02  0.1103511E+00
         -2   -1    0    0    0  501 -0.00000000000E+00  0.00000000000E+00  0.73659545774E+03  0.73659545774E+03  0.00000000000E+00 0. -1.
          2   -1    0    0  501    0  0.00000000000E+00 -0.00000000000E+00 -0.24039427558E+02  0.24039427558E+02  0.00000000000E+00 0. -1.
         35    2    1    2    0    0  0.00000000000E+00  0.00000000000E+00  0.71255603018E+03  0.76063488530E+03  0.26613780751E+03 0.  0.
         25    1    3    3    0    0  0.65533379480E+01  0.12221447258E+01  0.19302128296E+03  0.22737998055E+03  0.12000000000E+03 0.  0.
         25    1    3    3    0    0 -0.65533379480E+01 -0.12221447258E+01  0.51953474722E+03  0.53325490475E+03  0.12000000000E+03 0.  0.
<mgrwt>
<rscale>  0 0.26613781E+03</rscale>
<asrwt>0</asrwt>
<pdfrwt beam="1">  1        2 0.36983740E-02 0.26613781E+03</pdfrwt>
<pdfrwt beam="2">  1       -2 0.11332236E+00 0.26613781E+03</pdfrwt>
<totfact> 0.15000309E+03</totfact>
</mgrwt>
</event>
<event>
 5    1  0.1107336E+001  0.2750007E+03  0.7818608E-02  0.1098451E+00
          2   -1    0    0  501    0  0.00000000000E+00  0.00000000000E+00  0.22215575244E+03  0.22215575244E+03  0.00000000000E+00 0. -1.
         -2   -1    0    0    0  501 -0.00000000000E+00 -0.00000000000E+00 -0.85104041596E+02  0.85104041596E+02  0.00000000000E+00 0. -1.
         35    2    1    2    0    0  0.00000000000E+00  0.00000000000E+00  0.13705171085E+03  0.30725979404E+03  0.27500074470E+03 0.  0.
         25    1    3    3    0    0  0.79381703722E+01  0.27943601819E+02  0.90817558085E+00  0.12346936549E+03  0.12000000000E+03 0.  0.
         25    1    3    3    0    0 -0.79381703722E+01 -0.27943601819E+02  0.13614353527E+03  0.18379042855E+03  0.12000000000E+03 0.  0.
<mgrwt>
<rscale>  0 0.27500074E+03</rscale>
<asrwt>0</asrwt>
<pdfrwt beam="1">  1        2 0.34177808E-01 0.27500074E+03</pdfrwt>
<pdfrwt beam="2">  1       -2 0.13092930E-01 0.27500074E+03</pdfrwt>
<totfact> 0.64593723E+03</totfact>
</mgrwt>
</event>
<event>
 5    1  0.1107336E+001  0.2748106E+03  0.7818608E-02  0.1098557E+00
         -3   -1    0    0    0  501 -0.00000000000E+00  0.00000000000E+00  0.13272576186E+04  0.13272576186E+04  0.00000000000E+00 0. -1.
          3   -1    0    0  501    0  0.00000000000E+00 -0.00000000000E+00 -0.14224985839E+02  0.14224985839E+02  0.00000000000E+00 0. -1.
         35    2    1    2    0    0  0.00000000000E+00  0.00000000000E+00  0.13130326328E+04  0.13414826045E+04  0.27481063174E+03 0.  0.
         25    1    3    3    0    0  0.17243874373E+02 -0.56059776630E+02  0.49908036957E+03  0.51664423451E+03  0.12000000000E+03 0.  0.
         25    1    3    3    0    0 -0.17243874373E+02  0.56059776630E+02  0.81395226321E+03  0.82483836995E+03  0.12000000000E+03 0.  0.
<mgrwt>
<rscale>  0 0.27481063E+03</rscale>
<asrwt>0</asrwt>
<pdfrwt beam="1">  1        3 0.21884604E-02 0.27481063E+03</pdfrwt>
<pdfrwt beam="2">  1       -3 0.20419338E+00 0.27481063E+03</pdfrwt>
<totfact> 0.31593238E+02</totfact>
</mgrwt>
</event>
<event>
 5    1  0.1107336E+001  0.2739620E+03  0.7818608E-02  0.1099033E+00
          2   -1    0    0  501    0  0.00000000000E+00  0.00000000000E+00  0.57399462331E+02  0.57399462331E+02  0.00000000000E+00 0. -1.
         -2   -1    0    0    0  501 -0.00000000000E+00 -0.00000000000E+00 -0.32689835171E+03  0.32689835171E+03  0.00000000000E+00 0. -1.
         35    2    1    2    0    0  0.00000000000E+00  0.00000000000E+00 -0.26949888938E+03  0.38429781404E+03  0.27396196543E+03 0.  0.
         25    1    3    3    0    0  0.47179797242E+02 -0.45186565778E+02 -0.12100324873E+03  0.18250902771E+03  0.12000000000E+03 0.  0.
         25    1    3    3    0    0 -0.47179797242E+02  0.45186565778E+02 -0.14849564065E+03  0.20178878633E+03  0.12000000000E+03 0.  0.
<mgrwt>
<rscale>  0 0.27396197E+03</rscale>
<asrwt>0</asrwt>
<pdfrwt beam="1">  1        2 0.88306865E-02 0.27396197E+03</pdfrwt>
<pdfrwt beam="2">  1       -2 0.50292054E-01 0.27396197E+03</pdfrwt>
<totfact> 0.28353228E+03</totfact>
</mgrwt>
</event>
<event>
 5    1  0.1107336E+001  0.2742679E+03  0.7818608E-02  0.1098862E+00
          2   -1    0    0  501    0  0.00000000000E+00  0.00000000000E+00  0.28793912078E+02  0.28793912078E+02  0.00000000000E+00 0. -1.
         -2   -1    0    0    0  501 -0.00000000000E+00 -0.00000000000E+00 -0.65311435033E+03  0.65311435033E+03  0.00000000000E+00 0. -1.
         35    2    1    2    0    0  0.00000000000E+00  0.00000000000E+00 -0.62432043826E+03  0.68190826241E+03  0.27426787767E+03 0.  0.
         25    1    3    3    0    0  0.47236906650E+01  0.37523792621E+02 -0.44777949383E+03  0.46512022463E+03  0.12000000000E+03 0.  0.
         25    1    3    3    0    0 -0.47236906650E+01 -0.37523792621E+02 -0.17654094443E+03  0.21678803778E+03  0.12000000000E+03 0.  0.
<mgrwt>
<rscale>  0 0.27426788E+03</rscale>
<asrwt>0</asrwt>
<pdfrwt beam="1">  1        2 0.44298329E-02 0.27426788E+03</pdfrwt>
<pdfrwt beam="2">  1       -2 0.10047912E+00 0.27426788E+03</pdfrwt>
<totfact> 0.15657182E+03</totfact>
</mgrwt>
</event>
<event>
 5    1  0.1107336E+001  0.2759377E+03  0.7818608E-02  0.1097929E+00
          1   -1    0    0  501    0  0.00000000000E+00  0.00000000000E+00  0.25575689834E+03  0.25575689834E+03  0.00000000000E+00 0.  1.
         -1   -1    0    0    0  501 -0.00000000000E+00 -0.00000000000E+00 -0.74427730345E+02  0.74427730345E+02  0.00000000000E+00 0.  1.
         35    2    1    2    0    0  0.00000000000E+00  0.00000000000E+00  0.18132916799E+03  0.33018462868E+03  0.27593771372E+03 0.  0.
         25    1    3    3    0    0  0.28274490228E+02 -0.22502409332E+02  0.21618057294E+02  0.12717368291E+03  0.12000000000E+03 0.  0.
         25    1    3    3    0    0 -0.28274490228E+02  0.22502409332E+02  0.15971111070E+03  0.20301094577E+03  0.12000000000E+03 0.  0.
<mgrwt>
<rscale>  0 0.27593771E+03</rscale>
<asrwt>0</asrwt>
<pdfrwt beam="1">  1        1 0.39347215E-01 0.27593771E+03</pdfrwt>
<pdfrwt beam="2">  1       -1 0.11450420E-01 0.27593771E+03</pdfrwt>
<totfact> 0.52561384E+03</totfact>
</mgrwt>
</event>
<event>
 5    1  0.1107336E+001  0.2753646E+03  0.7818608E-02  0.1098248E+00
          2   -1    0    0  501    0  0.00000000000E+00  0.00000000000E+00  0.20734606108E+04  0.20734606108E+04  0.00000000000E+00 0. -1.
         -2   -1    0    0    0  501 -0.00000000000E+00 -0.00000000000E+00 -0.91424051315E+01  0.91424051315E+01  0.00000000000E+00 0. -1.
         35    2    1    2    0    0  0.00000000000E+00  0.00000000000E+00  0.20643182057E+04  0.20826030159E+04  0.27536460868E+03 0.  0.
         25    1    3    3    0    0 -0.24590878685E+02  0.60460982762E+02  0.90200055345E+03  0.91228572288E+03  0.12000000000E+03 0.  0.
         25    1    3    3    0    0  0.24590878685E+02 -0.60460982762E+02  0.11623176522E+04  0.11703172931E+04  0.12000000000E+03 0.  0.
<mgrwt>
<rscale>  0 0.27536461E+03</rscale>
<asrwt>0</asrwt>
<pdfrwt beam="1">  1        2 0.31899357E+00 0.27536461E+03</pdfrwt>
<pdfrwt beam="2">  1       -2 0.14065255E-02 0.27536461E+03</pdfrwt>
<totfact> 0.88092293E+03</totfact>
</mgrwt>
</event>
<event>
 5    1  0.1107336E+001  0.2771868E+03  0.7818608E-02  0.1097235E+00
          2   -1    0    0  501    0  0.00000000000E+00  0.00000000000E+00  0.11746799761E+04  0.11746799761E+04  0.00000000000E+00 0.  1.
         -2   -1    0    0    0  501 -0.00000000000E+00 -0.00000000000E+00 -0.16351795815E+02  0.16351795815E+02  0.00000000000E+00 0.  1.
         35    2    1    2    0    0  0.00000000000E+00  0.00000000000E+00  0.11583281802E+04  0.11910317719E+04  0.27718677542E+03 0.  0.
         25    1    3    3    0    0 -0.55711107974E+02  0.40917975964E+02  0.55558268229E+03  0.57258198118E+03  0.12000000000E+03 0.  0.
         25    1    3    3    0    0  0.55711107974E+02 -0.40917975964E+02  0.60274549796E+03  0.61844979070E+03  0.12000000000E+03 0.  0.
<mgrwt>
<rscale>  0 0.27718678E+03</rscale>
<asrwt>0</asrwt>
<pdfrwt beam="1">  1        2 0.18071993E+00 0.27718678E+03</pdfrwt>
<pdfrwt beam="2">  1       -2 0.25156618E-02 0.27718678E+03</pdfrwt>
<totfact> 0.11363168E+04</totfact>
</mgrwt>
</event>
<event>
 5    1  0.1107336E+001  0.2751907E+03  0.7818608E-02  0.1098345E+00
          1   -1    0    0  501    0  0.00000000000E+00  0.00000000000E+00  0.97783722820E+03  0.97783722820E+03  0.00000000000E+00 0. -1.
         -1   -1    0    0    0  501 -0.00000000000E+00 -0.00000000000E+00 -0.19361586302E+02  0.19361586302E+02  0.00000000000E+00 0. -1.
         35    2    1    2    0    0  0.00000000000E+00  0.00000000000E+00  0.95847564189E+03  0.99719881450E+03  0.27519069667E+03 0.  0.
         25    1    3    3    0    0 -0.48327801488E+02 -0.38808804142E+02  0.38399813631E+03  0.40705806510E+03  0.12000000000E+03 0.  0.
         25    1    3    3    0    0  0.48327801488E+02  0.38808804142E+02  0.57447750558E+03  0.59014074939E+03  0.12000000000E+03 0.  0.
<mgrwt>
<rscale>  0 0.27519070E+03</rscale>
<asrwt>0</asrwt>
<pdfrwt beam="1">  1        1 0.15043646E+00 0.27519070E+03</pdfrwt>
<pdfrwt beam="2">  1       -1 0.29787064E-02 0.27519070E+03</pdfrwt>
<totfact> 0.63308973E+03</totfact>
</mgrwt>
</event>
<event>
 5    1  0.1107336E+001  0.2744384E+03  0.7818608E-02  0.1098766E+00
          2   -1    0    0  501    0  0.00000000000E+00  0.00000000000E+00  0.31564077953E+03  0.31564077953E+03  0.00000000000E+00 0. -1.
         -2   -1    0    0    0  501 -0.00000000000E+00 -0.00000000000E+00 -0.59653587637E+02  0.59653587637E+02  0.00000000000E+00 0. -1.
         35    2    1    2    0    0  0.00000000000E+00  0.00000000000E+00  0.25598719190E+03  0.37529436717E+03  0.27443837125E+03 0.  0.
         25    1    3    3    0    0 -0.57072738143E+02  0.57625100551E+01  0.17413735622E+03  0.21912170771E+03  0.12000000000E+03 0.  0.
         25    1    3    3    0    0  0.57072738143E+02 -0.57625100551E+01  0.81849835682E+02  0.15617265946E+03  0.12000000000E+03 0.  0.
<mgrwt>
<rscale>  0 0.27443837E+03</rscale>
<asrwt>0</asrwt>
<pdfrwt beam="1">  1        2 0.48560119E-01 0.27443837E+03</pdfrwt>
<pdfrwt beam="2">  1       -2 0.91774752E-02 0.27443837E+03</pdfrwt>
<totfact> 0.78132086E+03</totfact>
</mgrwt>
</event>
<event>
 5    1  0.1107336E+001  0.2732602E+03  0.7818608E-02  0.1099428E+00
          2   -1    0    0  501    0  0.00000000000E+00  0.00000000000E+00  0.72680634203E+03  0.72680634203E+03  0.00000000000E+00 0. -1.
         -2   -1    0    0    0  501 -0.00000000000E+00 -0.00000000000E+00 -0.25684674745E+02  0.25684674745E+02  0.00000000000E+00 0. -1.
         35    2    1    2    0    0  0.00000000000E+00  0.00000000000E+00  0.70112166729E+03  0.75249101678E+03  0.27326020199E+03 0.  0.
         25    1    3    3    0    0  0.57305476974E+02 -0.76660011470E+01  0.26680422289E+03  0.29820660391E+03  0.12000000000E+03 0.  0.
         25    1    3    3    0    0 -0.57305476974E+02  0.76660011470E+01  0.43431744440E+03  0.45428441287E+03  0.12000000000E+03 0.  0.
<mgrwt>
<rscale>  0 0.27326020E+03</rscale>
<asrwt>0</asrwt>
<pdfrwt beam="1">  1        2 0.11181634E+00 0.27326020E+03</pdfrwt>
<pdfrwt beam="2">  1       -2 0.39514890E-02 0.27326020E+03</pdfrwt>
<totfact> 0.11163438E+04</totfact>
</mgrwt>
</event>
<event>
 5    1  0.1107336E+001  0.2736326E+03  0.7818608E-02  0.1099218E+00
          2   -1    0    0  501    0  0.00000000000E+00  0.00000000000E+00  0.12951880349E+04  0.12951880349E+04  0.00000000000E+00 0. -1.
         -2   -1    0    0    0  501 -0.00000000000E+00 -0.00000000000E+00 -0.14452496436E+02  0.14452496436E+02  0.00000000000E+00 0. -1.
         35    2    1    2    0    0  0.00000000000E+00  0.00000000000E+00  0.12807355384E+04  0.13096405313E+04  0.27363260374E+03 0.  0.
         25    1    3    3    0    0 -0.53418359390E+01  0.65186384313E+02  0.60975879195E+03  0.62488685718E+03  0.12000000000E+03 0.  0.
         25    1    3    3    0    0  0.53418359390E+01 -0.65186384313E+02  0.67097674646E+03  0.68475367411E+03  0.12000000000E+03 0.  0.
<mgrwt>
<rscale>  0 0.27363260E+03</rscale>
<asrwt>0</asrwt>
<pdfrwt beam="1">  1        2 0.19925961E+00 0.27363260E+03</pdfrwt>
<pdfrwt beam="2">  1       -2 0.22234620E-02 0.27363260E+03</pdfrwt>
<totfact> 0.11661067E+04</totfact>
</mgrwt>
</event>
<event>
 5    1  0.1107336E+001  0.2739218E+03  0.7818608E-02  0.1099056E+00
         -1   -1    0    0    0  501 -0.00000000000E+00  0.00000000000E+00  0.10876686563E+04  0.10876686563E+04  0.00000000000E+00 0.  1.
          1   -1    0    0  501    0  0.00000000000E+00 -0.00000000000E+00 -0.17246328980E+02  0.17246328980E+02  0.00000000000E+00 0.  1.
         35    2    1    2    0    0  0.00000000000E+00  0.00000000000E+00  0.10704223273E+04  0.11049149853E+04  0.27392182438E+03 0.  0.
         25    1    3    3    0    0  0.14759717574E+02  0.61914680697E+02  0.46453358129E+03  0.48398628606E+03  0.12000000000E+03 0.  0.
         25    1    3    3    0    0 -0.14759717574E+02 -0.61914680697E+02  0.60588874602E+03  0.62092869921E+03  0.12000000000E+03 0.  0.
<mgrwt>
<rscale>  0 0.27392182E+03</rscale>
<asrwt>0</asrwt>
<pdfrwt beam="1">  1        1 0.26532822E-02 0.27392182E+03</pdfrwt>
<pdfrwt beam="2">  1       -1 0.16733359E+00 0.27392182E+03</pdfrwt>
<totfact> 0.11399565E+03</totfact>
</mgrwt>
</event>
<event>
 5    1  0.1107336E+001  0.2748664E+03  0.7818608E-02  0.1098526E+00
          2   -1    0    0  501    0  0.00000000000E+00  0.00000000000E+00  0.10316984354E+04  0.10316984354E+04  0.00000000000E+00 0. -1.
         -2   -1    0    0    0  501 -0.00000000000E+00 -0.00000000000E+00 -0.18307568283E+02  0.18307568283E+02  0.00000000000E+00 0. -1.
         35    2    1    2    0    0  0.00000000000E+00  0.00000000000E+00  0.10133908671E+04  0.10500060037E+04  0.27486643704E+03 0.  0.
         25    1    3    3    0    0  0.61584152338E+02 -0.24668323680E+02  0.54227647707E+03  0.55934328600E+03  0.12000000000E+03 0.  0.
         25    1    3    3    0    0 -0.61584152338E+02  0.24668323680E+02  0.47111439007E+03  0.49066271770E+03  0.12000000000E+03 0.  0.
<mgrwt>
<rscale>  0 0.27486644E+03</rscale>
<asrwt>0</asrwt>
<pdfrwt beam="1">  1        2 0.15872279E+00 0.27486644E+03</pdfrwt>
<pdfrwt beam="2">  1       -2 0.28165498E-02 0.27486644E+03</pdfrwt>
<totfact> 0.11657668E+04</totfact>
</mgrwt>
</event>
<event>
 5    1  0.1107336E+001  0.2750353E+03  0.7818608E-02  0.1098432E+00
          4   -1    0    0  501    0  0.00000000000E+00  0.00000000000E+00  0.82076391858E+02  0.82076391858E+02  0.00000000000E+00 0.  1.
         -4   -1    0    0    0  501 -0.00000000000E+00 -0.00000000000E+00 -0.23040857427E+03  0.23040857427E+03  0.00000000000E+00 0.  1.
         35    2    1    2    0    0  0.00000000000E+00  0.00000000000E+00 -0.14833218241E+03  0.31248496612E+03  0.27503530267E+03 0.  0.
         25    1    3    3    0    0 -0.22066597620E+02  0.63346767607E+02 -0.70337249790E+02  0.15442498634E+03  0.12000000000E+03 0.  0.
         25    1    3    3    0    0  0.22066597620E+02 -0.63346767607E+02 -0.77994932618E+02  0.15805997979E+03  0.12000000000E+03 0.  0.
<mgrwt>
<rscale>  0 0.27503530E+03</rscale>
<asrwt>0</asrwt>
<pdfrwt beam="1">  1        4 0.12627137E-01 0.27503530E+03</pdfrwt>
<pdfrwt beam="2">  1       -4 0.35447473E-01 0.27503530E+03</pdfrwt>
<totfact> 0.73594468E+02</totfact>
</mgrwt>
</event>
<event>
 4    1  0.1107336E+001  0.2452788E+03  0.7818608E-02  0.1116325E+00
          2   -1    0    0  501    0  0.00000000000E+00  0.00000000000E+00  0.11387904933E+04  0.11387904933E+04  0.00000000000E+00 0.  1.
         -2   -1    0    0    0  501 -0.00000000000E+00 -0.00000000000E+00 -0.13207367884E+02  0.13207367884E+02  0.00000000000E+00 0.  1.
         25    1    1    2    0    0 -0.67404986214E+01  0.15783920261E+02  0.47544599602E+03  0.49065615413E+03  0.12000000000E+03 0.  0.
         25    1    1    2    0    0  0.67404986214E+01 -0.15783920261E+02  0.65013712938E+03  0.66134170703E+03  0.12000000000E+03 0.  0.
<mgrwt>
<rscale>  0 0.24527882E+03</rscale>
<asrwt>0</asrwt>
<pdfrwt beam="1">  1        2 0.17519846E+00 0.24527882E+03</pdfrwt>
<pdfrwt beam="2">  1       -2 0.20319037E-02 0.24527882E+03</pdfrwt>
<totfact> 0.16258684E+04</totfact>
</mgrwt>
</event>
<event>
 5    1  0.1107336E+001  0.2749502E+03  0.7818608E-02  0.1098479E+00
          2   -1    0    0  501    0  0.00000000000E+00  0.00000000000E+00  0.24949525918E+04  0.24949525918E+04  0.00000000000E+00 0. -1.
         -2   -1    0    0    0  501 -0.00000000000E+00 -0.00000000000E+00 -0.75750559832E+01  0.75750559832E+01  0.00000000000E+00 0. -1.
         35    2    1    2    0    0  0.00000000000E+00  0.00000000000E+00  0.24873775358E+04  0.25025276478E+04  0.27495021774E+03 0.  0.
         25    1    3    3    0    0  0.19335965388E+02  0.41671166544E+02  0.79881528911E+03  0.80908357528E+03  0.12000000000E+03 0.  0.
         25    1    3    3    0    0 -0.19335965388E+02 -0.41671166544E+02  0.16885622467E+04  0.16934440725E+04  0.12000000000E+03 0.  0.
<mgrwt>
<rscale>  0 0.27495022E+03</rscale>
<asrwt>0</asrwt>
<pdfrwt beam="1">  1        2 0.38383821E+00 0.27495022E+03</pdfrwt>
<pdfrwt beam="2">  1       -2 0.11653952E-02 0.27495022E+03</pdfrwt>
<totfact> 0.68866301E+03</totfact>
</mgrwt>
</event>
<event>
 5    1  0.1107336E+001  0.2746786E+03  0.7818608E-02  0.1098631E+00
         -2   -1    0    0    0  501 -0.00000000000E+00  0.00000000000E+00  0.96467700589E+01  0.96467700589E+01  0.00000000000E+00 0.  1.
          2   -1    0    0  501    0  0.00000000000E+00 -0.00000000000E+00 -0.19552746868E+04  0.19552746868E+04  0.00000000000E+00 0.  1.
         35    2    1    2    0    0  0.00000000000E+00  0.00000000000E+00 -0.19456279167E+04  0.19649214569E+04  0.27467861442E+03 0.  0.
         25    1    3    3    0    0 -0.16515106661E+02  0.60295375885E+02 -0.11411582798E+04  0.11491520790E+04  0.12000000000E+03 0.  0.
         25    1    3    3    0    0  0.16515106661E+02 -0.60295375885E+02 -0.80446963693E+03  0.81576937785E+03  0.12000000000E+03 0.  0.
<mgrwt>
<rscale>  0 0.27467861E+03</rscale>
<asrwt>0</asrwt>
<pdfrwt beam="1">  1        2 0.30081086E+00 0.27467861E+03</pdfrwt>
<pdfrwt beam="2">  1       -2 0.14841216E-02 0.27467861E+03</pdfrwt>
<totfact> 0.93984832E+03</totfact>
</mgrwt>
</event>
<event>
 5    1  0.1107336E+001  0.2747292E+03  0.7818608E-02  0.1098603E+00
         -2   -1    0    0    0  501 -0.00000000000E+00  0.00000000000E+00  0.47901153185E+01  0.47901153185E+01  0.00000000000E+00 0. -1.
          2   -1    0    0  501    0  0.00000000000E+00 -0.00000000000E+00 -0.39391617006E+04  0.39391617006E+04  0.00000000000E+00 0. -1.
         35    2    1    2    0    0  0.00000000000E+00  0.00000000000E+00 -0.39343715853E+04  0.39439518159E+04  0.27472923983E+03 0.  0.
         25    1    3    3    0    0 -0.19086051487E+01 -0.33215110457E+02 -0.11347793786E+04  0.11415914875E+04  0.12000000000E+03 0.  0.
         25    1    3    3    0    0  0.19086051487E+01  0.33215110457E+02 -0.27995922067E+04  0.28023603284E+04  0.12000000000E+03 0.  0.
<mgrwt>
<rscale>  0 0.27472924E+03</rscale>
<asrwt>0</asrwt>
<pdfrwt beam="1">  1        2 0.60602211E+00 0.27472924E+03</pdfrwt>
<pdfrwt beam="2">  1       -2 0.73694419E-03 0.27472924E+03</pdfrwt>
<totfact> 0.16512493E+03</totfact>
</mgrwt>
</event>
<event>
 5    1  0.1107336E+001  0.2752456E+03  0.7818608E-02  0.1098314E+00
          2   -1    0    0  501    0  0.00000000000E+00  0.00000000000E+00  0.32610139692E+03  0.32610139692E+03  0.00000000000E+00 0.  1.
         -2   -1    0    0    0  501 -0.00000000000E+00 -0.00000000000E+00 -0.58080215858E+02  0.58080215858E+02  0.00000000000E+00 0.  1.
         35    2    1    2    0    0  0.00000000000E+00  0.00000000000E+00  0.26802118106E+03  0.38418161278E+03  0.27524563230E+03 0.  0.
         25    1    3    3    0    0 -0.42607040942E+01  0.64650658953E+02  0.10819141786E+03  0.17407827033E+03  0.12000000000E+03 0.  0.
         25    1    3    3    0    0  0.42607040942E+01 -0.64650658953E+02  0.15982976320E+03  0.21010334244E+03  0.12000000000E+03 0.  0.
<mgrwt>
<rscale>  0 0.27524563E+03</rscale>
<asrwt>0</asrwt>
<pdfrwt beam="1">  1        2 0.50169445E-01 0.27524563E+03</pdfrwt>
<pdfrwt beam="2">  1       -2 0.89354180E-02 0.27524563E+03</pdfrwt>
<totfact> 0.78694607E+03</totfact>
</mgrwt>
</event>
<event>
 5    1  0.1107336E+001  0.2744480E+03  0.7818608E-02  0.1098761E+00
         -2   -1    0    0    0  501 -0.00000000000E+00  0.00000000000E+00  0.11554786987E+02  0.11554786987E+02  0.00000000000E+00 0. -1.
          2   -1    0    0  501    0  0.00000000000E+00 -0.00000000000E+00 -0.16296647119E+04  0.16296647119E+04  0.00000000000E+00 0. -1.
         35    2    1    2    0    0  0.00000000000E+00  0.00000000000E+00 -0.16181099249E+04  0.16412194989E+04  0.27444801771E+03 0.  0.
         25    1    3    3    0    0  0.17617553726E+02  0.57782517137E+02 -0.97620109693E+03  0.98540234379E+03  0.12000000000E+03 0.  0.
         25    1    3    3    0    0 -0.17617553726E+02 -0.57782517137E+02 -0.64190882800E+03  0.65581715512E+03  0.12000000000E+03 0.  0.
<mgrwt>
<rscale>  0 0.27444802E+03</rscale>
<asrwt>0</asrwt>
<pdfrwt beam="1">  1        2 0.25071749E+00 0.27444802E+03</pdfrwt>
<pdfrwt beam="2">  1       -2 0.17776606E-02 0.27444802E+03</pdfrwt>
<totfact> 0.10700949E+04</totfact>
</mgrwt>
</event>
<event>
 5    1  0.1107336E+001  0.2742921E+03  0.7818608E-02  0.1098848E+00
          2   -1    0    0  501    0  0.00000000000E+00  0.00000000000E+00  0.19010004126E+03  0.19010004126E+03  0.00000000000E+00 0. -1.
         -2   -1    0    0    0  501 -0.00000000000E+00 -0.00000000000E+00 -0.98942878565E+02  0.98942878565E+02  0.00000000000E+00 0. -1.
         35    2    1    2    0    0  0.00000000000E+00  0.00000000000E+00  0.91157162698E+02  0.28904291983E+03  0.27429214570E+03 0.  0.
         25    1    3    3    0    0 -0.21110346949E+02 -0.53579019968E+02  0.10745099650E+02  0.13353582027E+03  0.12000000000E+03 0.  0.
         25    1    3    3    0    0  0.21110346949E+02  0.53579019968E+02  0.80412063048E+02  0.15550709956E+03  0.12000000000E+03 0.  0.
<mgrwt>
<rscale>  0 0.27429215E+03</rscale>
<asrwt>0</asrwt>
<pdfrwt beam="1">  1        2 0.29246160E-01 0.27429215E+03</pdfrwt>
<pdfrwt beam="2">  1       -2 0.15221981E-01 0.27429215E+03</pdfrwt>
<totfact> 0.59802125E+03</totfact>
</mgrwt>
</event>
<event>
 5    1  0.1107336E+001  0.2752011E+03  0.7818608E-02  0.1098339E+00
          2   -1    0    0  501    0  0.00000000000E+00  0.00000000000E+00  0.33547269705E+02  0.33547269705E+02  0.00000000000E+00 0. -1.
         -2   -1    0    0    0  501 -0.00000000000E+00 -0.00000000000E+00 -0.56439504129E+03  0.56439504129E+03  0.00000000000E+00 0. -1.
         35    2    1    2    0    0  0.00000000000E+00  0.00000000000E+00 -0.53084777159E+03  0.59794231100E+03  0.27520110952E+03 0.  0.
         25    1    3    3    0    0 -0.61713276744E+02 -0.25024683208E+02 -0.28705874600E+03  0.31817838857E+03  0.12000000000E+03 0.  0.
         25    1    3    3    0    0  0.61713276744E+02  0.25024683208E+02 -0.24378902559E+03  0.27976392243E+03  0.12000000000E+03 0.  0.
<mgrwt>
<rscale>  0 0.27520111E+03</rscale>
<asrwt>0</asrwt>
<pdfrwt beam="1">  1        2 0.51611188E-02 0.27520111E+03</pdfrwt>
<pdfrwt beam="2">  1       -2 0.86830000E-01 0.27520111E+03</pdfrwt>
<totfact> 0.17846583E+03</totfact>
</mgrwt>
</event>
<event>
 5    1  0.1107336E+001  0.2754105E+03  0.7818608E-02  0.1098222E+00
          2   -1    0    0  501    0  0.00000000000E+00  0.00000000000E+00  0.32441919215E+02  0.32441919215E+02  0.00000000000E+00 0. -1.
         -2   -1    0    0    0  501 -0.00000000000E+00 -0.00000000000E+00 -0.58451359191E+03  0.58451359191E+03  0.00000000000E+00 0. -1.
         35    2    1    2    0    0  0.00000000000E+00  0.00000000000E+00 -0.55207167269E+03  0.61695551112E+03  0.27541054975E+03 0.  0.
         25    1    3    3    0    0  0.13587275127E+02 -0.66137090874E+02 -0.27154780142E+03  0.30446171728E+03  0.12000000000E+03 0.  0.
         25    1    3    3    0    0 -0.13587275127E+02  0.66137090874E+02 -0.28052387127E+03  0.31249379384E+03  0.12000000000E+03 0.  0.
<mgrwt>
<rscale>  0 0.27541055E+03</rscale>
<asrwt>0</asrwt>
<pdfrwt beam="1">  1        2 0.49910649E-02 0.27541055E+03</pdfrwt>
<pdfrwt beam="2">  1       -2 0.89925161E-01 0.27541055E+03</pdfrwt>
<totfact> 0.17238414E+03</totfact>
</mgrwt>
</event>
<event>
 5    1  0.1107336E+001  0.2759668E+03  0.7818608E-02  0.1097912E+00
          2   -1    0    0  501    0  0.00000000000E+00  0.00000000000E+00  0.93004976282E+03  0.93004976282E+03  0.00000000000E+00 0. -1.
         -2   -1    0    0    0  501 -0.00000000000E+00 -0.00000000000E+00 -0.20471394436E+02  0.20471394436E+02  0.00000000000E+00 0. -1.
         35    2    1    2    0    0  0.00000000000E+00  0.00000000000E+00  0.90957836838E+03  0.95052115725E+03  0.27596677727E+03 0.  0.
         25    1    3    3    0    0 -0.48663037025E+02 -0.22410755667E+02  0.30991899849E+03  0.33663053749E+03  0.12000000000E+03 0.  0.
         25    1    3    3    0    0  0.48663037025E+02  0.22410755667E+02  0.59965936989E+03  0.61389061977E+03  0.12000000000E+03 0.  0.
<mgrwt>
<rscale>  0 0.27596678E+03</rscale>
<asrwt>0</asrwt>
<pdfrwt beam="1">  1        2 0.14308455E+00 0.27596678E+03</pdfrwt>
<pdfrwt beam="2">  1       -2 0.31494460E-02 0.27596678E+03</pdfrwt>
<totfact> 0.11411934E+04</totfact>
</mgrwt>
</event>
<event>
 5    1  0.1107336E+001  0.2751782E+03  0.7818608E-02  0.1098352E+00
         -2   -1    0    0    0  501 -0.00000000000E+00  0.00000000000E+00  0.26007331366E+03  0.26007331366E+03  0.00000000000E+00 0. -1.
          2   -1    0    0  501    0  0.00000000000E+00 -0.00000000000E+00 -0.72790088939E+02  0.72790088939E+02  0.00000000000E+00 0. -1.
         35    2    1    2    0    0  0.00000000000E+00  0.00000000000E+00  0.18728322472E+03  0.33286340260E+03  0.27517819414E+03 0.  0.
         25    1    3    3    0    0  0.53077686996E+02  0.38387878469E+02  0.74906439368E+02  0.15589048954E+03  0.12000000000E+03 0.  0.
         25    1    3    3    0    0 -0.53077686996E+02 -0.38387878469E+02  0.11237678535E+03  0.17697291306E+03  0.12000000000E+03 0.  0.
<mgrwt>
<rscale>  0 0.27517819E+03</rscale>
<asrwt>0</asrwt>
<pdfrwt beam="1">  1        2 0.11198475E-01 0.27517819E+03</pdfrwt>
<pdfrwt beam="2">  1       -2 0.40011279E-01 0.27517819E+03</pdfrwt>
<totfact> 0.32989727E+03</totfact>
</mgrwt>
</event>
<event>
 5    1  0.1107336E+001  0.2747444E+03  0.7818608E-02  0.1098595E+00
         -2   -1    0    0    0  501 -0.00000000000E+00  0.00000000000E+00  0.10125554566E+02  0.10125554566E+02  0.00000000000E+00 0. -1.
          2   -1    0    0  501    0  0.00000000000E+00 -0.00000000000E+00 -0.18637123057E+04  0.18637123057E+04  0.00000000000E+00 0. -1.
         35    2    1    2    0    0  0.00000000000E+00  0.00000000000E+00 -0.18535867512E+04  0.18738378603E+04  0.27474439501E+03 0.  0.
         25    1    3    3    0    0 -0.30767014537E+02 -0.49709090014E+02 -0.70542064906E+03  0.71793864288E+03  0.12000000000E+03 0.  0.
         25    1    3    3    0    0  0.30767014537E+02  0.49709090014E+02 -0.11481661021E+04  0.11558992174E+04  0.12000000000E+03 0.  0.
<mgrwt>
<rscale>  0 0.27474440E+03</rscale>
<asrwt>0</asrwt>
<pdfrwt beam="1">  1        2 0.28672452E+00 0.27474440E+03</pdfrwt>
<pdfrwt beam="2">  1       -2 0.15577801E-02 0.27474440E+03</pdfrwt>
<totfact> 0.97802797E+03</totfact>
</mgrwt>
</event>
<event>
 5    1  0.1107336E+001  0.2801780E+03  0.7818608E-02  0.1095592E+00
         -2   -1    0    0    0  501 -0.00000000000E+00  0.00000000000E+00  0.92792791153E+01  0.92792791153E+01  0.00000000000E+00 0.  1.
          2   -1    0    0  501    0  0.00000000000E+00 -0.00000000000E+00 -0.21149197196E+04  0.21149197196E+04  0.00000000000E+00 0.  1.
         35    2    1    2    0    0  0.00000000000E+00  0.00000000000E+00 -0.21056404405E+04  0.21241989987E+04  0.28017801758E+03 0.  0.
         25    1    3    3    0    0  0.61532972219E+02 -0.31979111309E+02 -0.89819262316E+03  0.90882284221E+03  0.12000000000E+03 0.  0.
         25    1    3    3    0    0 -0.61532972219E+02  0.31979111309E+02 -0.12074478173E+04  0.12153761565E+04  0.12000000000E+03 0.  0.
<mgrwt>
<rscale>  0 0.28017802E+03</rscale>
<asrwt>0</asrwt>
<pdfrwt beam="1">  1        2 0.32537232E+00 0.28017802E+03</pdfrwt>
<pdfrwt beam="2">  1       -2 0.14275812E-02 0.28017802E+03</pdfrwt>
<totfact> 0.81966138E+03</totfact>
</mgrwt>
</event>
<event>
 5    1  0.1107336E+001  0.2752166E+03  0.7818608E-02  0.1098331E+00
          2   -1    0    0  501    0  0.00000000000E+00  0.00000000000E+00  0.35749272458E+02  0.35749272458E+02  0.00000000000E+00 0. -1.
         -2   -1    0    0    0  501 -0.00000000000E+00 -0.00000000000E+00 -0.52969033432E+03  0.52969033432E+03  0.00000000000E+00 0. -1.
         35    2    1    2    0    0  0.00000000000E+00  0.00000000000E+00 -0.49394106186E+03  0.56543960678E+03  0.27521659892E+03 0.  0.
         25    1    3    3    0    0  0.21620619156E+02  0.62806171463E+02 -0.22409435390E+03  0.26273626662E+03  0.12000000000E+03 0.  0.
         25    1    3    3    0    0 -0.21620619156E+02 -0.62806171463E+02 -0.26984670795E+03  0.30270334015E+03  0.12000000000E+03 0.  0.
<mgrwt>
<rscale>  0 0.27521660E+03</rscale>
<asrwt>0</asrwt>
<pdfrwt beam="1">  1        2 0.54998881E-02 0.27521660E+03</pdfrwt>
<pdfrwt beam="2">  1       -2 0.81490821E-01 0.27521660E+03</pdfrwt>
<totfact> 0.18908737E+03</totfact>
</mgrwt>
</event>
<event>
 5    1  0.1107336E+001  0.2759096E+03  0.7818608E-02  0.1097944E+00
          4   -1    0    0  501    0  0.00000000000E+00  0.00000000000E+00  0.10954409500E+03  0.10954409500E+03  0.00000000000E+00 0.  1.
         -4   -1    0    0    0  501 -0.00000000000E+00 -0.00000000000E+00 -0.17373397833E+03  0.17373397833E+03  0.00000000000E+00 0.  1.
         35    2    1    2    0    0  0.00000000000E+00  0.00000000000E+00 -0.64189883326E+02  0.28327807333E+03  0.27590963323E+03 0.  0.
         25    1    3    3    0    0  0.18556814295E+02 -0.58930189213E+02 -0.27949603402E+01  0.13499975689E+03  0.12000000000E+03 0.  0.
         25    1    3    3    0    0 -0.18556814295E+02  0.58930189213E+02 -0.61394922986E+02  0.14827831644E+03  0.12000000000E+03 0.  0.
<mgrwt>
<rscale>  0 0.27590963E+03</rscale>
<asrwt>0</asrwt>
<pdfrwt beam="1">  1        4 0.16852938E-01 0.27590963E+03</pdfrwt>
<pdfrwt beam="2">  1       -4 0.26728304E-01 0.27590963E+03</pdfrwt>
<totfact> 0.76114666E+02</totfact>
</mgrwt>
</event>
<event>
 5    1  0.1107336E+001  0.2746665E+03  0.7818608E-02  0.1098638E+00
         -1   -1    0    0    0  501 -0.00000000000E+00  0.00000000000E+00  0.14984328677E+03  0.14984328677E+03  0.00000000000E+00 0. -1.
          1   -1    0    0  501    0  0.00000000000E+00 -0.00000000000E+00 -0.12586766461E+03  0.12586766461E+03  0.00000000000E+00 0. -1.
         35    2    1    2    0    0  0.00000000000E+00  0.00000000000E+00  0.23975622164E+02  0.27571095138E+03  0.27466652190E+03 0.  0.
         25    1    3    3    0    0  0.13211769034E+02 -0.10655193594E+02  0.76827088191E+02  0.14349385169E+03  0.12000000000E+03 0.  0.
         25    1    3    3    0    0 -0.13211769034E+02  0.10655193594E+02 -0.52851466027E+02  0.13221709970E+03  0.12000000000E+03 0.  0.
<mgrwt>
<rscale>  0 0.27466652E+03</rscale>
<asrwt>0</asrwt>
<pdfrwt beam="1">  1        1 0.19364256E-01 0.27466652E+03</pdfrwt>
<pdfrwt beam="2">  1       -1 0.23052813E-01 0.27466652E+03</pdfrwt>
<totfact> 0.42206704E+03</totfact>
</mgrwt>
</event>
<event>
 5    1  0.1107336E+001  0.2738898E+03  0.7818608E-02  0.1099074E+00
         -2   -1    0    0    0  501 -0.00000000000E+00  0.00000000000E+00  0.22006399740E+02  0.22006399740E+02  0.00000000000E+00 0. -1.
          2   -1    0    0  501    0  0.00000000000E+00 -0.00000000000E+00 -0.85220208984E+03  0.85220208984E+03  0.00000000000E+00 0. -1.
         35    2    1    2    0    0  0.00000000000E+00  0.00000000000E+00 -0.83019569010E+03  0.87420848958E+03  0.27388975774E+03 0.  0.
         25    1    3    3    0    0 -0.19465932072E+02 -0.44866365595E+02 -0.55647760617E+03  0.57136611681E+03  0.12000000000E+03 0.  0.
         25    1    3    3    0    0  0.19465932072E+02  0.44866365595E+02 -0.27371808393E+03  0.30284237277E+03  0.12000000000E+03 0.  0.
<mgrwt>
<rscale>  0 0.27388976E+03</rscale>
<asrwt>0</asrwt>
<pdfrwt beam="1">  1        2 0.13110802E+00 0.27388976E+03</pdfrwt>
<pdfrwt beam="2">  1       -2 0.33855999E-02 0.27388976E+03</pdfrwt>
<totfact> 0.11506962E+04</totfact>
</mgrwt>
</event>
<event>
 5    1  0.1107336E+001  0.2757968E+03  0.7818608E-02  0.1098007E+00
          2   -1    0    0  501    0  0.00000000000E+00  0.00000000000E+00  0.20156773610E+04  0.20156773610E+04  0.00000000000E+00 0.  1.
         -2   -1    0    0    0  501 -0.00000000000E+00 -0.00000000000E+00 -0.94340360548E+01  0.94340360548E+01  0.00000000000E+00 0.  1.
         35    2    1    2    0    0  0.00000000000E+00  0.00000000000E+00  0.20062433250E+04  0.20251113971E+04  0.27579683028E+03 0.  0.
         25    1    3    3    0    0 -0.33680119782E+02 -0.58999974454E+02  0.99731463217E+03  0.10068027726E+04  0.12000000000E+03 0.  0.
         25    1    3    3    0    0  0.33680119782E+02  0.58999974454E+02  0.10089286928E+04  0.10183086244E+04  0.12000000000E+03 0.  0.
<mgrwt>
<rscale>  0 0.27579683E+03</rscale>
<asrwt>0</asrwt>
<pdfrwt beam="1">  1        2 0.31010387E+00 0.27579683E+03</pdfrwt>
<pdfrwt beam="2">  1       -2 0.14513918E-02 0.27579683E+03</pdfrwt>
<totfact> 0.90254589E+03</totfact>
</mgrwt>
</event>
<event>
 5    1  0.1107336E+001  0.2750220E+03  0.7818608E-02  0.1098439E+00
         -2   -1    0    0    0  501 -0.00000000000E+00  0.00000000000E+00  0.29515126454E+02  0.29515126454E+02  0.00000000000E+00 0.  1.
          2   -1    0    0  501    0  0.00000000000E+00 -0.00000000000E+00 -0.64066390536E+03  0.64066390536E+03  0.00000000000E+00 0.  1.
         35    2    1    2    0    0  0.00000000000E+00  0.00000000000E+00 -0.61114877890E+03  0.67017903181E+03  0.27502200771E+03 0.  0.
         25    1    3    3    0    0  0.58372816764E+02 -0.32697529942E+02 -0.31952227765E+03  0.34780885572E+03  0.12000000000E+03 0.  0.
         25    1    3    3    0    0 -0.58372816764E+02  0.32697529942E+02 -0.29162650125E+03  0.32237017609E+03  0.12000000000E+03 0.  0.
<mgrwt>
<rscale>  0 0.27502201E+03</rscale>
<asrwt>0</asrwt>
<pdfrwt beam="1">  1        2 0.98563670E-01 0.27502201E+03</pdfrwt>
<pdfrwt beam="2">  1       -2 0.45407890E-02 0.27502201E+03</pdfrwt>
<totfact> 0.10540071E+04</totfact>
</mgrwt>
</event>
<event>
 5    1  0.1107336E+001  0.2812358E+03  0.7818608E-02  0.1095016E+00
         -4   -1    0    0    0  501 -0.00000000000E+00  0.00000000000E+00  0.47019898723E+03  0.47019898723E+03  0.00000000000E+00 0. -1.
          4   -1    0    0  501    0  0.00000000000E+00 -0.00000000000E+00 -0.42053236667E+02  0.42053236667E+02  0.00000000000E+00 0. -1.
         35    2    1    2    0    0  0.00000000000E+00  0.00000000000E+00  0.42814575056E+03  0.51225222389E+03  0.28123576793E+03 0.  0.
         25    1    3    3    0    0 -0.43634127064E+02  0.36444524016E+02  0.12978853797E+03  0.18568038390E+03  0.12000000000E+03 0.  0.
         25    1    3    3    0    0  0.43634127064E+02 -0.36444524016E+02  0.29835721259E+03  0.32657183999E+03  0.12000000000E+03 0.  0.
<mgrwt>
<rscale>  0 0.28123577E+03</rscale>
<asrwt>0</asrwt>
<pdfrwt beam="1">  1        4 0.64697291E-02 0.28123577E+03</pdfrwt>
<pdfrwt beam="2">  1       -4 0.72338302E-01 0.28123577E+03</pdfrwt>
<totfact> 0.52299291E+02</totfact>
</mgrwt>
</event>
<event>
 5    1  0.1107336E+001  0.2752016E+03  0.7818608E-02  0.1098339E+00
         -2   -1    0    0    0  501 -0.00000000000E+00  0.00000000000E+00  0.18741806430E+02  0.18741806430E+02  0.00000000000E+00 0. -1.
          2   -1    0    0  501    0  0.00000000000E+00 -0.00000000000E+00 -0.10102537044E+04  0.10102537044E+04  0.00000000000E+00 0. -1.
         35    2    1    2    0    0  0.00000000000E+00  0.00000000000E+00 -0.99151189797E+03  0.10289955108E+04  0.27520159427E+03 0.  0.
         25    1    3    3    0    0 -0.66030496215E+02 -0.59355806313E+01 -0.53979469371E+03  0.55693228395E+03  0.12000000000E+03 0.  0.
         25    1    3    3    0    0  0.66030496215E+02  0.59355806313E+01 -0.45171720426E+03  0.47206322688E+03  0.12000000000E+03 0.  0.
<mgrwt>
<rscale>  0 0.27520159E+03</rscale>
<asrwt>0</asrwt>
<pdfrwt beam="1">  1        2 0.15542368E+00 0.27520159E+03</pdfrwt>
<pdfrwt beam="2">  1       -2 0.28833542E-02 0.27520159E+03</pdfrwt>
<totfact> 0.11601484E+04</totfact>
</mgrwt>
</event>
<event>
 5    1  0.1107336E+001  0.2750289E+03  0.7818608E-02  0.1098435E+00
         -2   -1    0    0    0  501 -0.00000000000E+00  0.00000000000E+00  0.11442071717E+02  0.11442071717E+02  0.00000000000E+00 0.  1.
          2   -1    0    0  501    0  0.00000000000E+00 -0.00000000000E+00 -0.16526917969E+04  0.16526917969E+04  0.00000000000E+00 0.  1.
         35    2    1    2    0    0  0.00000000000E+00  0.00000000000E+00 -0.16412497252E+04  0.16641338686E+04  0.27502885714E+03 0.  0.
         25    1    3    3    0    0 -0.11500542221E+02 -0.59092148664E+02 -0.64051193546E+03  0.65443080916E+03  0.12000000000E+03 0.  0.
         25    1    3    3    0    0  0.11500542221E+02  0.59092148664E+02 -0.10007377897E+04  0.10097030594E+04  0.12000000000E+03 0.  0.
<mgrwt>
<rscale>  0 0.27502886E+03</rscale>
<asrwt>0</asrwt>
<pdfrwt beam="1">  1        2 0.25426019E+00 0.27502886E+03</pdfrwt>
<pdfrwt beam="2">  1       -2 0.17603193E-02 0.27502886E+03</pdfrwt>
<totfact> 0.10556480E+04</totfact>
</mgrwt>
</event>
<event>
 5    1  0.1107336E+001  0.2783563E+03  0.7818608E-02  0.1096590E+00
          2   -1    0    0  501    0  0.00000000000E+00  0.00000000000E+00  0.43612764343E+03  0.43612764343E+03  0.00000000000E+00 0.  1.
         -2   -1    0    0    0  501 -0.00000000000E+00 -0.00000000000E+00 -0.44414878417E+02  0.44414878417E+02  0.00000000000E+00 0.  1.
         35    2    1    2    0    0  0.00000000000E+00  0.00000000000E+00  0.39171276501E+03  0.48054252185E+03  0.27835629152E+03 0.  0.
         25    1    3    3    0    0  0.51752663805E+02  0.18120558499E+02  0.11935198132E+03  0.17790893259E+03  0.12000000000E+03 0.  0.
         25    1    3    3    0    0 -0.51752663805E+02 -0.18120558499E+02  0.27236078370E+03  0.30263358926E+03  0.12000000000E+03 0.  0.
<mgrwt>
<rscale>  0 0.27835629E+03</rscale>
<asrwt>0</asrwt>
<pdfrwt beam="1">  1        2 0.67096558E-01 0.27835629E+03</pdfrwt>
<pdfrwt beam="2">  1       -2 0.68330585E-02 0.27835629E+03</pdfrwt>
<totfact> 0.87294496E+03</totfact>
</mgrwt>
</event>
<event>
 5    1  0.1107336E+001  0.2746512E+03  0.7818608E-02  0.1098647E+00
          2   -1    0    0  501    0  0.00000000000E+00  0.00000000000E+00  0.43333329688E+04  0.43333329688E+04  0.00000000000E+00 0.  1.
         -2   -1    0    0    0  501 -0.00000000000E+00 -0.00000000000E+00 -0.43519219436E+01  0.43519219436E+01  0.00000000000E+00 0.  1.
         35    2    1    2    0    0  0.00000000000E+00  0.00000000000E+00  0.43289810468E+04  0.43376848907E+04  0.27465124675E+03 0.  0.
         25    1    3    3    0    0 -0.17329237330E+02 -0.33479643191E+00  0.31828804299E+04  0.31851888870E+04  0.12000000000E+03 0.  0.
         25    1    3    3    0    0  0.17329237330E+02  0.33479643191E+00  0.11461006169E+04  0.11524960037E+04  0.12000000000E+03 0.  0.
<mgrwt>
<rscale>  0 0.27465125E+03</rscale>
<asrwt>0</asrwt>
<pdfrwt beam="1">  1        2 0.66666316E+00 0.27465125E+03</pdfrwt>
<pdfrwt beam="2">  1       -2 0.66952992E-03 0.27465125E+03</pdfrwt>
<totfact> 0.91331503E+02</totfact>
</mgrwt>
</event>
<event>
 5    1  0.1107336E+001  0.2769359E+03  0.7818608E-02  0.1097374E+00
          2   -1    0    0  501    0  0.00000000000E+00  0.00000000000E+00  0.44524817673E+04  0.44524817673E+04  0.00000000000E+00 0. -1.
         -2   -1    0    0    0  501 -0.00000000000E+00 -0.00000000000E+00 -0.43062211039E+01  0.43062211039E+01  0.00000000000E+00 0. -1.
         35    2    1    2    0    0  0.00000000000E+00  0.00000000000E+00  0.44481755462E+04  0.44567879884E+04  0.27693588392E+03 0.  0.
         25    1    3    3    0    0 -0.56126988418E+02  0.17917691140E+02  0.28048026980E+04  0.28079867267E+04  0.12000000000E+03 0.  0.
         25    1    3    3    0    0  0.56126988418E+02 -0.17917691140E+02  0.16433728482E+04  0.16488012617E+04  0.12000000000E+03 0.  0.
<mgrwt>
<rscale>  0 0.27693588E+03</rscale>
<asrwt>0</asrwt>
<pdfrwt beam="1">  1        2 0.68499351E+00 0.27693588E+03</pdfrwt>
<pdfrwt beam="2">  1       -2 0.66249912E-03 0.27693588E+03</pdfrwt>
<totfact> 0.72654247E+02</totfact>
</mgrwt>
</event>
<event>
 5    1  0.1107336E+001  0.2747276E+03  0.7818608E-02  0.1098604E+00
          2   -1    0    0  501    0  0.00000000000E+00  0.00000000000E+00  0.31586285452E+03  0.31586285452E+03  0.00000000000E+00 0.  1.
         -2   -1    0    0    0  501 -0.00000000000E+00 -0.00000000000E+00 -0.59737341398E+02  0.59737341398E+02  0.00000000000E+00 0.  1.
         35    2    1    2    0    0  0.00000000000E+00  0.00000000000E+00  0.25612551312E+03  0.37560019591E+03  0.27472755359E+03 0.  0.
         25    1    3    3    0    0 -0.56196910002E+02  0.12206555326E+00  0.78566178888E+02  0.15404788885E+03  0.12000000000E+03 0.  0.
         25    1    3    3    0    0  0.56196910002E+02 -0.12206555326E+00  0.17755933423E+03  0.22155230706E+03  0.12000000000E+03 0.  0.
<mgrwt>
<rscale>  0 0.27472755E+03</rscale>
<asrwt>0</asrwt>
<pdfrwt beam="1">  1        2 0.48594284E-01 0.27472755E+03</pdfrwt>
<pdfrwt beam="2">  1       -2 0.91903604E-02 0.27472755E+03</pdfrwt>
<totfact> 0.77903418E+03</totfact>
</mgrwt>
</event>
<event>
 5    1  0.1107336E+001  0.2746754E+03  0.7818608E-02  0.1098633E+00
         -2   -1    0    0    0  501 -0.00000000000E+00  0.00000000000E+00  0.10057910728E+02  0.10057910728E+02  0.00000000000E+00 0. -1.
          2   -1    0    0  501    0  0.00000000000E+00 -0.00000000000E+00 -0.18753046210E+04  0.18753046210E+04  0.00000000000E+00 0. -1.
         35    2    1    2    0    0  0.00000000000E+00  0.00000000000E+00 -0.18652467103E+04  0.18853625318E+04  0.27467541911E+03 0.  0.
         25    1    3    3    0    0  0.65555714131E+02  0.57385953869E+01 -0.10112339891E+04  0.10204531660E+04  0.12000000000E+03 0.  0.
         25    1    3    3    0    0 -0.65555714131E+02 -0.57385953869E+01 -0.85401272117E+03  0.86490936580E+03  0.12000000000E+03 0.  0.
<mgrwt>
<rscale>  0 0.27467542E+03</rscale>
<asrwt>0</asrwt>
<pdfrwt beam="1">  1        2 0.28850828E+00 0.27467542E+03</pdfrwt>
<pdfrwt beam="2">  1       -2 0.15473715E-02 0.27467542E+03</pdfrwt>
<totfact> 0.97392798E+03</totfact>
</mgrwt>
</event>
<event>
 5    1  0.1107336E+001  0.2748457E+03  0.7818608E-02  0.1098538E+00
          1   -1    0    0  501    0  0.00000000000E+00  0.00000000000E+00  0.40647471290E+03  0.40647471290E+03  0.00000000000E+00 0. -1.
         -1   -1    0    0    0  501 -0.00000000000E+00 -0.00000000000E+00 -0.46460542535E+02  0.46460542535E+02  0.00000000000E+00 0. -1.
         35    2    1    2    0    0  0.00000000000E+00  0.00000000000E+00  0.36001417036E+03  0.45293525544E+03  0.27484567079E+03 0.  0.
         25    1    3    3    0    0 -0.46606966359E+01 -0.19884285239E+02  0.74899539033E+02  0.14292322359E+03  0.12000000000E+03 0.  0.
         25    1    3    3    0    0  0.46606966359E+01  0.19884285239E+02  0.28511463133E+03  0.31001203185E+03  0.12000000000E+03 0.  0.
<mgrwt>
<rscale>  0 0.27484567E+03</rscale>
<asrwt>0</asrwt>
<pdfrwt beam="1">  1        1 0.62534569E-01 0.27484567E+03</pdfrwt>
<pdfrwt beam="2">  1       -1 0.71477760E-02 0.27484567E+03</pdfrwt>
<totfact> 0.60379183E+03</totfact>
</mgrwt>
</event>
<event>
 5    1  0.1107336E+001  0.2751299E+03  0.7818608E-02  0.1098379E+00
         -2   -1    0    0    0  501 -0.00000000000E+00  0.00000000000E+00  0.20657845423E+02  0.20657845423E+02  0.00000000000E+00 0.  1.
          2   -1    0    0  501    0  0.00000000000E+00 -0.00000000000E+00 -0.91607392680E+03  0.91607392680E+03  0.00000000000E+00 0.  1.
         35    2    1    2    0    0  0.00000000000E+00  0.00000000000E+00 -0.89541608138E+03  0.93673177222E+03  0.27512988624E+03 0.  0.
         25    1    3    3    0    0 -0.26142916091E+02 -0.58906843403E+02 -0.38216044900E+03  0.40570935045E+03  0.12000000000E+03 0.  0.
         25    1    3    3    0    0  0.26142916091E+02  0.58906843403E+02 -0.51325563237E+03  0.53102242177E+03  0.12000000000E+03 0.  0.
<mgrwt>
<rscale>  0 0.27512989E+03</rscale>
<asrwt>0</asrwt>
<pdfrwt beam="1">  1        2 0.14093438E+00 0.27512989E+03</pdfrwt>
<pdfrwt beam="2">  1       -2 0.31781317E-02 0.27512989E+03</pdfrwt>
<totfact> 0.11490899E+04</totfact>
</mgrwt>
</event>
<event>
 5    1  0.1107336E+001  0.2757214E+03  0.7818608E-02  0.1098049E+00
          2   -1    0    0  501    0  0.00000000000E+00  0.00000000000E+00  0.16328715106E+03  0.16328715106E+03  0.00000000000E+00 0. -1.
         -2   -1    0    0    0  501 -0.00000000000E+00 -0.00000000000E+00 -0.11639356926E+03  0.11639356926E+03  0.00000000000E+00 0. -1.
         35    2    1    2    0    0  0.00000000000E+00  0.00000000000E+00  0.46893581795E+02  0.27968072032E+03  0.27572141249E+03 0.  0.
         25    1    3    3    0    0 -0.58386874592E+02  0.33262994434E+02  0.13817294026E+02  0.13822579910E+03  0.12000000000E+03 0.  0.
         25    1    3    3    0    0  0.58386874592E+02 -0.33262994434E+02  0.33076287769E+02  0.14145492121E+03  0.12000000000E+03 0.  0.
<mgrwt>
<rscale>  0 0.27572141E+03</rscale>
<asrwt>0</asrwt>
<pdfrwt beam="1">  1        2 0.25121100E-01 0.27572141E+03</pdfrwt>
<pdfrwt beam="2">  1       -2 0.17906703E-01 0.27572141E+03</pdfrwt>
<totfact> 0.53970743E+03</totfact>
</mgrwt>
</event>
<event>
 5    1  0.1107336E+001  0.2741276E+03  0.7818608E-02  0.1098940E+00
          2   -1    0    0  501    0  0.00000000000E+00  0.00000000000E+00  0.13872113820E+04  0.13872113820E+04  0.00000000000E+00 0.  1.
         -2   -1    0    0    0  501 -0.00000000000E+00 -0.00000000000E+00 -0.13542628827E+02  0.13542628827E+02  0.00000000000E+00 0.  1.
         35    2    1    2    0    0  0.00000000000E+00  0.00000000000E+00  0.13736687532E+04  0.14007540109E+04  0.27412762613E+03 0.  0.
         25    1    3    3    0    0  0.64050465251E+02  0.16816201986E+02  0.68113945175E+03  0.69479219878E+03  0.12000000000E+03 0.  0.
         25    1    3    3    0    0 -0.64050465251E+02 -0.16816201986E+02  0.69252930145E+03  0.70596181208E+03  0.12000000000E+03 0.  0.
<mgrwt>
<rscale>  0 0.27412763E+03</rscale>
<asrwt>0</asrwt>
<pdfrwt beam="1">  1        2 0.21341702E+00 0.27412763E+03</pdfrwt>
<pdfrwt beam="2">  1       -2 0.20834825E-02 0.27412763E+03</pdfrwt>
<totfact> 0.11425026E+04</totfact>
</mgrwt>
</event>
<event>
 5    1  0.1107336E+001  0.2747748E+03  0.7818608E-02  0.1098578E+00
         -1   -1    0    0    0  501 -0.00000000000E+00  0.00000000000E+00  0.92898457340E+01  0.92898457340E+01  0.00000000000E+00 0.  1.
          1   -1    0    0  501    0  0.00000000000E+00 -0.00000000000E+00 -0.20318203733E+04  0.20318203733E+04  0.00000000000E+00 0.  1.
         35    2    1    2    0    0  0.00000000000E+00  0.00000000000E+00 -0.20225305275E+04  0.20411102190E+04  0.27477480108E+03 0.  0.
         25    1    3    3    0    0  0.22093116630E+02 -0.55235020692E+02 -0.12385621440E+04  0.12457829658E+04  0.12000000000E+03 0.  0.
         25    1    3    3    0    0 -0.22093116630E+02  0.55235020692E+02 -0.78396838348E+03  0.79532725315E+03  0.12000000000E+03 0.  0.
<mgrwt>
<rscale>  0 0.27477480E+03</rscale>
<asrwt>0</asrwt>
<pdfrwt beam="1">  1        1 0.31258770E+00 0.27477480E+03</pdfrwt>
<pdfrwt beam="2">  1       -1 0.14292072E-02 0.27477480E+03</pdfrwt>
<totfact> 0.36024954E+03</totfact>
</mgrwt>
</event>
<event>
 5    1  0.1107336E+001  0.2751771E+03  0.7818608E-02  0.1098353E+00
          1   -1    0    0  501    0  0.00000000000E+00  0.00000000000E+00  0.32014515486E+03  0.32014515486E+03  0.00000000000E+00 0. -1.
         -1   -1    0    0    0  501 -0.00000000000E+00 -0.00000000000E+00 -0.59131338931E+02  0.59131338931E+02  0.00000000000E+00 0. -1.
         35    2    1    2    0    0  0.00000000000E+00  0.00000000000E+00  0.26101381593E+03  0.37927649379E+03  0.27517711866E+03 0.  0.
         25    1    3    3    0    0 -0.35070010351E+02 -0.30087367774E+02  0.19796557228E+03  0.23606254072E+03  0.12000000000E+03 0.  0.
         25    1    3    3    0    0  0.35070010351E+02  0.30087367774E+02  0.63048243650E+02  0.14321395307E+03  0.12000000000E+03 0.  0.
<mgrwt>
<rscale>  0 0.27517712E+03</rscale>
<asrwt>0</asrwt>
<pdfrwt beam="1">  1        1 0.49253100E-01 0.27517712E+03</pdfrwt>
<pdfrwt beam="2">  1       -1 0.90971293E-02 0.27517712E+03</pdfrwt>
<totfact> 0.56584633E+03</totfact>
</mgrwt>
</event>
<event>
 5    1  0.1107336E+001  0.2875604E+03  0.7818608E-02  0.1091630E+00
         -1   -1    0    0    0  501 -0.00000000000E+00  0.00000000000E+00  0.12782074809E+02  0.12782074809E+02  0.00000000000E+00 0.  1.
          1   -1    0    0  501    0  0.00000000000E+00 -0.00000000000E+00 -0.16173233770E+04  0.16173233770E+04  0.00000000000E+00 0.  1.
         35    2    1    2    0    0  0.00000000000E+00  0.00000000000E+00 -0.16045413022E+04  0.16301054519E+04  0.28756041727E+03 0.  0.
         25    1    3    3    0    0 -0.48499828681E+02 -0.37654470310E+02 -0.10858582029E+04  0.10941929123E+04  0.12000000000E+03 0.  0.
         25    1    3    3    0    0  0.48499828681E+02  0.37654470310E+02 -0.51868309930E+03  0.53591253952E+03  0.12000000000E+03 0.  0.
<mgrwt>
<rscale>  0 0.28756042E+03</rscale>
<asrwt>0</asrwt>
<pdfrwt beam="1">  1        1 0.24881880E+00 0.28756042E+03</pdfrwt>
<pdfrwt beam="2">  1       -1 0.19664745E-02 0.28756042E+03</pdfrwt>
<totfact> 0.42101454E+03</totfact>
</mgrwt>
</event>
<event>
 5    1  0.1107336E+001  0.2768214E+03  0.7818608E-02  0.1097438E+00
         -2   -1    0    0    0  501 -0.00000000000E+00  0.00000000000E+00  0.11126693226E+03  0.11126693226E+03  0.00000000000E+00 0. -1.
          2   -1    0    0  501    0  0.00000000000E+00 -0.00000000000E+00 -0.17217619863E+03  0.17217619863E+03  0.00000000000E+00 0. -1.
         35    2    1    2    0    0  0.00000000000E+00  0.00000000000E+00 -0.60909266371E+02  0.28344313090E+03  0.27682136790E+03 0.  0.
         25    1    3    3    0    0 -0.66493241177E+02 -0.10841101451E+02 -0.15314559627E+02  0.13846810586E+03  0.12000000000E+03 0.  0.
         25    1    3    3    0    0  0.66493241177E+02  0.10841101451E+02 -0.45594706744E+02  0.14497502504E+03  0.12000000000E+03 0.  0.
<mgrwt>
<rscale>  0 0.27682137E+03</rscale>
<asrwt>0</asrwt>
<pdfrwt beam="1">  1        2 0.26488646E-01 0.27682137E+03</pdfrwt>
<pdfrwt beam="2">  1       -2 0.17117990E-01 0.27682137E+03</pdfrwt>
<totfact> 0.54886768E+03</totfact>
</mgrwt>
</event>
<event>
 5    1  0.1107336E+001  0.2734078E+03  0.7818608E-02  0.1099345E+00
          2   -1    0    0  501    0  0.00000000000E+00  0.00000000000E+00  0.88393687710E+02  0.88393687710E+02  0.00000000000E+00 0.  1.
         -2   -1    0    0    0  501 -0.00000000000E+00 -0.00000000000E+00 -0.21141737233E+03  0.21141737233E+03  0.00000000000E+00 0.  1.
         35    2    1    2    0    0  0.00000000000E+00  0.00000000000E+00 -0.12302368462E+03  0.29981106004E+03  0.27340783593E+03 0.  0.
         25    1    3    3    0    0  0.51127694229E+02  0.40913566958E+02 -0.61500432520E+02  0.14990084816E+03  0.12000000000E+03 0.  0.
         25    1    3    3    0    0 -0.51127694229E+02 -0.40913566958E+02 -0.61523252105E+02  0.14991021189E+03  0.12000000000E+03 0.  0.
<mgrwt>
<rscale>  0 0.27340784E+03</rscale>
<asrwt>0</asrwt>
<pdfrwt beam="1">  1        2 0.13599029E-01 0.27340784E+03</pdfrwt>
<pdfrwt beam="2">  1       -2 0.32525749E-01 0.27340784E+03</pdfrwt>
<totfact> 0.38422146E+03</totfact>
</mgrwt>
</event>
<event>
 5    1  0.1107336E+001  0.2767535E+03  0.7818608E-02  0.1097475E+00
         -1   -1    0    0    0  501 -0.00000000000E+00  0.00000000000E+00  0.47863498129E+01  0.47863498129E+01  0.00000000000E+00 0.  1.
          1   -1    0    0  501    0  0.00000000000E+00 -0.00000000000E+00 -0.40005688328E+04  0.40005688328E+04  0.00000000000E+00 0.  1.
         35    2    1    2    0    0  0.00000000000E+00  0.00000000000E+00 -0.39957824830E+04  0.40053551827E+04  0.27675347792E+03 0.  0.
         25    1    3    3    0    0 -0.65339799883E+02  0.24152272853E+01 -0.16831322756E+04  0.16886708915E+04  0.12000000000E+03 0.  0.
         25    1    3    3    0    0  0.65339799883E+02 -0.24152272853E+01 -0.23126502075E+04  0.23166842911E+04  0.12000000000E+03 0.  0.
<mgrwt>
<rscale>  0 0.27675348E+03</rscale>
<asrwt>0</asrwt>
<pdfrwt beam="1">  1        1 0.61547253E+00 0.27675348E+03</pdfrwt>
<pdfrwt beam="2">  1       -1 0.73636103E-03 0.27675348E+03</pdfrwt>
<totfact> 0.36659705E+02</totfact>
</mgrwt>
</event>
<event>
 5    1  0.1107336E+001  0.2764232E+03  0.7818608E-02  0.1097659E+00
         -2   -1    0    0    0  501 -0.00000000000E+00  0.00000000000E+00  0.55959662359E+02  0.55959662359E+02  0.00000000000E+00 0.  1.
          2   -1    0    0  501    0  0.00000000000E+00 -0.00000000000E+00 -0.34136109238E+03  0.34136109238E+03  0.00000000000E+00 0.  1.
         35    2    1    2    0    0  0.00000000000E+00  0.00000000000E+00 -0.28540143002E+03  0.39732075474E+03  0.27642323688E+03 0.  0.
         25    1    3    3    0    0  0.12531733238E+02 -0.45698889210E+02 -0.21394842843E+03  0.24983867363E+03  0.12000000000E+03 0.  0.
         25    1    3    3    0    0 -0.12531733238E+02  0.45698889210E+02 -0.71453001595E+02  0.14748208111E+03  0.12000000000E+03 0.  0.
<mgrwt>
<rscale>  0 0.27642324E+03</rscale>
<asrwt>0</asrwt>
<pdfrwt beam="1">  1        2 0.52517092E-01 0.27642324E+03</pdfrwt>
<pdfrwt beam="2">  1       -2 0.86091787E-02 0.27642324E+03</pdfrwt>
<totfact> 0.79436564E+03</totfact>
</mgrwt>
</event>
<event>
 5    1  0.1107336E+001  0.2750128E+03  0.7818608E-02  0.1098444E+00
          1   -1    0    0  501    0  0.00000000000E+00  0.00000000000E+00  0.13875468694E+02  0.13875468694E+02  0.00000000000E+00 0. -1.
         -1   -1    0    0    0  501 -0.00000000000E+00 -0.00000000000E+00 -0.13626934959E+04  0.13626934959E+04  0.00000000000E+00 0. -1.
         35    2    1    2    0    0  0.00000000000E+00  0.00000000000E+00 -0.13488180272E+04  0.13765689646E+04  0.27501280655E+03 0.  0.
         25    1    3    3    0    0  0.22945372362E+02  0.63093918858E+02 -0.67853126242E+03  0.69232362865E+03  0.12000000000E+03 0.  0.
         25    1    3    3    0    0 -0.22945372362E+02 -0.63093918858E+02 -0.67028676482E+03  0.68424533597E+03  0.12000000000E+03 0.  0.
<mgrwt>
<rscale>  0 0.27501281E+03</rscale>
<asrwt>0</asrwt>
<pdfrwt beam="1">  1        1 0.21346870E-02 0.27501281E+03</pdfrwt>
<pdfrwt beam="2">  1       -1 0.20964520E+00 0.27501281E+03</pdfrwt>
<totfact> 0.79478388E+02</totfact>
</mgrwt>
</event>
<event>
 5    1  0.1107336E+001  0.2752984E+03  0.7818608E-02  0.1098285E+00
          1   -1    0    0  501    0  0.00000000000E+00  0.00000000000E+00  0.96394288032E+02  0.96394288032E+02  0.00000000000E+00 0.  1.
         -1   -1    0    0    0  501 -0.00000000000E+00 -0.00000000000E+00 -0.19656044035E+03  0.19656044035E+03  0.00000000000E+00 0.  1.
         35    2    1    2    0    0  0.00000000000E+00  0.00000000000E+00 -0.10016615231E+03  0.29295472838E+03  0.27529841048E+03 0.  0.
         25    1    3    3    0    0 -0.11520704419E+02 -0.42044404717E+02 -0.10483017015E+03  0.16519631707E+03  0.12000000000E+03 0.  0.
         25    1    3    3    0    0  0.11520704419E+02  0.42044404717E+02  0.46640178396E+01  0.12775841131E+03  0.12000000000E+03 0.  0.
<mgrwt>
<rscale>  0 0.27529841E+03</rscale>
<asrwt>0</asrwt>
<pdfrwt beam="1">  1        1 0.14829890E-01 0.27529841E+03</pdfrwt>
<pdfrwt beam="2">  1       -1 0.30240068E-01 0.27529841E+03</pdfrwt>
<totfact> 0.37924318E+03</totfact>
</mgrwt>
</event>
<event>
 4    1  0.1107336E+001  0.2480326E+03  0.7818608E-02  0.1114555E+00
         -2   -1    0    0    0  501 -0.00000000000E+00  0.00000000000E+00  0.54032922962E+02  0.54032922962E+02  0.00000000000E+00 0. -1.
          2   -1    0    0  501    0  0.00000000000E+00 -0.00000000000E+00 -0.28464196392E+03  0.28464196392E+03  0.00000000000E+00 0. -1.
         25    1    1    2    0    0 -0.26226617340E+02 -0.16915677413E+02 -0.11194272070E+03  0.16704834126E+03  0.12000000000E+03 0.  0.
         25    1    1    2    0    0  0.26226617340E+02  0.16915677413E+02 -0.11866632026E+03  0.17162654562E+03  0.12000000000E+03 0.  0.
<mgrwt>
<rscale>  0 0.24803256E+03</rscale>
<asrwt>0</asrwt>
<pdfrwt beam="1">  1        2 0.43791072E-01 0.24803256E+03</pdfrwt>
<pdfrwt beam="2">  1       -2 0.83127573E-02 0.24803256E+03</pdfrwt>
<totfact> 0.10155211E+04</totfact>
</mgrwt>
</event>
<event>
 5    1  0.1107336E+001  0.2713062E+03  0.7818608E-02  0.1100534E+00
         -2   -1    0    0    0  501 -0.00000000000E+00  0.00000000000E+00  0.15321473958E+02  0.15321473958E+02  0.00000000000E+00 0. -1.
          2   -1    0    0  501    0  0.00000000000E+00 -0.00000000000E+00 -0.12010436602E+04  0.12010436602E+04  0.00000000000E+00 0. -1.
         35    2    1    2    0    0  0.00000000000E+00  0.00000000000E+00 -0.11857221863E+04  0.12163651342E+04  0.27130616773E+03 0.  0.
         25    1    3    3    0    0  0.74257781611E+01 -0.57678887502E+02 -0.70447468640E+03  0.71698436526E+03  0.12000000000E+03 0.  0.
         25    1    3    3    0    0 -0.74257781611E+01  0.57678887502E+02 -0.48124749986E+03  0.49938076892E+03  0.12000000000E+03 0.  0.
<mgrwt>
<rscale>  0 0.27130617E+03</rscale>
<asrwt>0</asrwt>
<pdfrwt beam="1">  1        2 0.18477599E+00 0.27130617E+03</pdfrwt>
<pdfrwt beam="2">  1       -2 0.23571493E-02 0.27130617E+03</pdfrwt>
<totfact> 0.12078124E+04</totfact>
</mgrwt>
</event>
<event>
 5    1  0.1107336E+001  0.2756925E+03  0.7818608E-02  0.1098065E+00
         -2   -1    0    0    0  501 -0.00000000000E+00  0.00000000000E+00  0.53026900405E+02  0.53026900405E+02  0.00000000000E+00 0.  1.
          2   -1    0    0  501    0  0.00000000000E+00 -0.00000000000E+00 -0.35833864386E+03  0.35833864386E+03  0.00000000000E+00 0.  1.
         35    2    1    2    0    0  0.00000000000E+00  0.00000000000E+00 -0.30531174346E+03  0.41136554427E+03  0.27569249231E+03 0.  0.
         25    1    3    3    0    0 -0.41235695329E+02 -0.53825773882E+02 -0.15563677568E+03  0.20789517177E+03  0.12000000000E+03 0.  0.
         25    1    3    3    0    0  0.41235695329E+02  0.53825773882E+02 -0.14967496778E+03  0.20347037249E+03  0.12000000000E+03 0.  0.
<mgrwt>
<rscale>  0 0.27569249E+03</rscale>
<asrwt>0</asrwt>
<pdfrwt beam="1">  1        2 0.55129020E-01 0.27569249E+03</pdfrwt>
<pdfrwt beam="2">  1       -2 0.81579850E-02 0.27569249E+03</pdfrwt>
<totfact> 0.82010201E+03</totfact>
</mgrwt>
</event>
<event>
 5    1  0.1107336E+001  0.2733318E+03  0.7818608E-02  0.1099388E+00
          2   -1    0    0  501    0  0.00000000000E+00  0.00000000000E+00  0.46004216220E+03  0.46004216220E+03  0.00000000000E+00 0. -1.
         -2   -1    0    0    0  501 -0.00000000000E+00 -0.00000000000E+00 -0.40599680858E+02  0.40599680858E+02  0.00000000000E+00 0. -1.
         35    2    1    2    0    0  0.00000000000E+00  0.00000000000E+00  0.41944248134E+03  0.50064184306E+03  0.27333177617E+03 0.  0.
         25    1    3    3    0    0  0.62814587179E+02  0.99221975203E+01  0.18173612687E+03  0.22687472794E+03  0.12000000000E+03 0.  0.
         25    1    3    3    0    0 -0.62814587179E+02 -0.99221975203E+01  0.23770635447E+03  0.27376711512E+03  0.12000000000E+03 0.  0.
<mgrwt>
<rscale>  0 0.27333178E+03</rscale>
<asrwt>0</asrwt>
<pdfrwt beam="1">  1        2 0.70775714E-01 0.27333178E+03</pdfrwt>
<pdfrwt beam="2">  1       -2 0.62461051E-02 0.27333178E+03</pdfrwt>
<totfact> 0.94475823E+03</totfact>
</mgrwt>
</event>
<event>
 5    1  0.1107336E+001  0.2759732E+03  0.7818608E-02  0.1097909E+00
          2   -1    0    0  501    0  0.00000000000E+00  0.00000000000E+00  0.29681764676E+04  0.29681764676E+04  0.00000000000E+00 0.  1.
         -2   -1    0    0    0  501 -0.00000000000E+00 -0.00000000000E+00 -0.64148161260E+01  0.64148161260E+01  0.00000000000E+00 0.  1.
         35    2    1    2    0    0  0.00000000000E+00  0.00000000000E+00  0.29617616514E+04  0.29745912837E+04  0.27597323253E+03 0.  0.
         25    1    3    3    0    0 -0.22562967410E+01  0.58496792718E+01  0.22119968434E+04  0.22152583021E+04  0.12000000000E+03 0.  0.
         25    1    3    3    0    0  0.22562967410E+01 -0.58496792718E+01  0.74976480802E+03  0.75933298161E+03  0.12000000000E+03 0.  0.
<mgrwt>
<rscale>  0 0.27597323E+03</rscale>
<asrwt>0</asrwt>
<pdfrwt beam="1">  1        2 0.45664144E+00 0.27597323E+03</pdfrwt>
<pdfrwt beam="2">  1       -2 0.98689716E-03 0.27597323E+03</pdfrwt>
<totfact> 0.47286331E+03</totfact>
</mgrwt>
</event>
<event>
 5    1  0.1107336E+001  0.2751518E+03  0.7818608E-02  0.1098367E+00
         -1   -1    0    0    0  501 -0.00000000000E+00  0.00000000000E+00  0.17734806875E+03  0.17734806875E+03  0.00000000000E+00 0. -1.
          1   -1    0    0  501    0  0.00000000000E+00 -0.00000000000E+00 -0.10672306966E+03  0.10672306966E+03  0.00000000000E+00 0. -1.
         35    2    1    2    0    0  0.00000000000E+00  0.00000000000E+00  0.70624999087E+02  0.28407113841E+03  0.27515181479E+03 0.  0.
         25    1    3    3    0    0  0.18086361986E+00  0.26135774196E+02 -0.28697450284E+02  0.12612158839E+03  0.12000000000E+03 0.  0.
         25    1    3    3    0    0 -0.18086361986E+00 -0.26135774196E+02  0.99322449371E+02  0.15794955003E+03  0.12000000000E+03 0.  0.
<mgrwt>
<rscale>  0 0.27515181E+03</rscale>
<asrwt>0</asrwt>
<pdfrwt beam="1">  1        1 0.16418934E-01 0.27515181E+03</pdfrwt>
<pdfrwt beam="2">  1       -1 0.27284318E-01 0.27515181E+03</pdfrwt>
<totfact> 0.39502103E+03</totfact>
</mgrwt>
</event>
<event>
 5    1  0.1107336E+001  0.2757623E+03  0.7818608E-02  0.1098026E+00
          2   -1    0    0  501    0  0.00000000000E+00  0.00000000000E+00  0.92592100096E+03  0.92592100096E+03  0.00000000000E+00 0.  1.
         -2   -1    0    0    0  501 -0.00000000000E+00 -0.00000000000E+00 -0.20532210603E+02  0.20532210603E+02  0.00000000000E+00 0.  1.
         35    2    1    2    0    0  0.00000000000E+00  0.00000000000E+00  0.90538879035E+03  0.94645321156E+03  0.27576225263E+03 0.  0.
         25    1    3    3    0    0  0.82896639734E+01  0.61142084170E+02  0.55002020047E+03  0.56632966893E+03  0.12000000000E+03 0.  0.
         25    1    3    3    0    0 -0.82896639734E+01 -0.61142084170E+02  0.35536858988E+03  0.38012354263E+03  0.12000000000E+03 0.  0.
<mgrwt>
<rscale>  0 0.27576225E+03</rscale>
<asrwt>0</asrwt>
<pdfrwt beam="1">  1        2 0.14244935E+00 0.27576225E+03</pdfrwt>
<pdfrwt beam="2">  1       -2 0.31588023E-02 0.27576225E+03</pdfrwt>
<totfact> 0.11430172E+04</totfact>
</mgrwt>
</event>
<event>
 5    1  0.1107336E+001  0.2747355E+03  0.7818608E-02  0.1098600E+00
          4   -1    0    0  501    0  0.00000000000E+00  0.00000000000E+00  0.16425793415E+03  0.16425793415E+03  0.00000000000E+00 0. -1.
         -4   -1    0    0    0  501 -0.00000000000E+00 -0.00000000000E+00 -0.11487966323E+03  0.11487966323E+03  0.00000000000E+00 0. -1.
         35    2    1    2    0    0  0.00000000000E+00  0.00000000000E+00  0.49378270928E+02  0.27913759738E+03  0.27473548120E+03 0.  0.
         25    1    3    3    0    0  0.62649654772E+02  0.23338542411E+02  0.24202553904E+02  0.13948272445E+03  0.12000000000E+03 0.  0.
         25    1    3    3    0    0 -0.62649654772E+02 -0.23338542411E+02  0.25175717024E+02  0.13965487293E+03  0.12000000000E+03 0.  0.
<mgrwt>
<rscale>  0 0.27473548E+03</rscale>
<asrwt>0</asrwt>
<pdfrwt beam="1">  1        4 0.25270452E-01 0.27473548E+03</pdfrwt>
<pdfrwt beam="2">  1       -4 0.17673794E-01 0.27473548E+03</pdfrwt>
<totfact> 0.77608739E+02</totfact>
</mgrwt>
</event>
<event>
 5    1  0.1107336E+001  0.2747811E+03  0.7818608E-02  0.1098574E+00
         -1   -1    0    0    0  501 -0.00000000000E+00  0.00000000000E+00  0.20060760155E+02  0.20060760155E+02  0.00000000000E+00 0. -1.
          1   -1    0    0  501    0  0.00000000000E+00 -0.00000000000E+00 -0.94094939190E+03  0.94094939190E+03  0.00000000000E+00 0. -1.
         35    2    1    2    0    0  0.00000000000E+00  0.00000000000E+00 -0.92088863174E+03  0.96101015205E+03  0.27478107700E+03 0.  0.
         25    1    3    3    0    0  0.33598150985E+02 -0.78842613453E+01 -0.25998806728E+03  0.28841773950E+03  0.12000000000E+03 0.  0.
         25    1    3    3    0    0 -0.33598150985E+02  0.78842613453E+01 -0.66090056446E+03  0.67259241255E+03  0.12000000000E+03 0.  0.
<mgrwt>
<rscale>  0 0.27478108E+03</rscale>
<asrwt>0</asrwt>
<pdfrwt beam="1">  1        1 0.14476146E+00 0.27478108E+03</pdfrwt>
<pdfrwt beam="2">  1       -1 0.30862704E-02 0.27478108E+03</pdfrwt>
<totfact> 0.64096613E+03</totfact>
</mgrwt>
</event>
<event>
 5    1  0.1107336E+001  0.2748335E+03  0.7818608E-02  0.1098545E+00
         -2   -1    0    0    0  501 -0.00000000000E+00  0.00000000000E+00  0.26827124463E+03  0.26827124463E+03  0.00000000000E+00 0. -1.
          2   -1    0    0  501    0  0.00000000000E+00 -0.00000000000E+00 -0.70389055941E+02  0.70389055941E+02  0.00000000000E+00 0. -1.
         35    2    1    2    0    0  0.00000000000E+00  0.00000000000E+00  0.19788218869E+03  0.33866030058E+03  0.27483347428E+03 0.  0.
         25    1    3    3    0    0  0.27686325687E+02 -0.40975530098E+02  0.15456723780E+03  0.20183299457E+03  0.12000000000E+03 0.  0.
         25    1    3    3    0    0 -0.27686325687E+02  0.40975530098E+02  0.43314950890E+02  0.13682730600E+03  0.12000000000E+03 0.  0.
<mgrwt>
<rscale>  0 0.27483347E+03</rscale>
<asrwt>0</asrwt>
<pdfrwt beam="1">  1        2 0.10829086E-01 0.27483347E+03</pdfrwt>
<pdfrwt beam="2">  1       -2 0.41272499E-01 0.27483347E+03</pdfrwt>
<totfact> 0.32392698E+03</totfact>
</mgrwt>
</event>
<event>
 5    1  0.1107336E+001  0.2782678E+03  0.7818608E-02  0.1096639E+00
          1   -1    0    0  501    0  0.00000000000E+00  0.00000000000E+00  0.12700243230E+03  0.12700243230E+03  0.00000000000E+00 0.  1.
         -1   -1    0    0    0  501 -0.00000000000E+00 -0.00000000000E+00 -0.15242416398E+03  0.15242416398E+03  0.00000000000E+00 0.  1.
         35    2    1    2    0    0  0.00000000000E+00  0.00000000000E+00 -0.25421731681E+02  0.27942659628E+03  0.27826778158E+03 0.  0.
         25    1    3    3    0    0  0.20503276238E+02  0.62060303920E+02 -0.39018706181E+02  0.14210673837E+03  0.12000000000E+03 0.  0.
         25    1    3    3    0    0 -0.20503276238E+02 -0.62060303920E+02  0.13596974500E+02  0.13731985790E+03  0.12000000000E+03 0.  0.
<mgrwt>
<rscale>  0 0.27826778E+03</rscale>
<asrwt>0</asrwt>
<pdfrwt beam="1">  1        1 0.19538836E-01 0.27826778E+03</pdfrwt>
<pdfrwt beam="2">  1       -1 0.23449871E-01 0.27826778E+03</pdfrwt>
<totfact> 0.40576856E+03</totfact>
</mgrwt>
</event>
<event>
 5    1  0.1107336E+001  0.2758558E+03  0.7818608E-02  0.1097974E+00
         -2   -1    0    0    0  501 -0.00000000000E+00  0.00000000000E+00  0.11763888419E+03  0.11763888419E+03  0.00000000000E+00 0.  1.
          2   -1    0    0  501    0  0.00000000000E+00 -0.00000000000E+00 -0.16171611104E+03  0.16171611104E+03  0.00000000000E+00 0.  1.
         35    2    1    2    0    0  0.00000000000E+00  0.00000000000E+00 -0.44077226847E+02  0.27935499523E+03  0.27585578014E+03 0.  0.
         25    1    3    3    0    0 -0.11956570742E+02  0.58483315448E+02  0.10945159982E+02  0.13447324751E+03  0.12000000000E+03 0.  0.
         25    1    3    3    0    0  0.11956570742E+02 -0.58483315448E+02 -0.55022386829E+02  0.14488174772E+03  0.12000000000E+03 0.  0.
<mgrwt>
<rscale>  0 0.27585578E+03</rscale>
<asrwt>0</asrwt>
<pdfrwt beam="1">  1        2 0.24879402E-01 0.27585578E+03</pdfrwt>
<pdfrwt beam="2">  1       -2 0.18098290E-01 0.27585578E+03</pdfrwt>
<totfact> 0.53587103E+03</totfact>
</mgrwt>
</event>
<event>
 5    1  0.1107336E+001  0.2743738E+03  0.7818608E-02  0.1098802E+00
          1   -1    0    0  501    0  0.00000000000E+00  0.00000000000E+00  0.11458811517E+04  0.11458811517E+04  0.00000000000E+00 0.  1.
         -1   -1    0    0    0  501 -0.00000000000E+00 -0.00000000000E+00 -0.16424260461E+02  0.16424260461E+02  0.00000000000E+00 0.  1.
         35    2    1    2    0    0  0.00000000000E+00  0.00000000000E+00  0.11294568912E+04  0.11623054122E+04  0.27437383616E+03 0.  0.
         25    1    3    3    0    0 -0.24883509195E+02 -0.43367120435E+02  0.37908986083E+03  0.40076055039E+03  0.12000000000E+03 0.  0.
         25    1    3    3    0    0  0.24883509195E+02  0.43367120435E+02  0.75036703040E+03  0.76154486177E+03  0.12000000000E+03 0.  0.
<mgrwt>
<rscale>  0 0.27437384E+03</rscale>
<asrwt>0</asrwt>
<pdfrwt beam="1">  1        1 0.17628934E+00 0.27437384E+03</pdfrwt>
<pdfrwt beam="2">  1       -1 0.25268102E-02 0.27437384E+03</pdfrwt>
<totfact> 0.60776466E+03</totfact>
</mgrwt>
</event>
<event>
 5    1  0.1107336E+001  0.2723025E+03  0.7818608E-02  0.1099969E+00
         -2   -1    0    0    0  501 -0.00000000000E+00  0.00000000000E+00  0.14906097508E+02  0.14906097508E+02  0.00000000000E+00 0. -1.
          2   -1    0    0  501    0  0.00000000000E+00 -0.00000000000E+00 -0.12435960084E+04  0.12435960084E+04  0.00000000000E+00 0. -1.
         35    2    1    2    0    0  0.00000000000E+00  0.00000000000E+00 -0.12286899109E+04  0.12585021059E+04  0.27230250357E+03 0.  0.
         25    1    3    3    0    0 -0.26865020375E+01  0.63766098371E+02 -0.57742022400E+03  0.59320101793E+03  0.12000000000E+03 0.  0.
         25    1    3    3    0    0  0.26865020375E+01 -0.63766098371E+02 -0.65126968692E+03  0.66530108800E+03  0.12000000000E+03 0.  0.
<mgrwt>
<rscale>  0 0.27230250E+03</rscale>
<asrwt>0</asrwt>
<pdfrwt beam="1">  1        2 0.19132249E+00 0.27230250E+03</pdfrwt>
<pdfrwt beam="2">  1       -2 0.22932454E-02 0.27230250E+03</pdfrwt>
<totfact> 0.11902816E+04</totfact>
</mgrwt>
</event>
<event>
 5    1  0.1107336E+001  0.2757554E+03  0.7818608E-02  0.1098030E+00
         -2   -1    0    0    0  501 -0.00000000000E+00  0.00000000000E+00  0.10986717412E+04  0.10986717412E+04  0.00000000000E+00 0.  1.
          2   -1    0    0  501    0  0.00000000000E+00 -0.00000000000E+00 -0.17302953970E+02  0.17302953970E+02  0.00000000000E+00 0.  1.
         35    2    1    2    0    0  0.00000000000E+00  0.00000000000E+00  0.10813687872E+04  0.11159746951E+04  0.27575544647E+03 0.  0.
         25    1    3    3    0    0 -0.19958999371E+02  0.56727893628E+02  0.41310195875E+03  0.43436119059E+03  0.12000000000E+03 0.  0.
         25    1    3    3    0    0  0.19958999371E+02 -0.56727893628E+02  0.66826682845E+03  0.68161350454E+03  0.12000000000E+03 0.  0.
<mgrwt>
<rscale>  0 0.27575545E+03</rscale>
<asrwt>0</asrwt>
<pdfrwt beam="1">  1        2 0.26619938E-02 0.27575545E+03</pdfrwt>
<pdfrwt beam="2">  1       -2 0.16902637E+00 0.27575545E+03</pdfrwt>
<totfact> 0.85344443E+02</totfact>
</mgrwt>
</event>
<event>
 5    1  0.1107336E+001  0.2746526E+03  0.7818608E-02  0.1098646E+00
          2   -1    0    0  501    0  0.00000000000E+00  0.00000000000E+00  0.25051169346E+03  0.25051169346E+03  0.00000000000E+00 0.  1.
         -2   -1    0    0    0  501 -0.00000000000E+00 -0.00000000000E+00 -0.75279976321E+02  0.75279976321E+02  0.00000000000E+00 0.  1.
         35    2    1    2    0    0  0.00000000000E+00  0.00000000000E+00  0.17523171714E+03  0.32579166978E+03  0.27465261223E+03 0.  0.
         25    1    3    3    0    0 -0.86387383151E+01  0.63024516538E+02  0.63544657491E+02  0.14994879453E+03  0.12000000000E+03 0.  0.
         25    1    3    3    0    0  0.86387383151E+01 -0.63024516538E+02  0.11168705965E+03  0.17584287525E+03  0.12000000000E+03 0.  0.
<mgrwt>
<rscale>  0 0.27465261E+03</rscale>
<asrwt>0</asrwt>
<pdfrwt beam="1">  1        2 0.38540260E-01 0.27465261E+03</pdfrwt>
<pdfrwt beam="2">  1       -2 0.11581535E-01 0.27465261E+03</pdfrwt>
<totfact> 0.69160625E+03</totfact>
</mgrwt>
</event>
<event>
 5    1  0.1107336E+001  0.2750404E+03  0.7818608E-02  0.1098429E+00
          2   -1    0    0  501    0  0.00000000000E+00  0.00000000000E+00  0.24129786634E+04  0.24129786634E+04  0.00000000000E+00 0. -1.
         -2   -1    0    0    0  501 -0.00000000000E+00 -0.00000000000E+00 -0.78375369003E+01  0.78375369003E+01  0.00000000000E+00 0. -1.
         35    2    1    2    0    0  0.00000000000E+00  0.00000000000E+00  0.24051411265E+04  0.24208162003E+04  0.27504042840E+03 0.  0.
         25    1    3    3    0    0 -0.29793124127E+02 -0.58861702875E+02  0.13137225008E+04  0.13208403157E+04  0.12000000000E+03 0.  0.
         25    1    3    3    0    0  0.29793124127E+02  0.58861702875E+02  0.10914186257E+04  0.10999758846E+04  0.12000000000E+03 0.  0.
<mgrwt>
<rscale>  0 0.27504043E+03</rscale>
<asrwt>0</asrwt>
<pdfrwt beam="1">  1        2 0.37122689E+00 0.27504043E+03</pdfrwt>
<pdfrwt beam="2">  1       -2 0.12057768E-02 0.27504043E+03</pdfrwt>
<totfact> 0.72633761E+03</totfact>
</mgrwt>
</event>
<event>
 5    1  0.1107336E+001  0.2749842E+03  0.7818608E-02  0.1098460E+00
         -1   -1    0    0    0  501 -0.00000000000E+00  0.00000000000E+00  0.22872937856E+02  0.22872937856E+02  0.00000000000E+00 0. -1.
          1   -1    0    0  501    0  0.00000000000E+00 -0.00000000000E+00 -0.82648218921E+03  0.82648218921E+03  0.00000000000E+00 0. -1.
         35    2    1    2    0    0  0.00000000000E+00  0.00000000000E+00 -0.80360925136E+03  0.84935512707E+03  0.27498418684E+03 0.  0.
         25    1    3    3    0    0  0.41294999030E+02  0.44135050020E+02 -0.49190360609E+03  0.50992385438E+03  0.12000000000E+03 0.  0.
         25    1    3    3    0    0 -0.41294999030E+02 -0.44135050020E+02 -0.31170564527E+03  0.33943127268E+03  0.12000000000E+03 0.  0.
<mgrwt>
<rscale>  0 0.27498419E+03</rscale>
<asrwt>0</asrwt>
<pdfrwt beam="1">  1        1 0.12715111E+00 0.27498419E+03</pdfrwt>
<pdfrwt beam="2">  1       -1 0.35189133E-02 0.27498419E+03</pdfrwt>
<totfact> 0.65073816E+03</totfact>
</mgrwt>
</event>
<event>
 5    1  0.1107336E+001  0.2746060E+03  0.7818608E-02  0.1098672E+00
         -2   -1    0    0    0  501 -0.00000000000E+00  0.00000000000E+00  0.20858032213E+03  0.20858032213E+03  0.00000000000E+00 0. -1.
          2   -1    0    0  501    0  0.00000000000E+00 -0.00000000000E+00 -0.90382990093E+02  0.90382990093E+02  0.00000000000E+00 0. -1.
         35    2    1    2    0    0  0.00000000000E+00  0.00000000000E+00  0.11819733204E+03  0.29896331222E+03  0.27460599548E+03 0.  0.
         25    1    3    3    0    0  0.16633904715E+02  0.49903426049E+02  0.10378939420E+03  0.16715046235E+03  0.12000000000E+03 0.  0.
         25    1    3    3    0    0 -0.16633904715E+02 -0.49903426049E+02  0.14407937839E+02  0.13181284987E+03  0.12000000000E+03 0.  0.
<mgrwt>
<rscale>  0 0.27460600E+03</rscale>
<asrwt>0</asrwt>
<pdfrwt beam="1">  1        2 0.13905075E-01 0.27460600E+03</pdfrwt>
<pdfrwt beam="2">  1       -2 0.32089280E-01 0.27460600E+03</pdfrwt>
<totfact> 0.38357871E+03</totfact>
</mgrwt>
</event>
<event>
 5    1  0.1107336E+001  0.2734218E+03  0.7818608E-02  0.1099337E+00
         -2   -1    0    0    0  501 -0.00000000000E+00  0.00000000000E+00  0.12255008493E+02  0.12255008493E+02  0.00000000000E+00 0. -1.
          2   -1    0    0  501    0  0.00000000000E+00 -0.00000000000E+00 -0.15250806608E+04  0.15250806608E+04  0.00000000000E+00 0. -1.
         35    2    1    2    0    0  0.00000000000E+00  0.00000000000E+00 -0.15128256523E+04  0.15373356693E+04  0.27342184588E+03 0.  0.
         25    1    3    3    0    0  0.25489239289E+02  0.59353134211E+02 -0.81732914326E+03  0.82861295204E+03  0.12000000000E+03 0.  0.
         25    1    3    3    0    0 -0.25489239289E+02 -0.59353134211E+02 -0.69549650904E+03  0.70872271725E+03  0.12000000000E+03 0.  0.
<mgrwt>
<rscale>  0 0.27342185E+03</rscale>
<asrwt>0</asrwt>
<pdfrwt beam="1">  1        2 0.23462780E+00 0.27342185E+03</pdfrwt>
<pdfrwt beam="2">  1       -2 0.18853858E-02 0.27342185E+03</pdfrwt>
<totfact> 0.11153440E+04</totfact>
</mgrwt>
</event>
<event>
 5    1  0.1107336E+001  0.2728897E+03  0.7818608E-02  0.1099637E+00
         -2   -1    0    0    0  501 -0.00000000000E+00  0.00000000000E+00  0.20435705713E+03  0.20435705713E+03  0.00000000000E+00 0.  1.
          2   -1    0    0  501    0  0.00000000000E+00 -0.00000000000E+00 -0.91101339034E+02  0.91101339034E+02  0.00000000000E+00 0.  1.
         35    2    1    2    0    0  0.00000000000E+00  0.00000000000E+00  0.11325571810E+03  0.29545839617E+03  0.27288973265E+03 0.  0.
         25    1    3    3    0    0 -0.25609198739E+01  0.45296191697E+02  0.63212287751E+01  0.12844555744E+03  0.12000000000E+03 0.  0.
         25    1    3    3    0    0  0.25609198739E+01 -0.45296191697E+02  0.10693448932E+03  0.16701283873E+03  0.12000000000E+03 0.  0.
<mgrwt>
<rscale>  0 0.27288973E+03</rscale>
<asrwt>0</asrwt>
<pdfrwt beam="1">  1        2 0.14015591E-01 0.27288973E+03</pdfrwt>
<pdfrwt beam="2">  1       -2 0.31439547E-01 0.27288973E+03</pdfrwt>
<totfact> 0.39440516E+03</totfact>
</mgrwt>
</event>
<event>
 5    1  0.1107336E+001  0.2739660E+03  0.7818608E-02  0.1099031E+00
          2   -1    0    0  501    0  0.00000000000E+00  0.00000000000E+00  0.11975405387E+03  0.11975405387E+03  0.00000000000E+00 0. -1.
         -2   -1    0    0    0  501 -0.00000000000E+00 -0.00000000000E+00 -0.15669062284E+03  0.15669062284E+03  0.00000000000E+00 0. -1.
         35    2    1    2    0    0  0.00000000000E+00  0.00000000000E+00 -0.36936568968E+02  0.27644467671E+03  0.27396596350E+03 0.  0.
         25    1    3    3    0    0 -0.64996507293E+02 -0.73276980284E+01 -0.27831036843E+02  0.13947332265E+03  0.12000000000E+03 0.  0.
         25    1    3    3    0    0  0.64996507293E+02  0.73276980284E+01 -0.91055321248E+01  0.13697135406E+03  0.12000000000E+03 0.  0.
<mgrwt>
<rscale>  0 0.27396596E+03</rscale>
<asrwt>0</asrwt>
<pdfrwt beam="1">  1        2 0.18423701E-01 0.27396596E+03</pdfrwt>
<pdfrwt beam="2">  1       -2 0.24106250E-01 0.27396596E+03</pdfrwt>
<totfact> 0.46025473E+03</totfact>
</mgrwt>
</event>
<event>
 5    1  0.1107336E+001  0.2718929E+03  0.7818608E-02  0.1100201E+00
          1   -1    0    0  501    0  0.00000000000E+00  0.00000000000E+00  0.41833580942E+02  0.41833580942E+02  0.00000000000E+00 0. -1.
         -1   -1    0    0    0  501 -0.00000000000E+00 -0.00000000000E+00 -0.44178475176E+03  0.44178475176E+03  0.00000000000E+00 0. -1.
         35    2    1    2    0    0  0.00000000000E+00  0.00000000000E+00 -0.39995117082E+03  0.48361833270E+03  0.27189290665E+03 0.  0.
         25    1    3    3    0    0  0.22952461173E+02  0.55063819912E+02 -0.15931356723E+03  0.20818177740E+03  0.12000000000E+03 0.  0.
         25    1    3    3    0    0 -0.22952461173E+02 -0.55063819912E+02 -0.24063760359E+03  0.27543655531E+03  0.12000000000E+03 0.  0.
<mgrwt>
<rscale>  0 0.27189291E+03</rscale>
<asrwt>0</asrwt>
<pdfrwt beam="1">  1        1 0.64359361E-02 0.27189291E+03</pdfrwt>
<pdfrwt beam="2">  1       -1 0.67966879E-01 0.27189291E+03</pdfrwt>
<totfact> 0.26593329E+03</totfact>
</mgrwt>
</event>
<event>
 5    1  0.1107336E+001  0.2744237E+03  0.7818608E-02  0.1098774E+00
         -2   -1    0    0    0  501 -0.00000000000E+00  0.00000000000E+00  0.84491754363E+01  0.84491754363E+01  0.00000000000E+00 0.  1.
          2   -1    0    0  501    0  0.00000000000E+00 -0.00000000000E+00 -0.22282750235E+04  0.22282750235E+04  0.00000000000E+00 0.  1.
         35    2    1    2    0    0  0.00000000000E+00  0.00000000000E+00 -0.22198258480E+04  0.22367241989E+04  0.27442366220E+03 0.  0.
         25    1    3    3    0    0 -0.64147131989E+02  0.17531545547E+02 -0.11279126364E+04  0.11362258248E+04  0.12000000000E+03 0.  0.
         25    1    3    3    0    0  0.64147131989E+02 -0.17531545547E+02 -0.10919132116E+04  0.11004983741E+04  0.12000000000E+03 0.  0.
<mgrwt>
<rscale>  0 0.27442366E+03</rscale>
<asrwt>0</asrwt>
<pdfrwt beam="1">  1        2 0.34281174E+00 0.27442366E+03</pdfrwt>
<pdfrwt beam="2">  1       -2 0.12998724E-02 0.27442366E+03</pdfrwt>
<totfact> 0.81816644E+03</totfact>
</mgrwt>
</event>
<event>
 5    1  0.1107336E+001  0.2761799E+03  0.7818608E-02  0.1097794E+00
         -1   -1    0    0    0  501 -0.00000000000E+00  0.00000000000E+00  0.20971507745E+03  0.20971507745E+03  0.00000000000E+00 0.  1.
          1   -1    0    0  501    0  0.00000000000E+00 -0.00000000000E+00 -0.90927308073E+02  0.90927308073E+02  0.00000000000E+00 0.  1.
         35    2    1    2    0    0  0.00000000000E+00  0.00000000000E+00  0.11878776938E+03  0.30064238552E+03  0.27617985049E+03 0.  0.
         25    1    3    3    0    0  0.36647597315E+02 -0.28083204864E+01  0.12209705483E+03  0.17509604179E+03  0.12000000000E+03 0.  0.
         25    1    3    3    0    0 -0.36647597315E+02  0.28083204864E+01 -0.33092854583E+01  0.12554634373E+03  0.12000000000E+03 0.  0.
<mgrwt>
<rscale>  0 0.27617985E+03</rscale>
<asrwt>0</asrwt>
<pdfrwt beam="1">  1        1 0.13988817E-01 0.27617985E+03</pdfrwt>
<pdfrwt beam="2">  1       -1 0.32263858E-01 0.27617985E+03</pdfrwt>
<totfact> 0.36660289E+03</totfact>
</mgrwt>
</event>
<event>
 5    1  0.1107336E+001  0.2760043E+03  0.7818608E-02  0.1097892E+00
         -1   -1    0    0    0  501 -0.00000000000E+00  0.00000000000E+00  0.15480276791E+02  0.15480276791E+02  0.00000000000E+00 0.  1.
          1   -1    0    0  501    0  0.00000000000E+00 -0.00000000000E+00 -0.12302489079E+04  0.12302489079E+04  0.00000000000E+00 0.  1.
         35    2    1    2    0    0  0.00000000000E+00  0.00000000000E+00 -0.12147686311E+04  0.12457291847E+04  0.27600430154E+03 0.  0.
         25    1    3    3    0    0 -0.67788565900E+02 -0.68554817287E+01 -0.60052994483E+03  0.61618057575E+03  0.12000000000E+03 0.  0.
         25    1    3    3    0    0  0.67788565900E+02  0.68554817287E+01 -0.61423868630E+03  0.62954860896E+03  0.12000000000E+03 0.  0.
<mgrwt>
<rscale>  0 0.27600430E+03</rscale>
<asrwt>0</asrwt>
<pdfrwt beam="1">  1        1 0.18926903E+00 0.27600430E+03</pdfrwt>
<pdfrwt beam="2">  1       -1 0.23815814E-02 0.27600430E+03</pdfrwt>
<totfact> 0.57848500E+03</totfact>
</mgrwt>
</event>
<event>
 5    1  0.1107336E+001  0.2761239E+03  0.7818608E-02  0.1097825E+00
         -2   -1    0    0    0  501 -0.00000000000E+00  0.00000000000E+00  0.18383090595E+02  0.18383090595E+02  0.00000000000E+00 0.  1.
          2   -1    0    0  501    0  0.00000000000E+00 -0.00000000000E+00 -0.10368826314E+04  0.10368826314E+04  0.00000000000E+00 0.  1.
         35    2    1    2    0    0  0.00000000000E+00  0.00000000000E+00 -0.10184995408E+04  0.10552657220E+04  0.27612393848E+03 0.  0.
         25    1    3    3    0    0  0.11628805787E+02  0.30489468896E+02 -0.28006595354E+03  0.30643396543E+03  0.12000000000E+03 0.  0.
         25    1    3    3    0    0 -0.11628805787E+02 -0.30489468896E+02 -0.73843358731E+03  0.74883175661E+03  0.12000000000E+03 0.  0.
<mgrwt>
<rscale>  0 0.27612394E+03</rscale>
<asrwt>0</asrwt>
<pdfrwt beam="1">  1        2 0.15952045E+00 0.27612394E+03</pdfrwt>
<pdfrwt beam="2">  1       -2 0.28281669E-02 0.27612394E+03</pdfrwt>
<totfact> 0.11505099E+04</totfact>
</mgrwt>
</event>
<event>
 5    1  0.1107336E+001  0.2753049E+03  0.7818608E-02  0.1098281E+00
          4   -1    0    0  501    0  0.00000000000E+00  0.00000000000E+00  0.44534047009E+02  0.44534047009E+02  0.00000000000E+00 0. -1.
         -4   -1    0    0    0  501 -0.00000000000E+00 -0.00000000000E+00 -0.42547653282E+03  0.42547653282E+03  0.00000000000E+00 0. -1.
         35    2    1    2    0    0  0.00000000000E+00  0.00000000000E+00 -0.38094248581E+03  0.47001057983E+03  0.27530486312E+03 0.  0.
         25    1    3    3    0    0  0.83987784320E+01 -0.61760377796E+02 -0.23444073246E+03  0.27064245931E+03  0.12000000000E+03 0.  0.
         25    1    3    3    0    0 -0.83987784320E+01  0.61760377796E+02 -0.14650175335E+03  0.19936812052E+03  0.12000000000E+03 0.  0.
<mgrwt>
<rscale>  0 0.27530486E+03</rscale>
<asrwt>0</asrwt>
<pdfrwt beam="1">  1        4 0.68513918E-02 0.27530486E+03</pdfrwt>
<pdfrwt beam="2">  1       -4 0.65457929E-01 0.27530486E+03</pdfrwt>
<totfact> 0.58958674E+02</totfact>
</mgrwt>
</event>
<event>
 5    1  0.1107336E+001  0.2764511E+03  0.7818608E-02  0.1097643E+00
          2   -1    0    0  501    0  0.00000000000E+00  0.00000000000E+00  0.32966646467E+03  0.32966646467E+03  0.00000000000E+00 0. -1.
         -2   -1    0    0    0  501 -0.00000000000E+00 -0.00000000000E+00 -0.57956481990E+02  0.57956481990E+02  0.00000000000E+00 0. -1.
         35    2    1    2    0    0  0.00000000000E+00  0.00000000000E+00  0.27170998268E+03  0.38762294666E+03  0.27645114232E+03 0.  0.
         25    1    3    3    0    0 -0.42401635818E+02 -0.46637949784E+02  0.97885452655E+02  0.16719616898E+03  0.12000000000E+03 0.  0.
         25    1    3    3    0    0  0.42401635818E+02  0.46637949784E+02  0.17382453003E+03  0.22042677768E+03  0.12000000000E+03 0.  0.
<mgrwt>
<rscale>  0 0.27645114E+03</rscale>
<asrwt>0</asrwt>
<pdfrwt beam="1">  1        2 0.50717917E-01 0.27645114E+03</pdfrwt>
<pdfrwt beam="2">  1       -2 0.89163820E-02 0.27645114E+03</pdfrwt>
<totfact> 0.78053294E+03</totfact>
</mgrwt>
</event>
<event>
 5    1  0.1107336E+001  0.2756420E+03  0.7818608E-02  0.1098093E+00
         -1   -1    0    0    0  501 -0.00000000000E+00  0.00000000000E+00  0.41823760672E+02  0.41823760672E+02  0.00000000000E+00 0.  1.
          1   -1    0    0  501    0  0.00000000000E+00 -0.00000000000E+00 -0.45415869919E+03  0.45415869919E+03  0.00000000000E+00 0.  1.
         35    2    1    2    0    0  0.00000000000E+00  0.00000000000E+00 -0.41233493852E+03  0.49598245986E+03  0.27564197606E+03 0.  0.
         25    1    3    3    0    0 -0.67809497849E+01  0.62819546994E+02 -0.25032905828E+03  0.28470495989E+03  0.12000000000E+03 0.  0.
         25    1    3    3    0    0  0.67809497849E+01 -0.62819546994E+02 -0.16200588024E+03  0.21127749998E+03  0.12000000000E+03 0.  0.
<mgrwt>
<rscale>  0 0.27564198E+03</rscale>
<asrwt>0</asrwt>
<pdfrwt beam="1">  1        1 0.69870572E-01 0.27564198E+03</pdfrwt>
<pdfrwt beam="2">  1       -1 0.64344244E-02 0.27564198E+03</pdfrwt>
<totfact> 0.61344180E+03</totfact>
</mgrwt>
</event>
<event>
 5    1  0.1107336E+001  0.2761547E+03  0.7818608E-02  0.1097808E+00
          1   -1    0    0  501    0  0.00000000000E+00  0.00000000000E+00  0.11431813826E+03  0.11431813826E+03  0.00000000000E+00 0.  1.
         -1   -1    0    0    0  501 -0.00000000000E+00 -0.00000000000E+00 -0.16677452222E+03  0.16677452222E+03  0.00000000000E+00 0.  1.
         35    2    1    2    0    0  0.00000000000E+00  0.00000000000E+00 -0.52456383957E+02  0.28109266048E+03  0.27615468774E+03 0.  0.
         25    1    3    3    0    0 -0.54065751293E+02 -0.43289781154E+01  0.16029294326E+02  0.13266040777E+03  0.12000000000E+03 0.  0.
         25    1    3    3    0    0  0.54065751293E+02  0.43289781154E+01 -0.68485678282E+02  0.14843225271E+03  0.12000000000E+03 0.  0.
<mgrwt>
<rscale>  0 0.27615469E+03</rscale>
<asrwt>0</asrwt>
<pdfrwt beam="1">  1        1 0.17587406E-01 0.27615469E+03</pdfrwt>
<pdfrwt beam="2">  1       -1 0.25657619E-01 0.27615469E+03</pdfrwt>
<totfact> 0.40039629E+03</totfact>
</mgrwt>
</event>
<event>
 5    1  0.1107336E+001  0.2750508E+03  0.7818608E-02  0.1098423E+00
         -2   -1    0    0    0  501 -0.00000000000E+00  0.00000000000E+00  0.35231753891E+03  0.35231753891E+03  0.00000000000E+00 0. -1.
          2   -1    0    0  501    0  0.00000000000E+00 -0.00000000000E+00 -0.53682373260E+02  0.53682373260E+02  0.00000000000E+00 0. -1.
         35    2    1    2    0    0  0.00000000000E+00  0.00000000000E+00  0.29863516565E+03  0.40599991217E+03  0.27505084352E+03 0.  0.
         25    1    3    3    0    0  0.62916206112E+02  0.14534413450E+02  0.12195835703E+03  0.18287574748E+03  0.12000000000E+03 0.  0.
         25    1    3    3    0    0 -0.62916206112E+02 -0.14534413450E+02  0.17667680862E+03  0.22312416469E+03  0.12000000000E+03 0.  0.
<mgrwt>
<rscale>  0 0.27505084E+03</rscale>
<asrwt>0</asrwt>
<pdfrwt beam="1">  1        2 0.82588269E-02 0.27505084E+03</pdfrwt>
<pdfrwt beam="2">  1       -2 0.54202697E-01 0.27505084E+03</pdfrwt>
<totfact> 0.26541165E+03</totfact>
</mgrwt>
</event>
<event>
 5    1  0.1107336E+001  0.2747803E+03  0.7818608E-02  0.1098574E+00
          2   -1    0    0  501    0  0.00000000000E+00  0.00000000000E+00  0.12325087722E+04  0.12325087722E+04  0.00000000000E+00 0. -1.
         -2   -1    0    0    0  501 -0.00000000000E+00 -0.00000000000E+00 -0.15315145406E+02  0.15315145406E+02  0.00000000000E+00 0. -1.
         35    2    1    2    0    0  0.00000000000E+00  0.00000000000E+00  0.12171936268E+04  0.12478239176E+04  0.27478028358E+03 0.  0.
         25    1    3    3    0    0  0.33095804858E+02 -0.57193973212E+02  0.56106219822E+03  0.57754417419E+03  0.12000000000E+03 0.  0.
         25    1    3    3    0    0 -0.33095804858E+02  0.57193973212E+02  0.65613142862E+03  0.67027974346E+03  0.12000000000E+03 0.  0.
<mgrwt>
<rscale>  0 0.27478028E+03</rscale>
<asrwt>0</asrwt>
<pdfrwt beam="1">  1        2 0.18961666E+00 0.27478028E+03</pdfrwt>
<pdfrwt beam="2">  1       -2 0.23561772E-02 0.27478028E+03</pdfrwt>
<totfact> 0.11604525E+04</totfact>
</mgrwt>
</event>
<event>
 5    1  0.1107336E+001  0.2752920E+03  0.7818608E-02  0.1098288E+00
         -1   -1    0    0    0  501 -0.00000000000E+00  0.00000000000E+00  0.20458338076E+02  0.20458338076E+02  0.00000000000E+00 0. -1.
          1   -1    0    0  501    0  0.00000000000E+00 -0.00000000000E+00 -0.92609765925E+03  0.92609765925E+03  0.00000000000E+00 0. -1.
         35    2    1    2    0    0  0.00000000000E+00  0.00000000000E+00 -0.90563932117E+03  0.94655599732E+03  0.27529198320E+03 0.  0.
         25    1    3    3    0    0  0.66585003156E+02 -0.55622937301E+01 -0.42169960087E+03  0.44350316248E+03  0.12000000000E+03 0.  0.
         25    1    3    3    0    0 -0.66585003156E+02  0.55622937301E+01 -0.48393972030E+03  0.50305283484E+03  0.12000000000E+03 0.  0.
<mgrwt>
<rscale>  0 0.27529198E+03</rscale>
<asrwt>0</asrwt>
<pdfrwt beam="1">  1        1 0.14247653E+00 0.27529198E+03</pdfrwt>
<pdfrwt beam="2">  1       -1 0.31474373E-02 0.27529198E+03</pdfrwt>
<totfact> 0.63933907E+03</totfact>
</mgrwt>
</event>
<event>
 5    1  0.1107336E+001  0.2728616E+03  0.7818608E-02  0.1099653E+00
          2   -1    0    0  501    0  0.00000000000E+00  0.00000000000E+00  0.69916779806E+03  0.69916779806E+03  0.00000000000E+00 0. -1.
         -2   -1    0    0    0  501 -0.00000000000E+00 -0.00000000000E+00 -0.26622165664E+02  0.26622165664E+02  0.00000000000E+00 0. -1.
         35    2    1    2    0    0  0.00000000000E+00  0.00000000000E+00  0.67254563240E+03  0.72578996373E+03  0.27286158357E+03 0.  0.
         25    1    3    3    0    0  0.63755022891E+02 -0.74574378891E+01  0.36193030836E+03  0.38667022698E+03  0.12000000000E+03 0.  0.
         25    1    3    3    0    0 -0.63755022891E+02  0.74574378891E+01  0.31061532404E+03  0.33911973675E+03  0.12000000000E+03 0.  0.
<mgrwt>
<rscale>  0 0.27286158E+03</rscale>
<asrwt>0</asrwt>
<pdfrwt beam="1">  1        2 0.10756426E+00 0.27286158E+03</pdfrwt>
<pdfrwt beam="2">  1       -2 0.40957183E-02 0.27286158E+03</pdfrwt>
<totfact> 0.11089271E+04</totfact>
</mgrwt>
</event>
<event>
 5    1  0.1107336E+001  0.2749703E+03  0.7818608E-02  0.1098468E+00
          2   -1    0    0  501    0  0.00000000000E+00  0.00000000000E+00  0.28442616716E+03  0.28442616716E+03  0.00000000000E+00 0. -1.
         -2   -1    0    0    0  501 -0.00000000000E+00 -0.00000000000E+00 -0.66457202782E+02  0.66457202782E+02  0.00000000000E+00 0. -1.
         35    2    1    2    0    0  0.00000000000E+00  0.00000000000E+00  0.21796896437E+03  0.35088336994E+03  0.27497030725E+03 0.  0.
         25    1    3    3    0    0 -0.47268200742E+02 -0.45106412545E+02  0.12847533452E+03  0.18754941438E+03  0.12000000000E+03 0.  0.
         25    1    3    3    0    0  0.47268200742E+02  0.45106412545E+02  0.89493629853E+02  0.16333395556E+03  0.12000000000E+03 0.  0.
<mgrwt>
<rscale>  0 0.27497031E+03</rscale>
<asrwt>0</asrwt>
<pdfrwt beam="1">  1        2 0.43757871E-01 0.27497031E+03</pdfrwt>
<pdfrwt beam="2">  1       -2 0.10224185E-01 0.27497031E+03</pdfrwt>
<totfact> 0.73643916E+03</totfact>
</mgrwt>
</event>
<event>
 5    1  0.1107336E+001  0.2752319E+03  0.7818608E-02  0.1098322E+00
          2   -1    0    0  501    0  0.00000000000E+00  0.00000000000E+00  0.16890819251E+03  0.16890819251E+03  0.00000000000E+00 0.  1.
         -2   -1    0    0    0  501 -0.00000000000E+00 -0.00000000000E+00 -0.11212094729E+03  0.11212094729E+03  0.00000000000E+00 0.  1.
         35    2    1    2    0    0  0.00000000000E+00  0.00000000000E+00  0.56787245222E+02  0.28102913980E+03  0.27523187714E+03 0.  0.
         25    1    3    3    0    0 -0.42651970868E+02  0.31050415918E+01  0.81541061882E+02  0.15125401375E+03  0.12000000000E+03 0.  0.
         25    1    3    3    0    0  0.42651970868E+02 -0.31050415918E+01 -0.24753816660E+02  0.12977512605E+03  0.12000000000E+03 0.  0.
<mgrwt>
<rscale>  0 0.27523188E+03</rscale>
<asrwt>0</asrwt>
<pdfrwt beam="1">  1        2 0.25985876E-01 0.27523188E+03</pdfrwt>
<pdfrwt beam="2">  1       -2 0.17249376E-01 0.27523188E+03</pdfrwt>
<totfact> 0.55343163E+03</totfact>
</mgrwt>
</event>
<event>
 5    1  0.1107336E+001  0.2754599E+03  0.7818608E-02  0.1098195E+00
          1   -1    0    0  501    0  0.00000000000E+00  0.00000000000E+00  0.38702144809E+03  0.38702144809E+03  0.00000000000E+00 0. -1.
         -1   -1    0    0    0  501 -0.00000000000E+00 -0.00000000000E+00 -0.49014162758E+02  0.49014162758E+02  0.00000000000E+00 0. -1.
         35    2    1    2    0    0  0.00000000000E+00  0.00000000000E+00  0.33800728533E+03  0.43603561085E+03  0.27545985005E+03 0.  0.
         25    1    3    3    0    0  0.11185190638E+02 -0.23281854049E+02  0.70119107296E+02  0.14136421904E+03  0.12000000000E+03 0.  0.
         25    1    3    3    0    0 -0.11185190638E+02  0.23281854049E+02  0.26788817804E+03  0.29467139181E+03  0.12000000000E+03 0.  0.
<mgrwt>
<rscale>  0 0.27545985E+03</rscale>
<asrwt>0</asrwt>
<pdfrwt beam="1">  1        1 0.59541759E-01 0.27545985E+03</pdfrwt>
<pdfrwt beam="2">  1       -1 0.75406407E-02 0.27545985E+03</pdfrwt>
<totfact> 0.59273768E+03</totfact>
</mgrwt>
</event>
<event>
 5    1  0.1107336E+001  0.2760766E+03  0.7818608E-02  0.1097851E+00
          2   -1    0    0  501    0  0.00000000000E+00  0.00000000000E+00  0.30842023228E+03  0.30842023228E+03  0.00000000000E+00 0.  1.
         -2   -1    0    0    0  501 -0.00000000000E+00 -0.00000000000E+00 -0.61781181656E+02  0.61781181656E+02  0.00000000000E+00 0.  1.
         35    2    1    2    0    0  0.00000000000E+00  0.00000000000E+00  0.24663905063E+03  0.37020141394E+03  0.27607655748E+03 0.  0.
         25    1    3    3    0    0 -0.30622771180E+02 -0.60453780796E+02  0.13389106969E+03  0.19214378020E+03  0.12000000000E+03 0.  0.
         25    1    3    3    0    0  0.30622771180E+02  0.60453780796E+02  0.11274798094E+03  0.17805763374E+03  0.12000000000E+03 0.  0.
<mgrwt>
<rscale>  0 0.27607656E+03</rscale>
<asrwt>0</asrwt>
<pdfrwt beam="1">  1        2 0.47449266E-01 0.27607656E+03</pdfrwt>
<pdfrwt beam="2">  1       -2 0.95047973E-02 0.27607656E+03</pdfrwt>
<totfact> 0.75802097E+03</totfact>
</mgrwt>
</event>
<event>
 5    1  0.1107336E+001  0.2763130E+03  0.7818608E-02  0.1097720E+00
          1   -1    0    0  501    0  0.00000000000E+00  0.00000000000E+00  0.23992859990E+03  0.23992859990E+03  0.00000000000E+00 0.  1.
         -1   -1    0    0    0  501 -0.00000000000E+00 -0.00000000000E+00 -0.79553758586E+02  0.79553758586E+02  0.00000000000E+00 0.  1.
         35    2    1    2    0    0  0.00000000000E+00  0.00000000000E+00  0.16037484131E+03  0.31948235848E+03  0.27631302477E+03 0.  0.
         25    1    3    3    0    0  0.28523817934E+02  0.60893629108E+02  0.95065573504E+02  0.16720976503E+03  0.12000000000E+03 0.  0.
         25    1    3    3    0    0 -0.28523817934E+02 -0.60893629108E+02  0.65309267805E+02  0.15227259345E+03  0.12000000000E+03 0.  0.
<mgrwt>
<rscale>  0 0.27631302E+03</rscale>
<asrwt>0</asrwt>
<pdfrwt beam="1">  1        1 0.36912092E-01 0.27631302E+03</pdfrwt>
<pdfrwt beam="2">  1       -1 0.12239040E-01 0.27631302E+03</pdfrwt>
<totfact> 0.51330526E+03</totfact>
</mgrwt>
</event>
<event>
 5    1  0.1107336E+001  0.2762506E+03  0.7818608E-02  0.1097755E+00
         -4   -1    0    0    0  501 -0.00000000000E+00  0.00000000000E+00  0.12388789896E+03  0.12388789896E+03  0.00000000000E+00 0.  1.
          4   -1    0    0  501    0  0.00000000000E+00 -0.00000000000E+00 -0.15399891215E+03  0.15399891215E+03  0.00000000000E+00 0.  1.
         35    2    1    2    0    0  0.00000000000E+00  0.00000000000E+00 -0.30111013184E+02  0.27788681111E+03  0.27625062294E+03 0.  0.
         25    1    3    3    0    0 -0.42801063342E+01  0.64281095503E+02  0.80637237415E+01  0.13643827245E+03  0.12000000000E+03 0.  0.
         25    1    3    3    0    0  0.42801063342E+01 -0.64281095503E+02 -0.38174736926E+02  0.14144853866E+03  0.12000000000E+03 0.  0.
<mgrwt>
<rscale>  0 0.27625062E+03</rscale>
<asrwt>0</asrwt>
<pdfrwt beam="1">  1        4 0.23692140E-01 0.27625062E+03</pdfrwt>
<pdfrwt beam="2">  1       -4 0.19059677E-01 0.27625062E+03</pdfrwt>
<totfact> 0.76443540E+02</totfact>
</mgrwt>
</event>
<event>
 5    1  0.1107336E+001  0.2751059E+03  0.7818608E-02  0.1098392E+00
          2   -1    0    0  501    0  0.00000000000E+00  0.00000000000E+00  0.67018610294E+03  0.67018610294E+03  0.00000000000E+00 0. -1.
         -2   -1    0    0    0  501 -0.00000000000E+00 -0.00000000000E+00 -0.28232180895E+02  0.28232180895E+02  0.00000000000E+00 0. -1.
         35    2    1    2    0    0  0.00000000000E+00  0.00000000000E+00  0.64195392204E+03  0.69841828383E+03  0.27510590900E+03 0.  0.
         25    1    3    3    0    0  0.89685896735E+01  0.58919458143E+02  0.24195459355E+03  0.27657542098E+03  0.12000000000E+03 0.  0.
         25    1    3    3    0    0 -0.89685896735E+01 -0.58919458143E+02  0.39999932849E+03  0.42184286285E+03  0.12000000000E+03 0.  0.
<mgrwt>
<rscale>  0 0.27510591E+03</rscale>
<asrwt>0</asrwt>
<pdfrwt beam="1">  1        2 0.10310554E+00 0.27510591E+03</pdfrwt>
<pdfrwt beam="2">  1       -2 0.43434129E-02 0.27510591E+03</pdfrwt>
<totfact> 0.10684255E+04</totfact>
</mgrwt>
</event>
<event>
 5    1  0.1107336E+001  0.2752373E+03  0.7818608E-02  0.1098319E+00
         -2   -1    0    0    0  501 -0.00000000000E+00  0.00000000000E+00  0.27941161862E+02  0.27941161862E+02  0.00000000000E+00 0. -1.
          2   -1    0    0  501    0  0.00000000000E+00 -0.00000000000E+00 -0.67781334392E+03  0.67781334392E+03  0.00000000000E+00 0. -1.
         35    2    1    2    0    0  0.00000000000E+00  0.00000000000E+00 -0.64987218206E+03  0.70575450578E+03  0.27523729656E+03 0.  0.
         25    1    3    3    0    0  0.28068790801E+02  0.11077612495E+02 -0.17048204925E+03  0.21065303139E+03  0.12000000000E+03 0.  0.
         25    1    3    3    0    0 -0.28068790801E+02 -0.11077612495E+02 -0.47939013280E+03  0.49510147439E+03  0.12000000000E+03 0.  0.
<mgrwt>
<rscale>  0 0.27523730E+03</rscale>
<asrwt>0</asrwt>
<pdfrwt beam="1">  1        2 0.10427898E+00 0.27523730E+03</pdfrwt>
<pdfrwt beam="2">  1       -2 0.42986402E-02 0.27523730E+03</pdfrwt>
<totfact> 0.10706558E+04</totfact>
</mgrwt>
</event>
<event>
 5    1  0.1107336E+001  0.2751152E+03  0.7818608E-02  0.1098387E+00
         -3   -1    0    0    0  501 -0.00000000000E+00  0.00000000000E+00  0.47372823333E+03  0.47372823333E+03  0.00000000000E+00 0. -1.
          3   -1    0    0  501    0  0.00000000000E+00 -0.00000000000E+00 -0.39942939180E+02  0.39942939180E+02  0.00000000000E+00 0. -1.
         35    2    1    2    0    0  0.00000000000E+00  0.00000000000E+00  0.43378529415E+03  0.51367117252E+03  0.27511523413E+03 0.  0.
         25    1    3    3    0    0 -0.35527698364E+02 -0.33764195257E+02  0.30285813284E+03  0.32943176359E+03  0.12000000000E+03 0.  0.
         25    1    3    3    0    0  0.35527698364E+02  0.33764195257E+02  0.13092716131E+03  0.18423940893E+03  0.12000000000E+03 0.  0.
<mgrwt>
<rscale>  0 0.27511523E+03</rscale>
<asrwt>0</asrwt>
<pdfrwt beam="1">  1        3 0.61450679E-02 0.27511523E+03</pdfrwt>
<pdfrwt beam="2">  1       -3 0.72881263E-01 0.27511523E+03</pdfrwt>
<totfact> 0.75944144E+02</totfact>
</mgrwt>
</event>
<event>
 5    1  0.1107336E+001  0.2751609E+03  0.7818608E-02  0.1098362E+00
          1   -1    0    0  501    0  0.00000000000E+00  0.00000000000E+00  0.16172492464E+03  0.16172492464E+03  0.00000000000E+00 0. -1.
         -1   -1    0    0    0  501 -0.00000000000E+00 -0.00000000000E+00 -0.11704056821E+03  0.11704056821E+03  0.00000000000E+00 0. -1.
         35    2    1    2    0    0  0.00000000000E+00  0.00000000000E+00  0.44684356432E+02  0.27876549286E+03  0.27516087712E+03 0.  0.
         25    1    3    3    0    0 -0.28455753557E+02 -0.22725686746E+02  0.79671380502E+02  0.14857225723E+03  0.12000000000E+03 0.  0.
         25    1    3    3    0    0  0.28455753557E+02  0.22725686746E+02 -0.34987024069E+02  0.13019323562E+03  0.12000000000E+03 0.  0.
<mgrwt>
<rscale>  0 0.27516088E+03</rscale>
<asrwt>0</asrwt>
<pdfrwt beam="1">  1        1 0.24880758E-01 0.27516088E+03</pdfrwt>
<pdfrwt beam="2">  1       -1 0.18006241E-01 0.27516088E+03</pdfrwt>
<totfact> 0.45777062E+03</totfact>
</mgrwt>
</event>
<event>
 5    1  0.1107336E+001  0.2737703E+03  0.7818608E-02  0.1099141E+00
         -2   -1    0    0    0  501 -0.00000000000E+00  0.00000000000E+00  0.34127139790E+02  0.34127139790E+02  0.00000000000E+00 0.  1.
          2   -1    0    0  501    0  0.00000000000E+00 -0.00000000000E+00 -0.54905128063E+03  0.54905128063E+03  0.00000000000E+00 0.  1.
         35    2    1    2    0    0  0.00000000000E+00  0.00000000000E+00 -0.51492414084E+03  0.58317842042E+03  0.27377034029E+03 0.  0.
         25    1    3    3    0    0  0.23376157549E+02  0.58902639414E+02 -0.21926215893E+03  0.25786015592E+03  0.12000000000E+03 0.  0.
         25    1    3    3    0    0 -0.23376157549E+02 -0.58902639414E+02 -0.29566198191E+03  0.32531826450E+03  0.12000000000E+03 0.  0.
<mgrwt>
<rscale>  0 0.27377034E+03</rscale>
<asrwt>0</asrwt>
<pdfrwt beam="1">  1        2 0.84469426E-01 0.27377034E+03</pdfrwt>
<pdfrwt beam="2">  1       -2 0.52503293E-02 0.27377034E+03</pdfrwt>
<totfact> 0.10109094E+04</totfact>
</mgrwt>
</event>
<event>
 5    1  0.1107336E+001  0.2729825E+03  0.7818608E-02  0.1099585E+00
         -2   -1    0    0    0  501 -0.00000000000E+00  0.00000000000E+00  0.23133843328E+02  0.23133843328E+02  0.00000000000E+00 0.  1.
          2   -1    0    0  501    0  0.00000000000E+00 -0.00000000000E+00 -0.80530740807E+03  0.80530740807E+03  0.00000000000E+00 0.  1.
         35    2    1    2    0    0  0.00000000000E+00  0.00000000000E+00 -0.78217356474E+03  0.82844125140E+03  0.27298245664E+03 0.  0.
         25    1    3    3    0    0 -0.56959183576E+02  0.29058630877E+01 -0.29622567024E+03  0.32465741997E+03  0.12000000000E+03 0.  0.
         25    1    3    3    0    0  0.56959183576E+02 -0.29058630877E+01 -0.48594789451E+03  0.50378383143E+03  0.12000000000E+03 0.  0.
<mgrwt>
<rscale>  0 0.27298246E+03</rscale>
<asrwt>0</asrwt>
<pdfrwt beam="1">  1        2 0.12389343E+00 0.27298246E+03</pdfrwt>
<pdfrwt beam="2">  1       -2 0.35590534E-02 0.27298246E+03</pdfrwt>
<totfact> 0.11486435E+04</totfact>
</mgrwt>
</event>
<event>
 5    1  0.1107336E+001  0.2752750E+03  0.7818608E-02  0.1098298E+00
         -1   -1    0    0    0  501 -0.00000000000E+00  0.00000000000E+00  0.22699139578E+02  0.22699139578E+02  0.00000000000E+00 0.  1.
          1   -1    0    0  501    0  0.00000000000E+00 -0.00000000000E+00 -0.83457255584E+03  0.83457255584E+03  0.00000000000E+00 0.  1.
         35    2    1    2    0    0  0.00000000000E+00  0.00000000000E+00 -0.81187341626E+03  0.85727169542E+03  0.27527498203E+03 0.  0.
         25    1    3    3    0    0 -0.48682451092E+02 -0.36267727363E+02 -0.31467573896E+03  0.34220775821E+03  0.12000000000E+03 0.  0.
         25    1    3    3    0    0  0.48682451092E+02  0.36267727363E+02 -0.49719767731E+03  0.51506393721E+03  0.12000000000E+03 0.  0.
<mgrwt>
<rscale>  0 0.27527498E+03</rscale>
<asrwt>0</asrwt>
<pdfrwt beam="1">  1        1 0.12839579E+00 0.27527498E+03</pdfrwt>
<pdfrwt beam="2">  1       -1 0.34921749E-02 0.27527498E+03</pdfrwt>
<totfact> 0.64818687E+03</totfact>
</mgrwt>
</event>
<event>
 5    1  0.1107336E+001  0.2746767E+03  0.7818608E-02  0.1098632E+00
         -4   -1    0    0    0  501 -0.00000000000E+00  0.00000000000E+00  0.27448515448E+03  0.27448515448E+03  0.00000000000E+00 0.  1.
          4   -1    0    0  501    0  0.00000000000E+00 -0.00000000000E+00 -0.68717090417E+02  0.68717090417E+02  0.00000000000E+00 0.  1.
         35    2    1    2    0    0  0.00000000000E+00  0.00000000000E+00  0.20576806406E+03  0.34320224490E+03  0.27467669125E+03 0.  0.
         25    1    3    3    0    0 -0.20641676109E+02 -0.91509646748E+01  0.18143235248E+03  0.21869503304E+03  0.12000000000E+03 0.  0.
         25    1    3    3    0    0  0.20641676109E+02  0.91509646748E+01  0.24335711579E+02  0.12450721186E+03  0.12000000000E+03 0.  0.
<mgrwt>
<rscale>  0 0.27467669E+03</rscale>
<asrwt>0</asrwt>
<pdfrwt beam="1">  1        4 0.10571860E-01 0.27467669E+03</pdfrwt>
<pdfrwt beam="2">  1       -4 0.42228485E-01 0.27467669E+03</pdfrwt>
<totfact> 0.70663476E+02</totfact>
</mgrwt>
</event>
<event>
 5    1  0.1107336E+001  0.2753697E+03  0.7818608E-02  0.1098245E+00
         -2   -1    0    0    0  501 -0.00000000000E+00  0.00000000000E+00  0.41687536203E+02  0.41687536203E+02  0.00000000000E+00 0.  1.
          2   -1    0    0  501    0  0.00000000000E+00 -0.00000000000E+00 -0.45474321559E+03  0.45474321559E+03  0.00000000000E+00 0.  1.
         35    2    1    2    0    0  0.00000000000E+00  0.00000000000E+00 -0.41305567939E+03  0.49643075180E+03  0.27536974607E+03 0.  0.
         25    1    3    3    0    0  0.29160915383E+02  0.53484951168E+02 -0.15408818944E+03  0.20458291500E+03  0.12000000000E+03 0.  0.
         25    1    3    3    0    0 -0.29160915383E+02 -0.53484951168E+02 -0.25896748996E+03  0.29184783679E+03  0.12000000000E+03 0.  0.
<mgrwt>
<rscale>  0 0.27536975E+03</rscale>
<asrwt>0</asrwt>
<pdfrwt beam="1">  1        2 0.69960495E-01 0.27536975E+03</pdfrwt>
<pdfrwt beam="2">  1       -2 0.64134671E-02 0.27536975E+03</pdfrwt>
<totfact> 0.91901661E+03</totfact>
</mgrwt>
</event>
