<event>
 5    1  0.1100736E+001  0.2749234E+03  0.7818608E-02  0.1098494E+00
          4   -1    0    0  501    0  0.00000000000E+00  0.00000000000E+00  0.45989137351E+03  0.45989137351E+03  0.00000000000E+00 0. -1.
         -4   -1    0    0    0  501 -0.00000000000E+00 -0.00000000000E+00 -0.41087339891E+02  0.41087339891E+02  0.00000000000E+00 0. -1.
         35    2    1    2    0    0  0.00000000000E+00  0.00000000000E+00  0.41880403362E+03  0.50097871340E+03  0.27492335788E+03 0.  0.
         25    1    3    3    0    0  0.80511311902E+01  0.40514551804E+02  0.11315927670E+03  0.17003314831E+03  0.12000000000E+03 0.  0.
         25    1    3    3    0    0 -0.80511311902E+01 -0.40514551804E+02  0.30564475692E+03  0.33094556509E+03  0.12000000000E+03 0.  0.
<mgrwt>
<rscale>  0 0.27492336E+03</rscale>
<asrwt>0</asrwt>
<pdfrwt beam="1">  1        4 0.70752515E-01 0.27492336E+03</pdfrwt>
<pdfrwt beam="2">  1       -4 0.63211295E-02 0.27492336E+03</pdfrwt>
<totfact> 0.56869133E+02</totfact>
</mgrwt>
</event>
<event>
 5    1  0.1100736E+001  0.2744946E+03  0.7818608E-02  0.1098734E+00
          2   -1    0    0  501    0  0.00000000000E+00  0.00000000000E+00  0.19898521329E+03  0.19898521329E+03  0.00000000000E+00 0. -1.
         -2   -1    0    0    0  501 -0.00000000000E+00 -0.00000000000E+00 -0.94664457121E+02  0.94664457121E+02  0.00000000000E+00 0. -1.
         35    2    1    2    0    0  0.00000000000E+00  0.00000000000E+00  0.10432075617E+03  0.29364967041E+03  0.27449464250E+03 0.  0.
         25    1    3    3    0    0  0.55637839863E+02  0.32659820721E+02  0.34433133867E+02  0.14052712842E+03  0.12000000000E+03 0.  0.
         25    1    3    3    0    0 -0.55637839863E+02 -0.32659820721E+02  0.69887622299E+02  0.15312254199E+03  0.12000000000E+03 0.  0.
<mgrwt>
<rscale>  0 0.27449464E+03</rscale>
<asrwt>0</asrwt>
<pdfrwt beam="1">  1        2 0.30613110E-01 0.27449464E+03</pdfrwt>
<pdfrwt beam="2">  1       -2 0.14563763E-01 0.27449464E+03</pdfrwt>
<totfact> 0.61184511E+03</totfact>
</mgrwt>
</event>
<event>
 5    1  0.1100736E+001  0.2754222E+03  0.7818608E-02  0.1098216E+00
         -1   -1    0    0    0  501 -0.00000000000E+00  0.00000000000E+00  0.26628746508E+02  0.26628746508E+02  0.00000000000E+00 0. -1.
          1   -1    0    0  501    0  0.00000000000E+00 -0.00000000000E+00 -0.71217591076E+03  0.71217591076E+03  0.00000000000E+00 0. -1.
         35    2    1    2    0    0  0.00000000000E+00  0.00000000000E+00 -0.68554716426E+03  0.73880465727E+03  0.27542223437E+03 0.  0.
         25    1    3    3    0    0 -0.28506233504E+01 -0.18804969820E+01 -0.52376777543E+03  0.53734936950E+03  0.12000000000E+03 0.  0.
         25    1    3    3    0    0  0.28506233504E+01  0.18804969820E+01 -0.16177938882E+03  0.20145528777E+03  0.12000000000E+03 0.  0.
<mgrwt>
<rscale>  0 0.27542223E+03</rscale>
<asrwt>0</asrwt>
<pdfrwt beam="1">  1        1 0.10956551E+00 0.27542223E+03</pdfrwt>
<pdfrwt beam="2">  1       -1 0.40967309E-02 0.27542223E+03</pdfrwt>
<totfact> 0.65044680E+03</totfact>
</mgrwt>
</event>
<event>
 5    1  0.1100736E+001  0.2751542E+03  0.7818608E-02  0.1098365E+00
         -2   -1    0    0    0  501 -0.00000000000E+00  0.00000000000E+00  0.20439414997E+02  0.20439414997E+02  0.00000000000E+00 0.  1.
          2   -1    0    0  501    0  0.00000000000E+00 -0.00000000000E+00 -0.92602712574E+03  0.92602712574E+03  0.00000000000E+00 0.  1.
         35    2    1    2    0    0  0.00000000000E+00  0.00000000000E+00 -0.90558771074E+03  0.94646654074E+03  0.27515415840E+03 0.  0.
         25    1    3    3    0    0  0.34480182557E+02  0.17790701165E+02 -0.64188917313E+03  0.65416137353E+03  0.12000000000E+03 0.  0.
         25    1    3    3    0    0 -0.34480182557E+02 -0.17790701165E+02 -0.26369853761E+03  0.29230516721E+03  0.12000000000E+03 0.  0.
<mgrwt>
<rscale>  0 0.27515416E+03</rscale>
<asrwt>0</asrwt>
<pdfrwt beam="1">  1        2 0.14246571E+00 0.27515416E+03</pdfrwt>
<pdfrwt beam="2">  1       -2 0.31445255E-02 0.27515416E+03</pdfrwt>
<totfact> 0.11505004E+04</totfact>
</mgrwt>
</event>
<event>
 5    1  0.1100736E+001  0.2745857E+03  0.7818608E-02  0.1098683E+00
         -2   -1    0    0    0  501 -0.00000000000E+00  0.00000000000E+00  0.13331847334E+02  0.13331847334E+02  0.00000000000E+00 0. -1.
          2   -1    0    0  501    0  0.00000000000E+00 -0.00000000000E+00 -0.14138568624E+04  0.14138568624E+04  0.00000000000E+00 0. -1.
         35    2    1    2    0    0  0.00000000000E+00  0.00000000000E+00 -0.14005250150E+04  0.14271887097E+04  0.27458567947E+03 0.  0.
         25    1    3    3    0    0  0.33616339575E+00  0.27234831003E+02 -0.38378516538E+03  0.40302965423E+03  0.12000000000E+03 0.  0.
         25    1    3    3    0    0 -0.33616339575E+00 -0.27234831003E+02 -0.10167398497E+04  0.10241590555E+04  0.12000000000E+03 0.  0.
<mgrwt>
<rscale>  0 0.27458568E+03</rscale>
<asrwt>0</asrwt>
<pdfrwt beam="1">  1        2 0.21751643E+00 0.27458568E+03</pdfrwt>
<pdfrwt beam="2">  1       -2 0.20510535E-02 0.27458568E+03</pdfrwt>
<totfact> 0.11309361E+04</totfact>
</mgrwt>
</event>
<event>
 5    1  0.1100736E+001  0.2750448E+03  0.7818608E-02  0.1098427E+00
          2   -1    0    0  501    0  0.00000000000E+00  0.00000000000E+00  0.23104816396E+04  0.23104816396E+04  0.00000000000E+00 0.  1.
         -2   -1    0    0    0  501 -0.00000000000E+00 -0.00000000000E+00 -0.81854814552E+01  0.81854814552E+01  0.00000000000E+00 0.  1.
         35    2    1    2    0    0  0.00000000000E+00  0.00000000000E+00  0.23022961581E+04  0.23186671210E+04  0.27504475718E+03 0.  0.
         25    1    3    3    0    0  0.72902418363E+01 -0.12410873699E+02  0.59801061978E+03  0.61010153153E+03  0.12000000000E+03 0.  0.
         25    1    3    3    0    0 -0.72902418363E+01  0.12410873699E+02  0.17042855384E+04  0.17085655895E+04  0.12000000000E+03 0.  0.
<mgrwt>
<rscale>  0 0.27504476E+03</rscale>
<asrwt>0</asrwt>
<pdfrwt beam="1">  1        2 0.35545819E+00 0.27504476E+03</pdfrwt>
<pdfrwt beam="2">  1       -2 0.12593067E-02 0.27504476E+03</pdfrwt>
<totfact> 0.77437775E+03</totfact>
</mgrwt>
</event>
<event>
 5    1  0.1100736E+001  0.2749229E+03  0.7818608E-02  0.1098495E+00
         -1   -1    0    0    0  501 -0.00000000000E+00  0.00000000000E+00  0.17711449479E+03  0.17711449479E+03  0.00000000000E+00 0.  1.
          1   -1    0    0  501    0  0.00000000000E+00 -0.00000000000E+00 -0.10668611296E+03  0.10668611296E+03  0.00000000000E+00 0.  1.
         35    2    1    2    0    0  0.00000000000E+00  0.00000000000E+00  0.70428381827E+02  0.28380060775E+03  0.27492294919E+03 0.  0.
         25    1    3    3    0    0 -0.66335979428E+00 -0.64173589199E+02  0.15171583264E+02  0.13692650049E+03  0.12000000000E+03 0.  0.
         25    1    3    3    0    0  0.66335979428E+00  0.64173589199E+02  0.55256798563E+02  0.14687410726E+03  0.12000000000E+03 0.  0.
<mgrwt>
<rscale>  0 0.27492295E+03</rscale>
<asrwt>0</asrwt>
<pdfrwt beam="1">  1        1 0.16413248E-01 0.27492295E+03</pdfrwt>
<pdfrwt beam="2">  1       -1 0.27248384E-01 0.27492295E+03</pdfrwt>
<totfact> 0.39606625E+03</totfact>
</mgrwt>
</event>
<event>
 5    1  0.1100736E+001  0.2747581E+03  0.7818608E-02  0.1098587E+00
          1   -1    0    0  501    0  0.00000000000E+00  0.00000000000E+00  0.14711210260E+04  0.14711210260E+04  0.00000000000E+00 0. -1.
         -1   -1    0    0    0  501 -0.00000000000E+00 -0.00000000000E+00 -0.12828989750E+02  0.12828989750E+02  0.00000000000E+00 0. -1.
         35    2    1    2    0    0  0.00000000000E+00  0.00000000000E+00  0.14582920363E+04  0.14839500158E+04  0.27475805039E+03 0.  0.
         25    1    3    3    0    0 -0.62932635320E+00  0.59696640286E+02  0.56631779565E+03  0.58196213844E+03  0.12000000000E+03 0.  0.
         25    1    3    3    0    0  0.62932635320E+00 -0.59696640286E+02  0.89197424064E+03  0.90198787735E+03  0.12000000000E+03 0.  0.
<mgrwt>
<rscale>  0 0.27475805E+03</rscale>
<asrwt>0</asrwt>
<pdfrwt beam="1">  1        1 0.22632618E+00 0.27475805E+03</pdfrwt>
<pdfrwt beam="2">  1       -1 0.19736919E-02 0.27475805E+03</pdfrwt>
<totfact> 0.52291984E+03</totfact>
</mgrwt>
</event>
<event>
 5    1  0.1100736E+001  0.2752631E+03  0.7818608E-02  0.1098305E+00
         -4   -1    0    0    0  501 -0.00000000000E+00  0.00000000000E+00  0.51431986656E+02  0.51431986656E+02  0.00000000000E+00 0.  1.
          4   -1    0    0  501    0  0.00000000000E+00 -0.00000000000E+00 -0.36830088608E+03  0.36830088608E+03  0.00000000000E+00 0.  1.
         35    2    1    2    0    0  0.00000000000E+00  0.00000000000E+00 -0.31686889942E+03  0.41973287273E+03  0.27526311964E+03 0.  0.
         25    1    3    3    0    0  0.58925088921E+02 -0.12164322753E+02 -0.11212567662E+03  0.17490655851E+03  0.12000000000E+03 0.  0.
         25    1    3    3    0    0 -0.58925088921E+02  0.12164322753E+02 -0.20474322280E+03  0.24482631422E+03  0.12000000000E+03 0.  0.
<mgrwt>
<rscale>  0 0.27526312E+03</rscale>
<asrwt>0</asrwt>
<pdfrwt beam="1">  1        4 0.56661676E-01 0.27526312E+03</pdfrwt>
<pdfrwt beam="2">  1       -4 0.79126132E-02 0.27526312E+03</pdfrwt>
<totfact> 0.63086288E+02</totfact>
</mgrwt>
</event>
<event>
 4    1  0.1100736E+001  0.2507765E+03  0.7818608E-02  0.1112815E+00
          2   -1    0    0  501    0  0.00000000000E+00  0.00000000000E+00  0.76840449634E+03  0.76840449634E+03  0.00000000000E+00 0. -1.
         -2   -1    0    0    0  501 -0.00000000000E+00 -0.00000000000E+00 -0.20460848534E+02  0.20460848534E+02  0.00000000000E+00 0. -1.
         25    1    1    2    0    0  0.21622317657E+02  0.10928161162E+02  0.45926930276E+03  0.47530541947E+03  0.12000000000E+03 0.  0.
         25    1    1    2    0    0 -0.21622317657E+02 -0.10928161162E+02  0.28867434505E+03  0.31355992540E+03  0.12000000000E+03 0.  0.
<mgrwt>
<rscale>  0 0.25077646E+03</rscale>
<asrwt>0</asrwt>
<pdfrwt beam="1">  1        2 0.11821605E+00 0.25077646E+03</pdfrwt>
<pdfrwt beam="2">  1       -2 0.31478234E-02 0.25077646E+03</pdfrwt>
<totfact> 0.14589165E+04</totfact>
</mgrwt>
</event>
<event>
 5    1  0.1100736E+001  0.2791605E+03  0.7818608E-02  0.1096148E+00
         -1   -1    0    0    0  501 -0.00000000000E+00  0.00000000000E+00  0.23193884767E+03  0.23193884767E+03  0.00000000000E+00 0. -1.
          1   -1    0    0  501    0  0.00000000000E+00 -0.00000000000E+00 -0.83999057530E+02  0.83999057530E+02  0.00000000000E+00 0. -1.
         35    2    1    2    0    0  0.00000000000E+00  0.00000000000E+00  0.14793979014E+03  0.31593790520E+03  0.27916048867E+03 0.  0.
         25    1    3    3    0    0  0.60715244961E+02 -0.13441061829E+02  0.34510489154E+02  0.13949185272E+03  0.12000000000E+03 0.  0.
         25    1    3    3    0    0 -0.60715244961E+02  0.13441061829E+02  0.11342930099E+03  0.17644605248E+03  0.12000000000E+03 0.  0.
<mgrwt>
<rscale>  0 0.27916049E+03</rscale>
<asrwt>0</asrwt>
<pdfrwt beam="1">  1        1 0.12922932E-01 0.27916049E+03</pdfrwt>
<pdfrwt beam="2">  1       -1 0.35682899E-01 0.27916049E+03</pdfrwt>
<totfact> 0.34206429E+03</totfact>
</mgrwt>
</event>
<event>
 5    1  0.1100736E+001  0.2753576E+03  0.7818608E-02  0.1098252E+00
         -1   -1    0    0    0  501 -0.00000000000E+00  0.00000000000E+00  0.14053521135E+03  0.14053521135E+03  0.00000000000E+00 0. -1.
          1   -1    0    0  501    0  0.00000000000E+00 -0.00000000000E+00 -0.13488040523E+03  0.13488040523E+03  0.00000000000E+00 0. -1.
         35    2    1    2    0    0  0.00000000000E+00  0.00000000000E+00  0.56548061140E+01  0.27541561658E+03  0.27535755850E+03 0.  0.
         25    1    3    3    0    0 -0.19659481864E+02 -0.50929752549E+02  0.42523443371E+02  0.13852284345E+03  0.12000000000E+03 0.  0.
         25    1    3    3    0    0  0.19659481864E+02  0.50929752549E+02 -0.36868637257E+02  0.13689277313E+03  0.12000000000E+03 0.  0.
<mgrwt>
<rscale>  0 0.27535756E+03</rscale>
<asrwt>0</asrwt>
<pdfrwt beam="1">  1        1 0.20750832E-01 0.27535756E+03</pdfrwt>
<pdfrwt beam="2">  1       -1 0.21620802E-01 0.27535756E+03</pdfrwt>
<totfact> 0.42903149E+03</totfact>
</mgrwt>
</event>
<event>
 5    1  0.1100736E+001  0.2738631E+03  0.7818608E-02  0.1099089E+00
         -1   -1    0    0    0  501 -0.00000000000E+00  0.00000000000E+00  0.52397328212E+02  0.52397328212E+02  0.00000000000E+00 0.  1.
          1   -1    0    0  501    0  0.00000000000E+00 -0.00000000000E+00 -0.35784752350E+03  0.35784752350E+03  0.00000000000E+00 0.  1.
         35    2    1    2    0    0  0.00000000000E+00  0.00000000000E+00 -0.30545019529E+03  0.41024485171E+03  0.27386313471E+03 0.  0.
         25    1    3    3    0    0  0.66494204774E+01  0.49965593105E+02 -0.21644664607E+03  0.25256667611E+03  0.12000000000E+03 0.  0.
         25    1    3    3    0    0 -0.66494204774E+01 -0.49965593105E+02 -0.89003549215E+02  0.15767817560E+03  0.12000000000E+03 0.  0.
<mgrwt>
<rscale>  0 0.27386313E+03</rscale>
<asrwt>0</asrwt>
<pdfrwt beam="1">  1        1 0.55053465E-01 0.27386313E+03</pdfrwt>
<pdfrwt beam="2">  1       -1 0.80611275E-02 0.27386313E+03</pdfrwt>
<totfact> 0.59145676E+03</totfact>
</mgrwt>
</event>
<event>
 5    1  0.1100736E+001  0.2744615E+03  0.7818608E-02  0.1098753E+00
         -2   -1    0    0    0  501 -0.00000000000E+00  0.00000000000E+00  0.44787857140E+02  0.44787857140E+02  0.00000000000E+00 0. -1.
          2   -1    0    0  501    0  0.00000000000E+00 -0.00000000000E+00 -0.42047720210E+03  0.42047720210E+03  0.00000000000E+00 0. -1.
         35    2    1    2    0    0  0.00000000000E+00  0.00000000000E+00 -0.37568934496E+03  0.46526505924E+03  0.27446145710E+03 0.  0.
         25    1    3    3    0    0  0.55226269234E+02 -0.41706676728E+01 -0.25047367128E+03  0.28320380522E+03  0.12000000000E+03 0.  0.
         25    1    3    3    0    0 -0.55226269234E+02  0.41706676728E+01 -0.12521567368E+03  0.18206125402E+03  0.12000000000E+03 0.  0.
<mgrwt>
<rscale>  0 0.27446146E+03</rscale>
<asrwt>0</asrwt>
<pdfrwt beam="1">  1        2 0.64688802E-01 0.27446146E+03</pdfrwt>
<pdfrwt beam="2">  1       -2 0.68904394E-02 0.27446146E+03</pdfrwt>
<totfact> 0.89641342E+03</totfact>
</mgrwt>
</event>
<event>
 5    1  0.1100736E+001  0.2767592E+03  0.7818608E-02  0.1097472E+00
         -1   -1    0    0    0  501 -0.00000000000E+00  0.00000000000E+00  0.22201616844E+03  0.22201616844E+03  0.00000000000E+00 0.  1.
          1   -1    0    0  501    0  0.00000000000E+00 -0.00000000000E+00 -0.86250070643E+02  0.86250070643E+02  0.00000000000E+00 0.  1.
         35    2    1    2    0    0  0.00000000000E+00  0.00000000000E+00  0.13576609780E+03  0.30826623908E+03  0.27675917482E+03 0.  0.
         25    1    3    3    0    0  0.32975595041E+02 -0.60007484105E+02  0.76555458162E+02  0.15795260742E+03  0.12000000000E+03 0.  0.
         25    1    3    3    0    0 -0.32975595041E+02  0.60007484105E+02  0.59210639634E+02  0.15031363166E+03  0.12000000000E+03 0.  0.
<mgrwt>
<rscale>  0 0.27675917E+03</rscale>
<asrwt>0</asrwt>
<pdfrwt beam="1">  1        1 0.13269242E-01 0.27675917E+03</pdfrwt>
<pdfrwt beam="2">  1       -1 0.34156333E-01 0.27675917E+03</pdfrwt>
<totfact> 0.35628610E+03</totfact>
</mgrwt>
</event>
<event>
 5    1  0.1100736E+001  0.2762314E+03  0.7818608E-02  0.1097765E+00
         -2   -1    0    0    0  501 -0.00000000000E+00  0.00000000000E+00  0.45365727605E+02  0.45365727605E+02  0.00000000000E+00 0. -1.
          2   -1    0    0  501    0  0.00000000000E+00 -0.00000000000E+00 -0.42049232541E+03  0.42049232541E+03  0.00000000000E+00 0. -1.
         35    2    1    2    0    0  0.00000000000E+00  0.00000000000E+00 -0.37512659781E+03  0.46585805302E+03  0.27623135444E+03 0.  0.
         25    1    3    3    0    0 -0.50641761654E+02 -0.78486811559E+01 -0.26391718263E+03  0.29441207364E+03  0.12000000000E+03 0.  0.
         25    1    3    3    0    0  0.50641761654E+02  0.78486811559E+01 -0.11120941518E+03  0.17144597937E+03  0.12000000000E+03 0.  0.
<mgrwt>
<rscale>  0 0.27623135E+03</rscale>
<asrwt>0</asrwt>
<pdfrwt beam="1">  1        2 0.64691129E-01 0.27623135E+03</pdfrwt>
<pdfrwt beam="2">  1       -2 0.69793425E-02 0.27623135E+03</pdfrwt>
<totfact> 0.87898586E+03</totfact>
</mgrwt>
</event>
<event>
 5    1  0.1100736E+001  0.2750909E+03  0.7818608E-02  0.1098401E+00
          2   -1    0    0  501    0  0.00000000000E+00  0.00000000000E+00  0.43119610827E+03  0.43119610827E+03  0.00000000000E+00 0.  1.
         -2   -1    0    0    0  501 -0.00000000000E+00 -0.00000000000E+00 -0.43875045993E+02  0.43875045993E+02  0.00000000000E+00 0.  1.
         35    2    1    2    0    0  0.00000000000E+00  0.00000000000E+00  0.38732106228E+03  0.47507115427E+03  0.27509088740E+03 0.  0.
         25    1    3    3    0    0  0.39021557259E+02  0.48832901252E+01  0.99509955602E+02  0.16077549477E+03  0.12000000000E+03 0.  0.
         25    1    3    3    0    0 -0.39021557259E+02 -0.48832901252E+01  0.28781110668E+03  0.31429565950E+03  0.12000000000E+03 0.  0.
<mgrwt>
<rscale>  0 0.27509089E+03</rscale>
<asrwt>0</asrwt>
<pdfrwt beam="1">  1        2 0.66337860E-01 0.27509089E+03</pdfrwt>
<pdfrwt beam="2">  1       -2 0.67500074E-02 0.27509089E+03</pdfrwt>
<totfact> 0.90035849E+03</totfact>
</mgrwt>
</event>
<event>
 5    1  0.1100736E+001  0.2721025E+03  0.7818608E-02  0.1100082E+00
         -1   -1    0    0    0  501 -0.00000000000E+00  0.00000000000E+00  0.29634466255E+02  0.29634466255E+02  0.00000000000E+00 0.  1.
          1   -1    0    0  501    0  0.00000000000E+00 -0.00000000000E+00 -0.62460841646E+03  0.62460841646E+03  0.00000000000E+00 0.  1.
         35    2    1    2    0    0  0.00000000000E+00  0.00000000000E+00 -0.59497395020E+03  0.65424288271E+03  0.27210245894E+03 0.  0.
         25    1    3    3    0    0  0.14801020580E+02  0.47770425616E+02 -0.39392865323E+03  0.41482631017E+03  0.12000000000E+03 0.  0.
         25    1    3    3    0    0 -0.14801020580E+02 -0.47770425616E+02 -0.20104529698E+03  0.23941657255E+03  0.12000000000E+03 0.  0.
<mgrwt>
<rscale>  0 0.27210246E+03</rscale>
<asrwt>0</asrwt>
<pdfrwt beam="1">  1        1 0.96093588E-01 0.27210246E+03</pdfrwt>
<pdfrwt beam="2">  1       -1 0.45591493E-02 0.27210246E+03</pdfrwt>
<totfact> 0.66931264E+03</totfact>
</mgrwt>
</event>
<event>
 5    1  0.1100736E+001  0.2730729E+03  0.7818608E-02  0.1099534E+00
          2   -1    0    0  501    0  0.00000000000E+00  0.00000000000E+00  0.55370527631E+03  0.55370527631E+03  0.00000000000E+00 0.  1.
         -2   -1    0    0    0  501 -0.00000000000E+00 -0.00000000000E+00 -0.33668086419E+02  0.33668086419E+02  0.00000000000E+00 0.  1.
         35    2    1    2    0    0  0.00000000000E+00  0.00000000000E+00  0.52003718990E+03  0.58737336273E+03  0.27307286276E+03 0.  0.
         25    1    3    3    0    0  0.47165001255E+02 -0.43822400281E+02  0.23880588751E+03  0.27490578753E+03  0.12000000000E+03 0.  0.
         25    1    3    3    0    0 -0.47165001255E+02  0.43822400281E+02  0.28123130238E+03  0.31246757520E+03  0.12000000000E+03 0.  0.
<mgrwt>
<rscale>  0 0.27307286E+03</rscale>
<asrwt>0</asrwt>
<pdfrwt beam="1">  1        2 0.85185420E-01 0.27307286E+03</pdfrwt>
<pdfrwt beam="2">  1       -2 0.51797060E-02 0.27307286E+03</pdfrwt>
<totfact> 0.10219967E+04</totfact>
</mgrwt>
</event>
<event>
 5    1  0.1100736E+001  0.2747758E+03  0.7818608E-02  0.1098577E+00
         -2   -1    0    0    0  501 -0.00000000000E+00  0.00000000000E+00  0.23589371941E+02  0.23589371941E+02  0.00000000000E+00 0. -1.
          2   -1    0    0  501    0  0.00000000000E+00 -0.00000000000E+00 -0.80016715555E+03  0.80016715555E+03  0.00000000000E+00 0. -1.
         35    2    1    2    0    0  0.00000000000E+00  0.00000000000E+00 -0.77657778361E+03  0.82375652749E+03  0.27477584062E+03 0.  0.
         25    1    3    3    0    0 -0.63540445840E+02 -0.20141228043E+02 -0.37122881326E+03  0.39579526161E+03  0.12000000000E+03 0.  0.
         25    1    3    3    0    0  0.63540445840E+02  0.20141228043E+02 -0.40534897036E+03  0.42796126588E+03  0.12000000000E+03 0.  0.
<mgrwt>
<rscale>  0 0.27477584E+03</rscale>
<asrwt>0</asrwt>
<pdfrwt beam="1">  1        2 0.12310262E+00 0.27477584E+03</pdfrwt>
<pdfrwt beam="2">  1       -2 0.36291348E-02 0.27477584E+03</pdfrwt>
<totfact> 0.11249845E+04</totfact>
</mgrwt>
</event>
<event>
 5    1  0.1100736E+001  0.2744027E+03  0.7818608E-02  0.1098786E+00
         -2   -1    0    0    0  501 -0.00000000000E+00  0.00000000000E+00  0.30462193898E+02  0.30462193898E+02  0.00000000000E+00 0. -1.
          2   -1    0    0  501    0  0.00000000000E+00 -0.00000000000E+00 -0.61795299715E+03  0.61795299715E+03  0.00000000000E+00 0. -1.
         35    2    1    2    0    0  0.00000000000E+00  0.00000000000E+00 -0.58749080325E+03  0.64841519105E+03  0.27440265319E+03 0.  0.
         25    1    3    3    0    0 -0.22591435969E+02 -0.62531828957E+02 -0.28926103616E+03  0.32014457618E+03  0.12000000000E+03 0.  0.
         25    1    3    3    0    0  0.22591435969E+02  0.62531828957E+02 -0.29822976709E+03  0.32827061487E+03  0.12000000000E+03 0.  0.
<mgrwt>
<rscale>  0 0.27440265E+03</rscale>
<asrwt>0</asrwt>
<pdfrwt beam="1">  1        2 0.95069680E-01 0.27440265E+03</pdfrwt>
<pdfrwt beam="2">  1       -2 0.46864920E-02 0.27440265E+03</pdfrwt>
<totfact> 0.10482744E+04</totfact>
</mgrwt>
</event>
<event>
 5    1  0.1100736E+001  0.2739739E+03  0.7818608E-02  0.1099027E+00
         -2   -1    0    0    0  501 -0.00000000000E+00  0.00000000000E+00  0.11128775364E+02  0.11128775364E+02  0.00000000000E+00 0. -1.
          2   -1    0    0  501    0  0.00000000000E+00 -0.00000000000E+00 -0.16862076308E+04  0.16862076308E+04  0.00000000000E+00 0. -1.
         35    2    1    2    0    0  0.00000000000E+00  0.00000000000E+00 -0.16750788555E+04  0.16973364062E+04  0.27397391073E+03 0.  0.
         25    1    3    3    0    0 -0.30156556568E+02 -0.58623270964E+02 -0.86477044290E+03  0.87554213189E+03  0.12000000000E+03 0.  0.
         25    1    3    3    0    0  0.30156556568E+02  0.58623270964E+02 -0.81030841258E+03  0.82179427432E+03  0.12000000000E+03 0.  0.
<mgrwt>
<rscale>  0 0.27397391E+03</rscale>
<asrwt>0</asrwt>
<pdfrwt beam="1">  1        2 0.25941637E+00 0.27397391E+03</pdfrwt>
<pdfrwt beam="2">  1       -2 0.17121205E-02 0.27397391E+03</pdfrwt>
<totfact> 0.10555950E+04</totfact>
</mgrwt>
</event>
<event>
 5    1  0.1100736E+001  0.2744484E+03  0.7818608E-02  0.1098760E+00
         -1   -1    0    0    0  501 -0.00000000000E+00  0.00000000000E+00  0.10832024077E+03  0.10832024077E+03  0.00000000000E+00 0. -1.
          1   -1    0    0  501    0  0.00000000000E+00 -0.00000000000E+00 -0.17384080846E+03  0.17384080846E+03  0.00000000000E+00 0. -1.
         35    2    1    2    0    0  0.00000000000E+00  0.00000000000E+00 -0.65520567691E+02  0.28216104923E+03  0.27444837932E+03 0.  0.
         25    1    3    3    0    0  0.40936992947E+02  0.64930458719E+01  0.20784819220E+02  0.12864682564E+03  0.12000000000E+03 0.  0.
         25    1    3    3    0    0 -0.40936992947E+02 -0.64930458719E+01 -0.86305386911E+02  0.15351422360E+03  0.12000000000E+03 0.  0.
<mgrwt>
<rscale>  0 0.27444838E+03</rscale>
<asrwt>0</asrwt>
<pdfrwt beam="1">  1        1 0.26744740E-01 0.27444838E+03</pdfrwt>
<pdfrwt beam="2">  1       -1 0.16664652E-01 0.27444838E+03</pdfrwt>
<totfact> 0.47282873E+03</totfact>
</mgrwt>
</event>
<event>
 5    1  0.1100736E+001  0.2746478E+03  0.7818608E-02  0.1098649E+00
          2   -1    0    0  501    0  0.00000000000E+00  0.00000000000E+00  0.25827990158E+04  0.25827990158E+04  0.00000000000E+00 0.  1.
         -2   -1    0    0    0  501 -0.00000000000E+00 -0.00000000000E+00 -0.73013228105E+01  0.73013228105E+01  0.00000000000E+00 0.  1.
         35    2    1    2    0    0  0.00000000000E+00  0.00000000000E+00  0.25754976930E+04  0.25901003386E+04  0.27464776983E+03 0.  0.
         25    1    3    3    0    0  0.27873206129E+02 -0.51397440077E+02  0.98373190069E+03  0.99274723113E+03  0.12000000000E+03 0.  0.
         25    1    3    3    0    0 -0.27873206129E+02  0.51397440077E+02  0.15917657923E+04  0.15973531075E+04  0.12000000000E+03 0.  0.
<mgrwt>
<rscale>  0 0.27464777E+03</rscale>
<asrwt>0</asrwt>
<pdfrwt beam="1">  1        2 0.39735297E+00 0.27464777E+03</pdfrwt>
<pdfrwt beam="2">  1       -2 0.11232825E-02 0.27464777E+03</pdfrwt>
<totfact> 0.64997608E+03</totfact>
</mgrwt>
</event>
<event>
 5    1  0.1100736E+001  0.2754971E+03  0.7818608E-02  0.1098174E+00
         -1   -1    0    0    0  501 -0.00000000000E+00  0.00000000000E+00  0.28017438996E+02  0.28017438996E+02  0.00000000000E+00 0. -1.
          1   -1    0    0  501    0  0.00000000000E+00 -0.00000000000E+00 -0.67724480569E+03  0.67724480569E+03  0.00000000000E+00 0. -1.
         35    2    1    2    0    0  0.00000000000E+00  0.00000000000E+00 -0.64922736669E+03  0.70526224468E+03  0.27549711453E+03 0.  0.
         25    1    3    3    0    0  0.19694961535E+02  0.37688446482E+02 -0.45925783632E+03  0.47657745512E+03  0.12000000000E+03 0.  0.
         25    1    3    3    0    0 -0.19694961535E+02 -0.37688446482E+02 -0.18996953037E+03  0.22868478956E+03  0.12000000000E+03 0.  0.
<mgrwt>
<rscale>  0 0.27549711E+03</rscale>
<asrwt>0</asrwt>
<pdfrwt beam="1">  1        1 0.10419151E+00 0.27549711E+03</pdfrwt>
<pdfrwt beam="2">  1       -1 0.43103752E-02 0.27549711E+03</pdfrwt>
<totfact> 0.64881961E+03</totfact>
</mgrwt>
</event>
<event>
 5    1  0.1100736E+001  0.2751546E+03  0.7818608E-02  0.1098365E+00
          1   -1    0    0  501    0  0.00000000000E+00  0.00000000000E+00  0.43374990171E+02  0.43374990171E+02  0.00000000000E+00 0.  1.
         -1   -1    0    0    0  501 -0.00000000000E+00 -0.00000000000E+00 -0.43636923091E+03  0.43636923091E+03  0.00000000000E+00 0.  1.
         35    2    1    2    0    0  0.00000000000E+00  0.00000000000E+00 -0.39299424074E+03  0.47974422108E+03  0.27515458275E+03 0.  0.
         25    1    3    3    0    0  0.61627507047E+02  0.19896873774E+02 -0.22834609213E+03  0.26596197661E+03  0.12000000000E+03 0.  0.
         25    1    3    3    0    0 -0.61627507047E+02 -0.19896873774E+02 -0.16464814861E+03  0.21378224447E+03  0.12000000000E+03 0.  0.
<mgrwt>
<rscale>  0 0.27515458E+03</rscale>
<asrwt>0</asrwt>
<pdfrwt beam="1">  1        1 0.66730754E-02 0.27515458E+03</pdfrwt>
<pdfrwt beam="2">  1       -1 0.67133728E-01 0.27515458E+03</pdfrwt>
<totfact> 0.25938864E+03</totfact>
</mgrwt>
</event>
<event>
 5    1  0.1100736E+001  0.2750637E+03  0.7818608E-02  0.1098416E+00
         -2   -1    0    0    0  501 -0.00000000000E+00  0.00000000000E+00  0.18771778202E+02  0.18771778202E+02  0.00000000000E+00 0. -1.
          2   -1    0    0  501    0  0.00000000000E+00 -0.00000000000E+00 -0.10076299000E+04  0.10076299000E+04  0.00000000000E+00 0. -1.
         35    2    1    2    0    0  0.00000000000E+00  0.00000000000E+00 -0.98885812177E+03  0.10264016782E+04  0.27506366530E+03 0.  0.
         25    1    3    3    0    0  0.33368061378E+02 -0.35944705532E+02 -0.66581674778E+03  0.67831953458E+03  0.12000000000E+03 0.  0.
         25    1    3    3    0    0 -0.33368061378E+02  0.35944705532E+02 -0.32304137399E+03  0.34808214359E+03  0.12000000000E+03 0.  0.
<mgrwt>
<rscale>  0 0.27506367E+03</rscale>
<asrwt>0</asrwt>
<pdfrwt beam="1">  1        2 0.15501994E+00 0.27506367E+03</pdfrwt>
<pdfrwt beam="2">  1       -2 0.28879667E-02 0.27506367E+03</pdfrwt>
<totfact> 0.11616516E+04</totfact>
</mgrwt>
</event>
<event>
 5    1  0.1100736E+001  0.2751428E+03  0.7818608E-02  0.1098372E+00
         -1   -1    0    0    0  501 -0.00000000000E+00  0.00000000000E+00  0.15881544667E+02  0.15881544667E+02  0.00000000000E+00 0.  1.
          1   -1    0    0  501    0  0.00000000000E+00 -0.00000000000E+00 -0.11916905966E+04  0.11916905966E+04  0.00000000000E+00 0.  1.
         35    2    1    2    0    0  0.00000000000E+00  0.00000000000E+00 -0.11758090520E+04  0.12075721413E+04  0.27514278067E+03 0.  0.
         25    1    3    3    0    0 -0.49352024674E+02  0.27294616593E+02 -0.74887993280E+03  0.76052729877E+03  0.12000000000E+03 0.  0.
         25    1    3    3    0    0  0.49352024674E+02 -0.27294616593E+02 -0.42692911918E+03  0.44704484254E+03  0.12000000000E+03 0.  0.
<mgrwt>
<rscale>  0 0.27514278E+03</rscale>
<asrwt>0</asrwt>
<pdfrwt beam="1">  1        1 0.18333703E+00 0.27514278E+03</pdfrwt>
<pdfrwt beam="2">  1       -1 0.24433143E-02 0.27514278E+03</pdfrwt>
<totfact> 0.59273755E+03</totfact>
</mgrwt>
</event>
<event>
 5    1  0.1100736E+001  0.2755061E+03  0.7818608E-02  0.1098169E+00
         -3   -1    0    0    0  501 -0.00000000000E+00  0.00000000000E+00  0.22508854303E+02  0.22508854303E+02  0.00000000000E+00 0. -1.
          3   -1    0    0  501    0  0.00000000000E+00 -0.00000000000E+00 -0.84304196392E+03  0.84304196392E+03  0.00000000000E+00 0. -1.
         35    2    1    2    0    0  0.00000000000E+00  0.00000000000E+00 -0.82053310962E+03  0.86555081823E+03  0.27550614322E+03 0.  0.
         25    1    3    3    0    0  0.13465204043E+02  0.36163956977E+02 -0.58481383426E+03  0.59824440176E+03  0.12000000000E+03 0.  0.
         25    1    3    3    0    0 -0.13465204043E+02 -0.36163956977E+02 -0.23571927536E+03  0.26730641646E+03  0.12000000000E+03 0.  0.
<mgrwt>
<rscale>  0 0.27550614E+03</rscale>
<asrwt>0</asrwt>
<pdfrwt beam="1">  1        3 0.12969876E+00 0.27550614E+03</pdfrwt>
<pdfrwt beam="2">  1       -3 0.34629008E-02 0.27550614E+03</pdfrwt>
<totfact> 0.50786591E+02</totfact>
</mgrwt>
</event>
<event>
 5    1  0.1100736E+001  0.2746572E+03  0.7818608E-02  0.1098643E+00
          4   -1    0    0  501    0  0.00000000000E+00  0.00000000000E+00  0.10954137415E+03  0.10954137415E+03  0.00000000000E+00 0. -1.
         -4   -1    0    0    0  501 -0.00000000000E+00 -0.00000000000E+00 -0.17216458980E+03  0.17216458980E+03  0.00000000000E+00 0. -1.
         35    2    1    2    0    0  0.00000000000E+00  0.00000000000E+00 -0.62623215650E+02  0.28170596396E+03  0.27465720997E+03 0.  0.
         25    1    3    3    0    0  0.25271424224E+02 -0.61408685063E+02 -0.24097299337E+02  0.13924924172E+03  0.12000000000E+03 0.  0.
         25    1    3    3    0    0 -0.25271424224E+02  0.61408685063E+02 -0.38525916313E+02  0.14245672224E+03  0.12000000000E+03 0.  0.
<mgrwt>
<rscale>  0 0.27465721E+03</rscale>
<asrwt>0</asrwt>
<pdfrwt beam="1">  1        4 0.16852519E-01 0.27465721E+03</pdfrwt>
<pdfrwt beam="2">  1       -4 0.26486860E-01 0.27465721E+03</pdfrwt>
<totfact> 0.77376572E+02</totfact>
</mgrwt>
</event>
<event>
 5    1  0.1100736E+001  0.2750985E+03  0.7818608E-02  0.1098397E+00
          2   -1    0    0  501    0  0.00000000000E+00  0.00000000000E+00  0.13018335979E+03  0.13018335979E+03  0.00000000000E+00 0. -1.
         -2   -1    0    0    0  501 -0.00000000000E+00 -0.00000000000E+00 -0.14533191688E+03  0.14533191688E+03  0.00000000000E+00 0. -1.
         35    2    1    2    0    0  0.00000000000E+00  0.00000000000E+00 -0.15148557085E+02  0.27551527667E+03  0.27509850763E+03 0.  0.
         25    1    3    3    0    0 -0.32690721590E+02 -0.58729045542E+02 -0.61532717286E+01  0.13767950763E+03  0.12000000000E+03 0.  0.
         25    1    3    3    0    0  0.32690721590E+02  0.58729045542E+02 -0.89952853561E+01  0.13783576904E+03  0.12000000000E+03 0.  0.
<mgrwt>
<rscale>  0 0.27509851E+03</rscale>
<asrwt>0</asrwt>
<pdfrwt beam="1">  1        2 0.20028209E-01 0.27509851E+03</pdfrwt>
<pdfrwt beam="2">  1       -2 0.22358756E-01 0.27509851E+03</pdfrwt>
<totfact> 0.47685363E+03</totfact>
</mgrwt>
</event>
<event>
 5    1  0.1100736E+001  0.2770789E+03  0.7818608E-02  0.1097295E+00
         -2   -1    0    0    0  501 -0.00000000000E+00  0.00000000000E+00  0.12327428902E+03  0.12327428902E+03  0.00000000000E+00 0.  1.
          2   -1    0    0  501    0  0.00000000000E+00 -0.00000000000E+00 -0.15569493610E+03  0.15569493610E+03  0.00000000000E+00 0.  1.
         35    2    1    2    0    0  0.00000000000E+00  0.00000000000E+00 -0.32420647076E+02  0.27896922512E+03  0.27707892415E+03 0.  0.
         25    1    3    3    0    0  0.36378934524E+02  0.56809474164E+02 -0.31887012150E+02  0.14130649233E+03  0.12000000000E+03 0.  0.
         25    1    3    3    0    0 -0.36378934524E+02 -0.56809474164E+02 -0.53363492636E+00  0.13766273279E+03  0.12000000000E+03 0.  0.
<mgrwt>
<rscale>  0 0.27707892E+03</rscale>
<asrwt>0</asrwt>
<pdfrwt beam="1">  1        2 0.23953067E-01 0.27707892E+03</pdfrwt>
<pdfrwt beam="2">  1       -2 0.18965275E-01 0.27707892E+03</pdfrwt>
<totfact> 0.51662541E+03</totfact>
</mgrwt>
</event>
<event>
 5    1  0.1100736E+001  0.2747504E+03  0.7818608E-02  0.1098591E+00
          2   -1    0    0  501    0  0.00000000000E+00  0.00000000000E+00  0.33030284881E+03  0.33030284881E+03  0.00000000000E+00 0.  1.
         -2   -1    0    0    0  501 -0.00000000000E+00 -0.00000000000E+00 -0.57135293720E+02  0.57135293720E+02  0.00000000000E+00 0.  1.
         35    2    1    2    0    0  0.00000000000E+00  0.00000000000E+00  0.27316755509E+03  0.38743814253E+03  0.27475043427E+03 0.  0.
         25    1    3    3    0    0  0.66033665513E+02  0.84420598738E+01  0.14552869612E+03  0.20002578521E+03  0.12000000000E+03 0.  0.
         25    1    3    3    0    0 -0.66033665513E+02 -0.84420598738E+01  0.12763885897E+03  0.18741235732E+03  0.12000000000E+03 0.  0.
<mgrwt>
<rscale>  0 0.27475043E+03</rscale>
<asrwt>0</asrwt>
<pdfrwt beam="1">  1        2 0.50815822E-01 0.27475043E+03</pdfrwt>
<pdfrwt beam="2">  1       -2 0.87900454E-02 0.27475043E+03</pdfrwt>
<totfact> 0.79641694E+03</totfact>
</mgrwt>
</event>
<event>
 5    1  0.1100736E+001  0.2750268E+03  0.7818608E-02  0.1098437E+00
          2   -1    0    0  501    0  0.00000000000E+00  0.00000000000E+00  0.27603338092E+03  0.27603338092E+03  0.00000000000E+00 0.  1.
         -2   -1    0    0    0  501 -0.00000000000E+00 -0.00000000000E+00 -0.68505982039E+02  0.68505982039E+02  0.00000000000E+00 0.  1.
         35    2    1    2    0    0  0.00000000000E+00  0.00000000000E+00  0.20752739888E+03  0.34453936296E+03  0.27502681931E+03 0.  0.
         25    1    3    3    0    0 -0.42294417895E+02  0.37720896078E+02  0.14890183776E+03  0.19945786792E+03  0.12000000000E+03 0.  0.
         25    1    3    3    0    0  0.42294417895E+02 -0.37720896078E+02  0.58625561115E+02  0.14508149504E+03  0.12000000000E+03 0.  0.
<mgrwt>
<rscale>  0 0.27502682E+03</rscale>
<asrwt>0</asrwt>
<pdfrwt beam="1">  1        2 0.42466673E-01 0.27502682E+03</pdfrwt>
<pdfrwt beam="2">  1       -2 0.10539382E-01 0.27502682E+03</pdfrwt>
<totfact> 0.72461978E+03</totfact>
</mgrwt>
</event>
<event>
 5    1  0.1100736E+001  0.2740550E+03  0.7818608E-02  0.1098981E+00
         -1   -1    0    0    0  501 -0.00000000000E+00  0.00000000000E+00  0.11193290990E+02  0.11193290990E+02  0.00000000000E+00 0.  1.
          1   -1    0    0  501    0  0.00000000000E+00 -0.00000000000E+00 -0.16774815901E+04  0.16774815901E+04  0.00000000000E+00 0.  1.
         35    2    1    2    0    0  0.00000000000E+00  0.00000000000E+00 -0.16662882991E+04  0.16886748811E+04  0.27405502782E+03 0.  0.
         25    1    3    3    0    0 -0.36800173209E+02 -0.49283415714E+02 -0.98324863177E+03  0.99245200372E+03  0.12000000000E+03 0.  0.
         25    1    3    3    0    0  0.36800173209E+02  0.49283415714E+02 -0.68303966734E+03  0.69622287737E+03  0.12000000000E+03 0.  0.
<mgrwt>
<rscale>  0 0.27405503E+03</rscale>
<asrwt>0</asrwt>
<pdfrwt beam="1">  1        1 0.25807412E+00 0.27405503E+03</pdfrwt>
<pdfrwt beam="2">  1       -1 0.17220446E-02 0.27405503E+03</pdfrwt>
<totfact> 0.46670095E+03</totfact>
</mgrwt>
</event>
<event>
 5    1  0.1100736E+001  0.2751889E+03  0.7818608E-02  0.1098346E+00
          1   -1    0    0  501    0  0.00000000000E+00  0.00000000000E+00  0.77740040019E+03  0.77740040019E+03  0.00000000000E+00 0.  1.
         -1   -1    0    0    0  501 -0.00000000000E+00 -0.00000000000E+00 -0.24353252896E+02  0.24353252896E+02  0.00000000000E+00 0.  1.
         35    2    1    2    0    0  0.00000000000E+00  0.00000000000E+00  0.75304714730E+03  0.80175365309E+03  0.27518887003E+03 0.  0.
         25    1    3    3    0    0  0.36884760241E+02 -0.48683280357E+02  0.45901540368E+03  0.47835728085E+03  0.12000000000E+03 0.  0.
         25    1    3    3    0    0 -0.36884760241E+02  0.48683280357E+02  0.29403174362E+03  0.32339637224E+03  0.12000000000E+03 0.  0.
<mgrwt>
<rscale>  0 0.27518887E+03</rscale>
<asrwt>0</asrwt>
<pdfrwt beam="1">  1        1 0.11960004E+00 0.27518887E+03</pdfrwt>
<pdfrwt beam="2">  1       -1 0.37466549E-02 0.27518887E+03</pdfrwt>
<totfact> 0.65164785E+03</totfact>
</mgrwt>
</event>
<event>
 5    1  0.1100736E+001  0.2747572E+03  0.7818608E-02  0.1098587E+00
         -2   -1    0    0    0  501 -0.00000000000E+00  0.00000000000E+00  0.38354053437E+03  0.38354053437E+03  0.00000000000E+00 0. -1.
          2   -1    0    0  501    0  0.00000000000E+00 -0.00000000000E+00 -0.49207001468E+02  0.49207001468E+02  0.00000000000E+00 0. -1.
         35    2    1    2    0    0  0.00000000000E+00  0.00000000000E+00  0.33433353290E+03  0.43274753583E+03  0.27475719927E+03 0.  0.
         25    1    3    3    0    0  0.60110824642E+02  0.26789651903E+02  0.14840599785E+03  0.20187951081E+03  0.12000000000E+03 0.  0.
         25    1    3    3    0    0 -0.60110824642E+02 -0.26789651903E+02  0.18592753505E+03  0.23086802502E+03  0.12000000000E+03 0.  0.
<mgrwt>
<rscale>  0 0.27475720E+03</rscale>
<asrwt>0</asrwt>
<pdfrwt beam="1">  1        2 0.75703082E-02 0.27475720E+03</pdfrwt>
<pdfrwt beam="2">  1       -2 0.59006234E-01 0.27475720E+03</pdfrwt>
<totfact> 0.24920983E+03</totfact>
</mgrwt>
</event>
<event>
 5    1  0.1100736E+001  0.2666986E+03  0.7818608E-02  0.1103184E+00
         -1   -1    0    0    0  501 -0.00000000000E+00  0.00000000000E+00  0.48578219370E+03  0.48578219370E+03  0.00000000000E+00 0.  1.
          1   -1    0    0  501    0  0.00000000000E+00 -0.00000000000E+00 -0.36604961476E+02  0.36604961476E+02  0.00000000000E+00 0.  1.
         35    2    1    2    0    0  0.00000000000E+00  0.00000000000E+00  0.44917723222E+03  0.52238715517E+03  0.26669862006E+03 0.  0.
         25    1    3    3    0    0  0.38560980543E+02 -0.34905523736E+01  0.13959506769E+03  0.18811144596E+03  0.12000000000E+03 0.  0.
         25    1    3    3    0    0 -0.38560980543E+02  0.34905523736E+01  0.30958216453E+03  0.33427570922E+03  0.12000000000E+03 0.  0.
<mgrwt>
<rscale>  0 0.26669862E+03</rscale>
<asrwt>0</asrwt>
<pdfrwt beam="1">  1        1 0.56315329E-02 0.26669862E+03</pdfrwt>
<pdfrwt beam="2">  1       -1 0.74735718E-01 0.26669862E+03</pdfrwt>
<totfact> 0.26398113E+03</totfact>
</mgrwt>
</event>
<event>
 5    1  0.1100736E+001  0.2749104E+03  0.7818608E-02  0.1098502E+00
          2   -1    0    0  501    0  0.00000000000E+00  0.00000000000E+00  0.43142721966E+03  0.43142721966E+03  0.00000000000E+00 0. -1.
         -2   -1    0    0    0  501 -0.00000000000E+00 -0.00000000000E+00 -0.43794032366E+02  0.43794032366E+02  0.00000000000E+00 0. -1.
         35    2    1    2    0    0  0.00000000000E+00  0.00000000000E+00  0.38763318730E+03  0.47522125203E+03  0.27491044085E+03 0.  0.
         25    1    3    3    0    0 -0.16801075414E+02  0.14705192183E+01  0.30597190061E+03  0.32909457991E+03  0.12000000000E+03 0.  0.
         25    1    3    3    0    0  0.16801075414E+02 -0.14705192183E+01  0.81661286687E+02  0.14612667212E+03  0.12000000000E+03 0.  0.
<mgrwt>
<rscale>  0 0.27491044E+03</rscale>
<asrwt>0</asrwt>
<pdfrwt beam="1">  1        2 0.66373415E-01 0.27491044E+03</pdfrwt>
<pdfrwt beam="2">  1       -2 0.67375437E-02 0.27491044E+03</pdfrwt>
<totfact> 0.90238040E+03</totfact>
</mgrwt>
</event>
<event>
 5    1  0.1100736E+001  0.2810518E+03  0.7818608E-02  0.1095116E+00
         -1   -1    0    0    0  501 -0.00000000000E+00  0.00000000000E+00  0.13253399254E+02  0.13253399254E+02  0.00000000000E+00 0. -1.
          1   -1    0    0  501    0  0.00000000000E+00 -0.00000000000E+00 -0.14899970731E+04  0.14899970731E+04  0.00000000000E+00 0. -1.
         35    2    1    2    0    0  0.00000000000E+00  0.00000000000E+00 -0.14767436739E+04  0.15032504724E+04  0.28105178240E+03 0.  0.
         25    1    3    3    0    0  0.43959853942E+02 -0.58393312224E+02 -0.75066029079E+03  0.76369700788E+03  0.12000000000E+03 0.  0.
         25    1    3    3    0    0 -0.43959853942E+02  0.58393312224E+02 -0.72608338310E+03  0.73955346452E+03  0.12000000000E+03 0.  0.
<mgrwt>
<rscale>  0 0.28105178E+03</rscale>
<asrwt>0</asrwt>
<pdfrwt beam="1">  1        1 0.22923039E+00 0.28105178E+03</pdfrwt>
<pdfrwt beam="2">  1       -1 0.20389839E-02 0.28105178E+03</pdfrwt>
<totfact> 0.48449543E+03</totfact>
</mgrwt>
</event>
<event>
 5    1  0.1100736E+001  0.2749221E+03  0.7818608E-02  0.1098495E+00
         -1   -1    0    0    0  501 -0.00000000000E+00  0.00000000000E+00  0.22675193217E+02  0.22675193217E+02  0.00000000000E+00 0. -1.
          1   -1    0    0  501    0  0.00000000000E+00 -0.00000000000E+00 -0.83331359166E+03  0.83331359166E+03  0.00000000000E+00 0. -1.
         35    2    1    2    0    0  0.00000000000E+00  0.00000000000E+00 -0.81063839845E+03  0.85598878488E+03  0.27492214681E+03 0.  0.
         25    1    3    3    0    0  0.13351460491E+02  0.27133781267E+02 -0.59164076413E+03  0.60444461894E+03  0.12000000000E+03 0.  0.
         25    1    3    3    0    0 -0.13351460491E+02 -0.27133781267E+02 -0.21899763432E+03  0.25154416594E+03  0.12000000000E+03 0.  0.
<mgrwt>
<rscale>  0 0.27492215E+03</rscale>
<asrwt>0</asrwt>
<pdfrwt beam="1">  1        1 0.12820206E+00 0.27492215E+03</pdfrwt>
<pdfrwt beam="2">  1       -1 0.34884921E-02 0.27492215E+03</pdfrwt>
<totfact> 0.65072024E+03</totfact>
</mgrwt>
</event>
<event>
 5    1  0.1100736E+001  0.2764958E+03  0.7818608E-02  0.1097618E+00
          1   -1    0    0  501    0  0.00000000000E+00  0.00000000000E+00  0.59704501651E+02  0.59704501651E+02  0.00000000000E+00 0. -1.
         -1   -1    0    0    0  501 -0.00000000000E+00 -0.00000000000E+00 -0.32011801567E+03  0.32011801567E+03  0.00000000000E+00 0. -1.
         35    2    1    2    0    0  0.00000000000E+00  0.00000000000E+00 -0.26041351402E+03  0.37982251732E+03  0.27649583429E+03 0.  0.
         25    1    3    3    0    0 -0.35872405055E+02  0.52177059804E+02 -0.93778774248E+02  0.16493554351E+03  0.12000000000E+03 0.  0.
         25    1    3    3    0    0  0.35872405055E+02 -0.52177059804E+02 -0.16663473977E+03  0.21488697381E+03  0.12000000000E+03 0.  0.
<mgrwt>
<rscale>  0 0.27649583E+03</rscale>
<asrwt>0</asrwt>
<pdfrwt beam="1">  1        1 0.91853079E-02 0.27649583E+03</pdfrwt>
<pdfrwt beam="2">  1       -1 0.49248926E-01 0.27649583E+03</pdfrwt>
<totfact> 0.30319086E+03</totfact>
</mgrwt>
</event>
<event>
 5    1  0.1100736E+001  0.2751041E+03  0.7818608E-02  0.1098393E+00
         -1   -1    0    0    0  501 -0.00000000000E+00  0.00000000000E+00  0.13715990521E+03  0.13715990521E+03  0.00000000000E+00 0.  1.
          1   -1    0    0  501    0  0.00000000000E+00 -0.00000000000E+00 -0.13794529277E+03  0.13794529277E+03  0.00000000000E+00 0.  1.
         35    2    1    2    0    0  0.00000000000E+00  0.00000000000E+00 -0.78538756313E+00  0.27510519797E+03  0.27510407688E+03 0.  0.
         25    1    3    3    0    0 -0.45984399211E+02 -0.10284331315E+02 -0.48353611055E+02  0.13768952082E+03  0.12000000000E+03 0.  0.
         25    1    3    3    0    0  0.45984399211E+02  0.10284331315E+02  0.47568223492E+02  0.13741567715E+03  0.12000000000E+03 0.  0.
<mgrwt>
<rscale>  0 0.27510408E+03</rscale>
<asrwt>0</asrwt>
<pdfrwt beam="1">  1        1 0.21222353E-01 0.27510408E+03</pdfrwt>
<pdfrwt beam="2">  1       -1 0.21101524E-01 0.27510408E+03</pdfrwt>
<totfact> 0.43372291E+03</totfact>
</mgrwt>
</event>
<event>
 5    1  0.1100736E+001  0.2744947E+03  0.7818608E-02  0.1098734E+00
         -2   -1    0    0    0  501 -0.00000000000E+00  0.00000000000E+00  0.64607513140E+01  0.64607513140E+01  0.00000000000E+00 0. -1.
          2   -1    0    0  501    0  0.00000000000E+00 -0.00000000000E+00 -0.29155806649E+04  0.29155806649E+04  0.00000000000E+00 0. -1.
         35    2    1    2    0    0  0.00000000000E+00  0.00000000000E+00 -0.29091199136E+04  0.29220414162E+04  0.27449474758E+03 0.  0.
         25    1    3    3    0    0  0.41963316543E+02 -0.49390551092E+02 -0.12908543937E+04  0.12980390642E+04  0.12000000000E+03 0.  0.
         25    1    3    3    0    0 -0.41963316543E+02  0.49390551092E+02 -0.16182655199E+04  0.16240023520E+04  0.12000000000E+03 0.  0.
<mgrwt>
<rscale>  0 0.27449475E+03</rscale>
<asrwt>0</asrwt>
<pdfrwt beam="1">  1        2 0.44855113E+00 0.27449475E+03</pdfrwt>
<pdfrwt beam="2">  1       -2 0.99396117E-03 0.27449475E+03</pdfrwt>
<totfact> 0.50248548E+03</totfact>
</mgrwt>
</event>
<event>
 5    1  0.1100736E+001  0.2746080E+03  0.7818608E-02  0.1098671E+00
          1   -1    0    0  501    0  0.00000000000E+00  0.00000000000E+00  0.78054229728E+03  0.78054229728E+03  0.00000000000E+00 0. -1.
         -1   -1    0    0    0  501 -0.00000000000E+00 -0.00000000000E+00 -0.24152932475E+02  0.24152932475E+02  0.00000000000E+00 0. -1.
         35    2    1    2    0    0  0.00000000000E+00  0.00000000000E+00  0.75638936481E+03  0.80469522976E+03  0.27460797803E+03 0.  0.
         25    1    3    3    0    0  0.55746363308E+02  0.10642550121E+02  0.27536245910E+03  0.30568841126E+03  0.12000000000E+03 0.  0.
         25    1    3    3    0    0 -0.55746363308E+02 -0.10642550121E+02  0.48102690571E+03  0.49900681850E+03  0.12000000000E+03 0.  0.
<mgrwt>
<rscale>  0 0.27460798E+03</rscale>
<asrwt>0</asrwt>
<pdfrwt beam="1">  1        1 0.12008341E+00 0.27460798E+03</pdfrwt>
<pdfrwt beam="2">  1       -1 0.37158364E-02 0.27460798E+03</pdfrwt>
<totfact> 0.65561062E+03</totfact>
</mgrwt>
</event>
<event>
 5    1  0.1100736E+001  0.2746491E+03  0.7818608E-02  0.1098648E+00
          2   -1    0    0  501    0  0.00000000000E+00  0.00000000000E+00  0.13692278943E+04  0.13692278943E+04  0.00000000000E+00 0. -1.
         -2   -1    0    0    0  501 -0.00000000000E+00 -0.00000000000E+00 -0.13772751387E+02  0.13772751387E+02  0.00000000000E+00 0. -1.
         35    2    1    2    0    0  0.00000000000E+00  0.00000000000E+00  0.13554551429E+04  0.13830006457E+04  0.27464912437E+03 0.  0.
         25    1    3    3    0    0  0.53880533040E+02  0.51671410566E+01  0.87457860497E+03  0.88443063463E+03  0.12000000000E+03 0.  0.
         25    1    3    3    0    0 -0.53880533040E+02 -0.51671410566E+01  0.48087653791E+03  0.49857001104E+03  0.12000000000E+03 0.  0.
<mgrwt>
<rscale>  0 0.27464912E+03</rscale>
<asrwt>0</asrwt>
<pdfrwt beam="1">  1        2 0.21065034E+00 0.27464912E+03</pdfrwt>
<pdfrwt beam="2">  1       -2 0.21188859E-02 0.27464912E+03</pdfrwt>
<totfact> 0.11399862E+04</totfact>
</mgrwt>
</event>
<event>
 5    1  0.1100736E+001  0.2752493E+03  0.7818608E-02  0.1098312E+00
         -1   -1    0    0    0  501 -0.00000000000E+00  0.00000000000E+00  0.11571326679E+04  0.11571326679E+04  0.00000000000E+00 0.  1.
          1   -1    0    0  501    0  0.00000000000E+00 -0.00000000000E+00 -0.16368512345E+02  0.16368512345E+02  0.00000000000E+00 0.  1.
         35    2    1    2    0    0  0.00000000000E+00  0.00000000000E+00  0.11407641556E+04  0.11735011803E+04  0.27524927146E+03 0.  0.
         25    1    3    3    0    0 -0.62039545521E+02  0.16054922132E+02  0.48157665643E+03  0.50042256319E+03  0.12000000000E+03 0.  0.
         25    1    3    3    0    0  0.62039545521E+02 -0.16054922132E+02  0.65918749914E+03  0.67307861707E+03  0.12000000000E+03 0.  0.
<mgrwt>
<rscale>  0 0.27524927E+03</rscale>
<asrwt>0</asrwt>
<pdfrwt beam="1">  1        1 0.25182336E-02 0.27524927E+03</pdfrwt>
<pdfrwt beam="2">  1       -1 0.17802035E+00 0.27524927E+03</pdfrwt>
<totfact> 0.10304577E+03</totfact>
</mgrwt>
</event>
<event>
 5    1  0.1100736E+001  0.2749291E+03  0.7818608E-02  0.1098491E+00
         -1   -1    0    0    0  501 -0.00000000000E+00  0.00000000000E+00  0.67103120790E+02  0.67103120790E+02  0.00000000000E+00 0.  1.
          1   -1    0    0  501    0  0.00000000000E+00 -0.00000000000E+00 -0.28160395895E+03  0.28160395895E+03  0.00000000000E+00 0.  1.
         35    2    1    2    0    0  0.00000000000E+00  0.00000000000E+00 -0.21450083816E+03  0.34870707974E+03  0.27492911430E+03 0.  0.
         25    1    3    3    0    0  0.88719868358E+01 -0.11405616491E+00 -0.22947611088E+02  0.12249619592E+03  0.12000000000E+03 0.  0.
         25    1    3    3    0    0 -0.88719868358E+01  0.11405616491E+00 -0.19155322707E+03  0.22621088383E+03  0.12000000000E+03 0.  0.
<mgrwt>
<rscale>  0 0.27492911E+03</rscale>
<asrwt>0</asrwt>
<pdfrwt beam="1">  1        1 0.43323686E-01 0.27492911E+03</pdfrwt>
<pdfrwt beam="2">  1       -1 0.10323557E-01 0.27492911E+03</pdfrwt>
<totfact> 0.54704376E+03</totfact>
</mgrwt>
</event>
<event>
 5    1  0.1100736E+001  0.2677929E+03  0.7818608E-02  0.1102549E+00
         -1   -1    0    0    0  501 -0.00000000000E+00  0.00000000000E+00  0.33296739943E+02  0.33296739943E+02  0.00000000000E+00 0. -1.
          1   -1    0    0  501    0  0.00000000000E+00 -0.00000000000E+00 -0.53843873151E+03  0.53843873151E+03  0.00000000000E+00 0. -1.
         35    2    1    2    0    0  0.00000000000E+00  0.00000000000E+00 -0.50514199157E+03  0.57173547146E+03  0.26779286338E+03 0.  0.
         25    1    3    3    0    0 -0.30728521770E+02  0.18509399041E+02 -0.15149285883E+03  0.19656277923E+03  0.12000000000E+03 0.  0.
         25    1    3    3    0    0  0.30728521770E+02 -0.18509399041E+02 -0.35364913274E+03  0.37517269223E+03  0.12000000000E+03 0.  0.
<mgrwt>
<rscale>  0 0.26779286E+03</rscale>
<asrwt>0</asrwt>
<pdfrwt beam="1">  1        1 0.82836719E-01 0.26779286E+03</pdfrwt>
<pdfrwt beam="2">  1       -1 0.51225759E-02 0.26779286E+03</pdfrwt>
<totfact> 0.68931783E+03</totfact>
</mgrwt>
</event>
<event>
 5    1  0.1100736E+001  0.2739192E+03  0.7818608E-02  0.1099057E+00
          4   -1    0    0  501    0  0.00000000000E+00  0.00000000000E+00  0.72709103651E+03  0.72709103651E+03  0.00000000000E+00 0.  1.
         -4   -1    0    0    0  501 -0.00000000000E+00 -0.00000000000E+00 -0.25798598401E+02  0.25798598401E+02  0.00000000000E+00 0.  1.
         35    2    1    2    0    0  0.00000000000E+00  0.00000000000E+00  0.70129243811E+03  0.75288963491E+03  0.27391918262E+03 0.  0.
         25    1    3    3    0    0  0.12591998814E+02 -0.25852850292E+02  0.18731928376E+03  0.22431103935E+03  0.12000000000E+03 0.  0.
         25    1    3    3    0    0 -0.12591998814E+02  0.25852850292E+02  0.51397315435E+03  0.52857859557E+03  0.12000000000E+03 0.  0.
<mgrwt>
<rscale>  0 0.27391918E+03</rscale>
<asrwt>0</asrwt>
<pdfrwt beam="1">  1        4 0.11186014E+00 0.27391918E+03</pdfrwt>
<pdfrwt beam="2">  1       -4 0.39690157E-02 0.27391918E+03</pdfrwt>
<totfact> 0.42430785E+02</totfact>
</mgrwt>
</event>
<event>
 5    1  0.1100736E+001  0.2806212E+03  0.7818608E-02  0.1095350E+00
         -4   -1    0    0    0  501 -0.00000000000E+00  0.00000000000E+00  0.41379819145E+03  0.41379819145E+03  0.00000000000E+00 0. -1.
          4   -1    0    0  501    0  0.00000000000E+00 -0.00000000000E+00 -0.47576501510E+02  0.47576501510E+02  0.00000000000E+00 0. -1.
         35    2    1    2    0    0  0.00000000000E+00  0.00000000000E+00  0.36622168994E+03  0.46137469296E+03  0.28062124139E+03 0.  0.
         25    1    3    3    0    0  0.70339357192E+02 -0.17494417626E+02  0.17361038921E+03  0.22314624590E+03  0.12000000000E+03 0.  0.
         25    1    3    3    0    0 -0.70339357192E+02  0.17494417626E+02  0.19261130073E+03  0.23822844706E+03  0.12000000000E+03 0.  0.
<mgrwt>
<rscale>  0 0.28062124E+03</rscale>
<asrwt>0</asrwt>
<pdfrwt beam="1">  1        4 0.73194620E-02 0.28062124E+03</pdfrwt>
<pdfrwt beam="2">  1       -4 0.63661258E-01 0.28062124E+03</pdfrwt>
<totfact> 0.56243942E+02</totfact>
</mgrwt>
</event>
<event>
 5    1  0.1100736E+001  0.2744050E+03  0.7818608E-02  0.1098785E+00
         -1   -1    0    0    0  501 -0.00000000000E+00  0.00000000000E+00  0.16932613351E+02  0.16932613351E+02  0.00000000000E+00 0.  1.
          1   -1    0    0  501    0  0.00000000000E+00 -0.00000000000E+00 -0.11117315035E+04  0.11117315035E+04  0.00000000000E+00 0.  1.
         35    2    1    2    0    0  0.00000000000E+00  0.00000000000E+00 -0.10947988902E+04  0.11286641169E+04  0.27440495403E+03 0.  0.
         25    1    3    3    0    0  0.56490698659E+02 -0.17763364820E+02 -0.67200657734E+03  0.68520039124E+03  0.12000000000E+03 0.  0.
         25    1    3    3    0    0 -0.56490698659E+02  0.17763364820E+02 -0.42279231282E+03  0.44346372562E+03  0.12000000000E+03 0.  0.
<mgrwt>
<rscale>  0 0.27440495E+03</rscale>
<asrwt>0</asrwt>
<pdfrwt beam="1">  1        1 0.17103560E+00 0.27440495E+03</pdfrwt>
<pdfrwt beam="2">  1       -1 0.26050176E-02 0.27440495E+03</pdfrwt>
<totfact> 0.61470129E+03</totfact>
</mgrwt>
</event>
<event>
 5    1  0.1100736E+001  0.2748503E+03  0.7818608E-02  0.1098535E+00
         -2   -1    0    0    0  501 -0.00000000000E+00  0.00000000000E+00  0.17267063169E+02  0.17267063169E+02  0.00000000000E+00 0.  1.
          2   -1    0    0  501    0  0.00000000000E+00 -0.00000000000E+00 -0.10937396105E+04  0.10937396105E+04  0.00000000000E+00 0.  1.
         35    2    1    2    0    0  0.00000000000E+00  0.00000000000E+00 -0.10764725474E+04  0.11110066737E+04  0.27485029340E+03 0.  0.
         25    1    3    3    0    0  0.33087874231E+02  0.11769392133E+02 -0.30771088529E+03  0.33214351558E+03  0.12000000000E+03 0.  0.
         25    1    3    3    0    0 -0.33087874231E+02 -0.11769392133E+02 -0.76876166208E+03  0.77886315814E+03  0.12000000000E+03 0.  0.
<mgrwt>
<rscale>  0 0.27485029E+03</rscale>
<asrwt>0</asrwt>
<pdfrwt beam="1">  1        2 0.16826765E+00 0.27485029E+03</pdfrwt>
<pdfrwt beam="2">  1       -2 0.26564710E-02 0.27485029E+03</pdfrwt>
<totfact> 0.11677141E+04</totfact>
</mgrwt>
</event>
<event>
 5    1  0.1100736E+001  0.2749688E+03  0.7818608E-02  0.1098469E+00
          3   -1    0    0  501    0  0.00000000000E+00  0.00000000000E+00  0.74375796089E+02  0.74375796089E+02  0.00000000000E+00 0.  1.
         -3   -1    0    0    0  501 -0.00000000000E+00 -0.00000000000E+00 -0.25414119790E+03  0.25414119790E+03  0.00000000000E+00 0.  1.
         35    2    1    2    0    0  0.00000000000E+00  0.00000000000E+00 -0.17976540182E+03  0.32851699399E+03  0.27496875396E+03 0.  0.
         25    1    3    3    0    0 -0.66676294449E+02  0.72804596557E+01 -0.92026783237E+02  0.16543174474E+03  0.12000000000E+03 0.  0.
         25    1    3    3    0    0  0.66676294449E+02 -0.72804596557E+01 -0.87738618579E+02  0.16308524925E+03  0.12000000000E+03 0.  0.
<mgrwt>
<rscale>  0 0.27496875E+03</rscale>
<asrwt>0</asrwt>
<pdfrwt beam="1">  1        3 0.11442430E-01 0.27496875E+03</pdfrwt>
<pdfrwt beam="2">  1       -3 0.39098646E-01 0.27496875E+03</pdfrwt>
<totfact> 0.97168239E+02</totfact>
</mgrwt>
</event>
<event>
 5    1  0.1100736E+001  0.2782699E+03  0.7818608E-02  0.1096638E+00
         -1   -1    0    0    0  501 -0.00000000000E+00  0.00000000000E+00  0.91068583992E+03  0.91068583992E+03  0.00000000000E+00 0.  1.
          1   -1    0    0  501    0  0.00000000000E+00 -0.00000000000E+00 -0.21257093541E+02  0.21257093541E+02  0.00000000000E+00 0.  1.
         35    2    1    2    0    0  0.00000000000E+00  0.00000000000E+00  0.88942874637E+03  0.93194293346E+03  0.27826989838E+03 0.  0.
         25    1    3    3    0    0 -0.84232568083E+01 -0.69765682257E+02  0.42961296249E+03  0.45155896538E+03  0.12000000000E+03 0.  0.
         25    1    3    3    0    0  0.84232568083E+01  0.69765682257E+02  0.45981578389E+03  0.48038396808E+03  0.12000000000E+03 0.  0.
<mgrwt>
<rscale>  0 0.27826990E+03</rscale>
<asrwt>0</asrwt>
<pdfrwt beam="1">  1        1 0.32703228E-02 0.27826990E+03</pdfrwt>
<pdfrwt beam="2">  1       -1 0.14010548E+00 0.27826990E+03</pdfrwt>
<totfact> 0.13616448E+03</totfact>
</mgrwt>
</event>
<event>
 5    1  0.1100736E+001  0.2749143E+03  0.7818608E-02  0.1098500E+00
          3   -1    0    0  501    0  0.00000000000E+00  0.00000000000E+00  0.18154444759E+03  0.18154444759E+03  0.00000000000E+00 0. -1.
         -3   -1    0    0    0  501 -0.00000000000E+00 -0.00000000000E+00 -0.10407622742E+03  0.10407622742E+03  0.00000000000E+00 0. -1.
         35    2    1    2    0    0  0.00000000000E+00  0.00000000000E+00  0.77468220173E+02  0.28562067501E+03  0.27491425000E+03 0.  0.
         25    1    3    3    0    0 -0.36321452482E+02  0.54572196041E+02  0.24148544421E+02  0.13885432902E+03  0.12000000000E+03 0.  0.
         25    1    3    3    0    0  0.36321452482E+02 -0.54572196041E+02  0.53319675752E+02  0.14676634598E+03  0.12000000000E+03 0.  0.
<mgrwt>
<rscale>  0 0.27491425E+03</rscale>
<asrwt>0</asrwt>
<pdfrwt beam="1">  1        3 0.27929915E-01 0.27491425E+03</pdfrwt>
<pdfrwt beam="2">  1       -3 0.16011727E-01 0.27491425E+03</pdfrwt>
<totfact> 0.10338638E+03</totfact>
</mgrwt>
</event>
<event>
 5    1  0.1100736E+001  0.2744316E+03  0.7818608E-02  0.1098770E+00
         -3   -1    0    0    0  501 -0.00000000000E+00  0.00000000000E+00  0.13222082954E+02  0.13222082954E+02  0.00000000000E+00 0.  1.
          3   -1    0    0  501    0  0.00000000000E+00 -0.00000000000E+00 -0.14239946183E+04  0.14239946183E+04  0.00000000000E+00 0.  1.
         35    2    1    2    0    0  0.00000000000E+00  0.00000000000E+00 -0.14107725353E+04  0.14372167012E+04  0.27443159416E+03 0.  0.
         25    1    3    3    0    0  0.26562060901E+02 -0.60771969255E+02 -0.67699013660E+03  0.69073469609E+03  0.12000000000E+03 0.  0.
         25    1    3    3    0    0 -0.26562060901E+02  0.60771969255E+02 -0.73378239870E+03  0.74648200512E+03  0.12000000000E+03 0.  0.
<mgrwt>
<rscale>  0 0.27443159E+03</rscale>
<asrwt>0</asrwt>
<pdfrwt beam="1">  1        3 0.21907614E+00 0.27443159E+03</pdfrwt>
<pdfrwt beam="2">  1       -3 0.20341662E-02 0.27443159E+03</pdfrwt>
<totfact> 0.29069799E+02</totfact>
</mgrwt>
</event>
<event>
 5    1  0.1100736E+001  0.2741080E+03  0.7818608E-02  0.1098951E+00
         -2   -1    0    0    0  501 -0.00000000000E+00  0.00000000000E+00  0.13844605931E+02  0.13844605931E+02  0.00000000000E+00 0.  1.
          2   -1    0    0  501    0  0.00000000000E+00 -0.00000000000E+00 -0.13567590419E+04  0.13567590419E+04  0.00000000000E+00 0.  1.
         35    2    1    2    0    0  0.00000000000E+00  0.00000000000E+00 -0.13429144360E+04  0.13706036479E+04  0.27410796617E+03 0.  0.
         25    1    3    3    0    0  0.31347155663E+02 -0.56519701503E+02 -0.74334127399E+03  0.75573366370E+03  0.12000000000E+03 0.  0.
         25    1    3    3    0    0 -0.31347155663E+02  0.56519701503E+02 -0.59957316201E+03  0.61486998417E+03  0.12000000000E+03 0.  0.
<mgrwt>
<rscale>  0 0.27410797E+03</rscale>
<asrwt>0</asrwt>
<pdfrwt beam="1">  1        2 0.20873222E+00 0.27410797E+03</pdfrwt>
<pdfrwt beam="2">  1       -2 0.21299388E-02 0.27410797E+03</pdfrwt>
<totfact> 0.11491184E+04</totfact>
</mgrwt>
</event>
<event>
 5    1  0.1100736E+001  0.2750777E+03  0.7818608E-02  0.1098408E+00
          4   -1    0    0  501    0  0.00000000000E+00  0.00000000000E+00  0.89913617665E+03  0.89913617665E+03  0.00000000000E+00 0. -1.
         -4   -1    0    0    0  501 -0.00000000000E+00 -0.00000000000E+00 -0.21039015499E+02  0.21039015499E+02  0.00000000000E+00 0. -1.
         35    2    1    2    0    0  0.00000000000E+00  0.00000000000E+00  0.87809716115E+03  0.92017519214E+03  0.27507773415E+03 0.  0.
         25    1    3    3    0    0 -0.94988902896E+01  0.65809440462E+02  0.47179490953E+03  0.49133649165E+03  0.12000000000E+03 0.  0.
         25    1    3    3    0    0  0.94988902896E+01 -0.65809440462E+02  0.40630225162E+03  0.42883870049E+03  0.12000000000E+03 0.  0.
<mgrwt>
<rscale>  0 0.27507773E+03</rscale>
<asrwt>0</asrwt>
<pdfrwt beam="1">  1        4 0.13832861E+00 0.27507773E+03</pdfrwt>
<pdfrwt beam="2">  1       -4 0.32367723E-02 0.27507773E+03</pdfrwt>
<totfact> 0.34847210E+02</totfact>
</mgrwt>
</event>
<event>
 5    1  0.1100736E+001  0.2746990E+03  0.7818608E-02  0.1098620E+00
         -3   -1    0    0    0  501 -0.00000000000E+00  0.00000000000E+00  0.10779381768E+03  0.10779381768E+03  0.00000000000E+00 0. -1.
          3   -1    0    0  501    0  0.00000000000E+00 -0.00000000000E+00 -0.17500898283E+03  0.17500898283E+03  0.00000000000E+00 0. -1.
         35    2    1    2    0    0  0.00000000000E+00  0.00000000000E+00 -0.67215165156E+02  0.28280280051E+03  0.27469900901E+03 0.  0.
         25    1    3    3    0    0 -0.63844998871E+02  0.12494828454E+02 -0.49308117435E+02  0.14513302541E+03  0.12000000000E+03 0.  0.
         25    1    3    3    0    0  0.63844998871E+02 -0.12494828454E+02 -0.17907047722E+02  0.13766977510E+03  0.12000000000E+03 0.  0.
<mgrwt>
<rscale>  0 0.27469901E+03</rscale>
<asrwt>0</asrwt>
<pdfrwt beam="1">  1        3 0.26924459E-01 0.27469901E+03</pdfrwt>
<pdfrwt beam="2">  1       -3 0.16583664E-01 0.27469901E+03</pdfrwt>
<totfact> 0.10405981E+03</totfact>
</mgrwt>
</event>
<event>
 5    1  0.1100736E+001  0.2779459E+03  0.7818608E-02  0.1096816E+00
          2   -1    0    0  501    0  0.00000000000E+00  0.00000000000E+00  0.12336780081E+04  0.12336780081E+04  0.00000000000E+00 0.  1.
         -2   -1    0    0    0  501 -0.00000000000E+00 -0.00000000000E+00 -0.15655201219E+02  0.15655201219E+02  0.00000000000E+00 0.  1.
         35    2    1    2    0    0  0.00000000000E+00  0.00000000000E+00  0.12180228068E+04  0.12493332093E+04  0.27794587571E+03 0.  0.
         25    1    3    3    0    0  0.10339716541E+02  0.43072907628E+02  0.85319931803E+03  0.86273475727E+03  0.12000000000E+03 0.  0.
         25    1    3    3    0    0 -0.10339716541E+02 -0.43072907628E+02  0.36482348880E+03  0.38659845200E+03  0.12000000000E+03 0.  0.
<mgrwt>
<rscale>  0 0.27794588E+03</rscale>
<asrwt>0</asrwt>
<pdfrwt beam="1">  1        2 0.18979654E+00 0.27794588E+03</pdfrwt>
<pdfrwt beam="2">  1       -2 0.24084935E-02 0.27794588E+03</pdfrwt>
<totfact> 0.11220265E+04</totfact>
</mgrwt>
</event>
<event>
 5    1  0.1100736E+001  0.2753473E+03  0.7818608E-02  0.1098258E+00
          1   -1    0    0  501    0  0.00000000000E+00  0.00000000000E+00  0.87029747987E+02  0.87029747987E+02  0.00000000000E+00 0.  1.
         -1   -1    0    0    0  501 -0.00000000000E+00 -0.00000000000E+00 -0.21778797043E+03  0.21778797043E+03  0.00000000000E+00 0.  1.
         35    2    1    2    0    0  0.00000000000E+00  0.00000000000E+00 -0.13075822245E+03  0.30481771842E+03  0.27534728749E+03 0.  0.
         25    1    3    3    0    0 -0.29792273259E+02 -0.33374818347E+02 -0.94486259103E+01  0.12841625511E+03  0.12000000000E+03 0.  0.
         25    1    3    3    0    0  0.29792273259E+02  0.33374818347E+02 -0.12130959654E+03  0.17640146331E+03  0.12000000000E+03 0.  0.
<mgrwt>
<rscale>  0 0.27534729E+03</rscale>
<asrwt>0</asrwt>
<pdfrwt beam="1">  1        1 0.13389192E-01 0.27534729E+03</pdfrwt>
<pdfrwt beam="2">  1       -1 0.33505842E-01 0.27534729E+03</pdfrwt>
<totfact> 0.36392483E+03</totfact>
</mgrwt>
</event>
<event>
 5    1  0.1100736E+001  0.2686573E+03  0.7818608E-02  0.1102051E+00
          2   -1    0    0  501    0  0.00000000000E+00  0.00000000000E+00  0.76948840187E+02  0.76948840187E+02  0.00000000000E+00 0.  1.
         -2   -1    0    0    0  501 -0.00000000000E+00 -0.00000000000E+00 -0.23449583002E+03  0.23449583002E+03  0.00000000000E+00 0.  1.
         35    2    1    2    0    0  0.00000000000E+00  0.00000000000E+00 -0.15754698984E+03  0.31144467021E+03  0.26865726976E+03 0.  0.
         25    1    3    3    0    0 -0.47339708079E+02 -0.10932020211E+01 -0.35367783370E+02  0.13376517915E+03  0.12000000000E+03 0.  0.
         25    1    3    3    0    0  0.47339708079E+02  0.10932020211E+01 -0.12217920646E+03  0.17767949106E+03  0.12000000000E+03 0.  0.
<mgrwt>
<rscale>  0 0.26865727E+03</rscale>
<asrwt>0</asrwt>
<pdfrwt beam="1">  1        2 0.11838283E-01 0.26865727E+03</pdfrwt>
<pdfrwt beam="2">  1       -2 0.36076281E-01 0.26865727E+03</pdfrwt>
<totfact> 0.37461686E+03</totfact>
</mgrwt>
</event>
<event>
 5    1  0.1100736E+001  0.2746559E+03  0.7818608E-02  0.1098644E+00
         -2   -1    0    0    0  501 -0.00000000000E+00  0.00000000000E+00  0.23050275683E+03  0.23050275683E+03  0.00000000000E+00 0. -1.
          2   -1    0    0  501    0  0.00000000000E+00 -0.00000000000E+00 -0.81816666419E+02  0.81816666419E+02  0.00000000000E+00 0. -1.
         35    2    1    2    0    0  0.00000000000E+00  0.00000000000E+00  0.14868609041E+03  0.31231942325E+03  0.27465590956E+03 0.  0.
         25    1    3    3    0    0 -0.20007473694E+01  0.65847427125E+02  0.61934227674E+02  0.15025223861E+03  0.12000000000E+03 0.  0.
         25    1    3    3    0    0  0.20007473694E+01 -0.65847427125E+02  0.86751862734E+02  0.16206718464E+03  0.12000000000E+03 0.  0.
<mgrwt>
<rscale>  0 0.27465591E+03</rscale>
<asrwt>0</asrwt>
<pdfrwt beam="1">  1        2 0.12587180E-01 0.27465591E+03</pdfrwt>
<pdfrwt beam="2">  1       -2 0.35461962E-01 0.27465591E+03</pdfrwt>
<totfact> 0.35933160E+03</totfact>
</mgrwt>
</event>
<event>
 5    1  0.1100736E+001  0.2752521E+03  0.7818608E-02  0.1098311E+00
          1   -1    0    0  501    0  0.00000000000E+00  0.00000000000E+00  0.18409589774E+04  0.18409589774E+04  0.00000000000E+00 0. -1.
         -1   -1    0    0    0  501 -0.00000000000E+00 -0.00000000000E+00 -0.10288617621E+02  0.10288617621E+02  0.00000000000E+00 0. -1.
         35    2    1    2    0    0  0.00000000000E+00  0.00000000000E+00  0.18306703598E+04  0.18512475951E+04  0.27525205158E+03 0.  0.
         25    1    3    3    0    0 -0.55235579584E+02  0.26778427089E+02  0.72835867143E+03  0.74072559539E+03  0.12000000000E+03 0.  0.
         25    1    3    3    0    0  0.55235579584E+02 -0.26778427089E+02  0.11023116884E+04  0.11105219997E+04  0.12000000000E+03 0.  0.
<mgrwt>
<rscale>  0 0.27525205E+03</rscale>
<asrwt>0</asrwt>
<pdfrwt beam="1">  1        1 0.28322420E+00 0.27525205E+03</pdfrwt>
<pdfrwt beam="2">  1       -1 0.15828657E-02 0.27525205E+03</pdfrwt>
<totfact> 0.41300925E+03</totfact>
</mgrwt>
</event>
<event>
 5    1  0.1100736E+001  0.2742753E+03  0.7818608E-02  0.1098857E+00
          1   -1    0    0  501    0  0.00000000000E+00  0.00000000000E+00  0.23470592160E+02  0.23470592160E+02  0.00000000000E+00 0. -1.
         -1   -1    0    0    0  501 -0.00000000000E+00 -0.00000000000E+00 -0.80128906747E+03  0.80128906747E+03  0.00000000000E+00 0. -1.
         35    2    1    2    0    0  0.00000000000E+00  0.00000000000E+00 -0.77781847531E+03  0.82475965963E+03  0.27427525521E+03 0.  0.
         25    1    3    3    0    0 -0.46934157230E+02  0.22413194005E+02 -0.51295008918E+03  0.52936089803E+03  0.12000000000E+03 0.  0.
         25    1    3    3    0    0  0.46934157230E+02 -0.22413194005E+02 -0.26486838614E+03  0.29539876160E+03  0.12000000000E+03 0.  0.
<mgrwt>
<rscale>  0 0.27427526E+03</rscale>
<asrwt>0</asrwt>
<pdfrwt beam="1">  1        1 0.36108602E-02 0.27427526E+03</pdfrwt>
<pdfrwt beam="2">  1       -1 0.12327524E+00 0.27427526E+03</pdfrwt>
<totfact> 0.16261867E+03</totfact>
</mgrwt>
</event>
<event>
 5    1  0.1100736E+001  0.2750141E+03  0.7818608E-02  0.1098444E+00
         -2   -1    0    0    0  501 -0.00000000000E+00  0.00000000000E+00  0.58801079239E+02  0.58801079239E+02  0.00000000000E+00 0.  1.
          2   -1    0    0  501    0  0.00000000000E+00 -0.00000000000E+00 -0.32156198686E+03  0.32156198686E+03  0.00000000000E+00 0.  1.
         35    2    1    2    0    0  0.00000000000E+00  0.00000000000E+00 -0.26276090763E+03  0.38036306610E+03  0.27501412233E+03 0.  0.
         25    1    3    3    0    0  0.47272442833E+02 -0.17989347867E+02 -0.19245335534E+03  0.23237167312E+03  0.12000000000E+03 0.  0.
         25    1    3    3    0    0 -0.47272442833E+02  0.17989347867E+02 -0.70307552286E+02  0.14799139298E+03  0.12000000000E+03 0.  0.
<mgrwt>
<rscale>  0 0.27501412E+03</rscale>
<asrwt>0</asrwt>
<pdfrwt beam="1">  1        2 0.49471075E-01 0.27501412E+03</pdfrwt>
<pdfrwt beam="2">  1       -2 0.90463199E-02 0.27501412E+03</pdfrwt>
<totfact> 0.78350414E+03</totfact>
</mgrwt>
</event>
<event>
 5    1  0.1100736E+001  0.2705658E+03  0.7818608E-02  0.1100956E+00
         -2   -1    0    0    0  501 -0.00000000000E+00  0.00000000000E+00  0.90729326521E+01  0.90729326521E+01  0.00000000000E+00 0. -1.
          2   -1    0    0  501    0  0.00000000000E+00 -0.00000000000E+00 -0.20171490930E+04  0.20171490930E+04  0.00000000000E+00 0. -1.
         35    2    1    2    0    0  0.00000000000E+00  0.00000000000E+00 -0.20080761603E+04  0.20262220256E+04  0.27056576184E+03 0.  0.
         25    1    3    3    0    0 -0.47144668701E+02 -0.35041245852E+02 -0.84500847156E+03  0.85550559654E+03  0.12000000000E+03 0.  0.
         25    1    3    3    0    0  0.47144668701E+02  0.35041245852E+02 -0.11630676888E+04  0.11707164291E+04  0.12000000000E+03 0.  0.
<mgrwt>
<rscale>  0 0.27056576E+03</rscale>
<asrwt>0</asrwt>
<pdfrwt beam="1">  1        2 0.31033091E+00 0.27056576E+03</pdfrwt>
<pdfrwt beam="2">  1       -2 0.13958345E-02 0.27056576E+03</pdfrwt>
<totfact> 0.95363621E+03</totfact>
</mgrwt>
</event>
<event>
 5    1  0.1100736E+001  0.2752870E+03  0.7818608E-02  0.1098291E+00
          3   -1    0    0  501    0  0.00000000000E+00  0.00000000000E+00  0.99617653502E+02  0.99617653502E+02  0.00000000000E+00 0. -1.
         -3   -1    0    0    0  501 -0.00000000000E+00 -0.00000000000E+00 -0.19018448379E+03  0.19018448379E+03  0.00000000000E+00 0. -1.
         35    2    1    2    0    0  0.00000000000E+00  0.00000000000E+00 -0.90566830284E+02  0.28980213729E+03  0.27528699212E+03 0.  0.
         25    1    3    3    0    0 -0.37764504219E+02  0.51695982906E+02 -0.23023780879E+02  0.13794465163E+03  0.12000000000E+03 0.  0.
         25    1    3    3    0    0  0.37764504219E+02 -0.51695982906E+02 -0.67543049406E+02  0.15185748566E+03  0.12000000000E+03 0.  0.
<mgrwt>
<rscale>  0 0.27528699E+03</rscale>
<asrwt>0</asrwt>
<pdfrwt beam="1">  1        3 0.15325793E-01 0.27528699E+03</pdfrwt>
<pdfrwt beam="2">  1       -3 0.29259151E-01 0.27528699E+03</pdfrwt>
<totfact> 0.10232230E+03</totfact>
</mgrwt>
</event>
<event>
 5    1  0.1100736E+001  0.2753300E+03  0.7818608E-02  0.1098267E+00
          1   -1    0    0  501    0  0.00000000000E+00  0.00000000000E+00  0.32262242441E+03  0.32262242441E+03  0.00000000000E+00 0.  1.
         -1   -1    0    0    0  501 -0.00000000000E+00 -0.00000000000E+00 -0.58742526335E+02  0.58742526335E+02  0.00000000000E+00 0.  1.
         35    2    1    2    0    0  0.00000000000E+00  0.00000000000E+00  0.26387989807E+03  0.38136495074E+03  0.27533002932E+03 0.  0.
         25    1    3    3    0    0 -0.29207504319E+02 -0.59575450608E+02  0.11501292700E+03  0.17897007013E+03  0.12000000000E+03 0.  0.
         25    1    3    3    0    0  0.29207504319E+02  0.59575450608E+02  0.14886697107E+03  0.20239488062E+03  0.12000000000E+03 0.  0.
<mgrwt>
<rscale>  0 0.27533003E+03</rscale>
<asrwt>0</asrwt>
<pdfrwt beam="1">  1        1 0.49634218E-01 0.27533003E+03</pdfrwt>
<pdfrwt beam="2">  1       -1 0.90373119E-02 0.27533003E+03</pdfrwt>
<totfact> 0.56609348E+03</totfact>
</mgrwt>
</event>
<event>
 5    1  0.1100736E+001  0.2752817E+03  0.7818608E-02  0.1098294E+00
          1   -1    0    0  501    0  0.00000000000E+00  0.00000000000E+00  0.21342115739E+04  0.21342115739E+04  0.00000000000E+00 0.  1.
         -1   -1    0    0    0  501 -0.00000000000E+00 -0.00000000000E+00 -0.88768177466E+01  0.88768177466E+01  0.00000000000E+00 0.  1.
         35    2    1    2    0    0  0.00000000000E+00  0.00000000000E+00  0.21253347561E+04  0.21430883916E+04  0.27528172605E+03 0.  0.
         25    1    3    3    0    0  0.46726315996E+02 -0.41244292964E+02  0.86257935476E+03  0.87311372889E+03  0.12000000000E+03 0.  0.
         25    1    3    3    0    0 -0.46726315996E+02  0.41244292964E+02  0.12627554014E+04  0.12699746627E+04  0.12000000000E+03 0.  0.
<mgrwt>
<rscale>  0 0.27528173E+03</rscale>
<asrwt>0</asrwt>
<pdfrwt beam="1">  1        1 0.32833983E+00 0.27528173E+03</pdfrwt>
<pdfrwt beam="2">  1       -1 0.13656660E-02 0.27528173E+03</pdfrwt>
<totfact> 0.33015400E+03</totfact>
</mgrwt>
</event>
<event>
 5    1  0.1100736E+001  0.2742467E+03  0.7818608E-02  0.1098873E+00
         -2   -1    0    0    0  501 -0.00000000000E+00  0.00000000000E+00  0.14502956955E+03  0.14502956955E+03  0.00000000000E+00 0.  1.
          2   -1    0    0  501    0  0.00000000000E+00 -0.00000000000E+00 -0.12964810343E+03  0.12964810343E+03  0.00000000000E+00 0.  1.
         35    2    1    2    0    0  0.00000000000E+00  0.00000000000E+00  0.15381466120E+02  0.27467767297E+03  0.27424666731E+03 0.  0.
         25    1    3    3    0    0 -0.19391895738E+01  0.66146940708E+02  0.28219811773E+01  0.13706619495E+03  0.12000000000E+03 0.  0.
         25    1    3    3    0    0  0.19391895738E+01 -0.66146940708E+02  0.12559484942E+02  0.13761147802E+03  0.12000000000E+03 0.  0.
<mgrwt>
<rscale>  0 0.27424667E+03</rscale>
<asrwt>0</asrwt>
<pdfrwt beam="1">  1        2 0.19945862E-01 0.27424667E+03</pdfrwt>
<pdfrwt beam="2">  1       -2 0.22312241E-01 0.27424667E+03</pdfrwt>
<totfact> 0.48079276E+03</totfact>
</mgrwt>
</event>
<event>
 5    1  0.1100736E+001  0.2752725E+03  0.7818608E-02  0.1098299E+00
          1   -1    0    0  501    0  0.00000000000E+00  0.00000000000E+00  0.41403394908E+03  0.41403394908E+03  0.00000000000E+00 0. -1.
         -1   -1    0    0    0  501 -0.00000000000E+00 -0.00000000000E+00 -0.45754071225E+02  0.45754071225E+02  0.00000000000E+00 0. -1.
         35    2    1    2    0    0  0.00000000000E+00  0.00000000000E+00  0.36827987786E+03  0.45978802031E+03  0.27527251077E+03 0.  0.
         25    1    3    3    0    0  0.12292537499E+02  0.38435634818E+02  0.93953967373E+02  0.15765707243E+03  0.12000000000E+03 0.  0.
         25    1    3    3    0    0 -0.12292537499E+02 -0.38435634818E+02  0.27432591048E+03  0.30213094788E+03  0.12000000000E+03 0.  0.
<mgrwt>
<rscale>  0 0.27527251E+03</rscale>
<asrwt>0</asrwt>
<pdfrwt beam="1">  1        1 0.63697528E-01 0.27527251E+03</pdfrwt>
<pdfrwt beam="2">  1       -1 0.70390881E-02 0.27527251E+03</pdfrwt>
<totfact> 0.60355965E+03</totfact>
</mgrwt>
</event>
<event>
 5    1  0.1100736E+001  0.2739041E+03  0.7818608E-02  0.1099066E+00
          2   -1    0    0  501    0  0.00000000000E+00  0.00000000000E+00  0.24593065575E+02  0.24593065575E+02  0.00000000000E+00 0.  1.
         -2   -1    0    0    0  501 -0.00000000000E+00 -0.00000000000E+00 -0.76264832623E+03  0.76264832623E+03  0.00000000000E+00 0.  1.
         35    2    1    2    0    0  0.00000000000E+00  0.00000000000E+00 -0.73805526066E+03  0.78724139181E+03  0.27390407297E+03 0.  0.
         25    1    3    3    0    0 -0.17360017138E+02 -0.12890705702E+02 -0.54824925878E+03  0.56164471888E+03  0.12000000000E+03 0.  0.
         25    1    3    3    0    0  0.17360017138E+02  0.12890705702E+02 -0.18980600187E+03  0.22559667293E+03  0.12000000000E+03 0.  0.
<mgrwt>
<rscale>  0 0.27390407E+03</rscale>
<asrwt>0</asrwt>
<pdfrwt beam="1">  1        2 0.37835485E-02 0.27390407E+03</pdfrwt>
<pdfrwt beam="2">  1       -2 0.11733051E+00 0.27390407E+03</pdfrwt>
<totfact> 0.13396657E+03</totfact>
</mgrwt>
</event>
<event>
 5    1  0.1100736E+001  0.2748712E+03  0.7818608E-02  0.1098524E+00
         -3   -1    0    0    0  501 -0.00000000000E+00  0.00000000000E+00  0.18597923845E+04  0.18597923845E+04  0.00000000000E+00 0.  1.
          3   -1    0    0  501    0  0.00000000000E+00 -0.00000000000E+00 -0.10156261887E+02  0.10156261887E+02  0.00000000000E+00 0.  1.
         35    2    1    2    0    0  0.00000000000E+00  0.00000000000E+00  0.18496361227E+04  0.18699486464E+04  0.27487115900E+03 0.  0.
         25    1    3    3    0    0  0.23134099572E+02 -0.75472335450E+01  0.13494687023E+04  0.13550121497E+04  0.12000000000E+03 0.  0.
         25    1    3    3    0    0 -0.23134099572E+02  0.75472335450E+01  0.50016742033E+03  0.51493649672E+03  0.12000000000E+03 0.  0.
<mgrwt>
<rscale>  0 0.27487116E+03</rscale>
<asrwt>0</asrwt>
<pdfrwt beam="1">  1        3 0.15625033E-02 0.27487116E+03</pdfrwt>
<pdfrwt beam="2">  1       -3 0.28612163E+00 0.27487116E+03</pdfrwt>
<totfact> 0.18308002E+02</totfact>
</mgrwt>
</event>
<event>
 5    1  0.1100736E+001  0.2742072E+03  0.7818608E-02  0.1098896E+00
         -1   -1    0    0    0  501 -0.00000000000E+00  0.00000000000E+00  0.27437368221E+02  0.27437368221E+02  0.00000000000E+00 0. -1.
          1   -1    0    0  501    0  0.00000000000E+00 -0.00000000000E+00 -0.68510224001E+03  0.68510224001E+03  0.00000000000E+00 0. -1.
         35    2    1    2    0    0  0.00000000000E+00  0.00000000000E+00 -0.65766487178E+03  0.71253960823E+03  0.27420723862E+03 0.  0.
         25    1    3    3    0    0  0.39995899484E+02  0.51689448577E+02 -0.29967179669E+03  0.32935491009E+03  0.12000000000E+03 0.  0.
         25    1    3    3    0    0 -0.39995899484E+02 -0.51689448577E+02 -0.35799307509E+03  0.38318469813E+03  0.12000000000E+03 0.  0.
<mgrwt>
<rscale>  0 0.27420724E+03</rscale>
<asrwt>0</asrwt>
<pdfrwt beam="1">  1        1 0.10540034E+00 0.27420724E+03</pdfrwt>
<pdfrwt beam="2">  1       -1 0.42211337E-02 0.27420724E+03</pdfrwt>
<totfact> 0.65821188E+03</totfact>
</mgrwt>
</event>
<event>
 5    1  0.1100736E+001  0.2768673E+03  0.7818608E-02  0.1097412E+00
         -2   -1    0    0    0  501 -0.00000000000E+00  0.00000000000E+00  0.73766287485E+01  0.73766287485E+01  0.00000000000E+00 0.  1.
          2   -1    0    0  501    0  0.00000000000E+00 -0.00000000000E+00 -0.25979172989E+04  0.25979172989E+04  0.00000000000E+00 0.  1.
         35    2    1    2    0    0  0.00000000000E+00  0.00000000000E+00 -0.25905406702E+04  0.26052939277E+04  0.27686727097E+03 0.  0.
         25    1    3    3    0    0  0.53919455470E+02  0.36535048731E+02 -0.10803299670E+04  0.10889237600E+04  0.12000000000E+03 0.  0.
         25    1    3    3    0    0 -0.53919455470E+02 -0.36535048731E+02 -0.15102107032E+04  0.15163701677E+04  0.12000000000E+03 0.  0.
<mgrwt>
<rscale>  0 0.27686727E+03</rscale>
<asrwt>0</asrwt>
<pdfrwt beam="1">  1        2 0.39967951E+00 0.27686727E+03</pdfrwt>
<pdfrwt beam="2">  1       -2 0.11348662E-02 0.27686727E+03</pdfrwt>
<totfact> 0.62805332E+03</totfact>
</mgrwt>
</event>
<event>
 5    1  0.1100736E+001  0.2755658E+03  0.7818608E-02  0.1098136E+00
          2   -1    0    0  501    0  0.00000000000E+00  0.00000000000E+00  0.79296162527E+03  0.79296162527E+03  0.00000000000E+00 0. -1.
         -2   -1    0    0    0  501 -0.00000000000E+00 -0.00000000000E+00 -0.23940786529E+02  0.23940786529E+02  0.00000000000E+00 0. -1.
         35    2    1    2    0    0  0.00000000000E+00  0.00000000000E+00  0.76902083874E+03  0.81690241179E+03  0.27556578159E+03 0.  0.
         25    1    3    3    0    0  0.19680213516E+01  0.29085090551E+02  0.20335553885E+03  0.23791446106E+03  0.12000000000E+03 0.  0.
         25    1    3    3    0    0 -0.19680213516E+01 -0.29085090551E+02  0.56566529988E+03  0.57898795073E+03  0.12000000000E+03 0.  0.
<mgrwt>
<rscale>  0 0.27556578E+03</rscale>
<asrwt>0</asrwt>
<pdfrwt beam="1">  1        2 0.12199408E+00 0.27556578E+03</pdfrwt>
<pdfrwt beam="2">  1       -2 0.36831985E-02 0.27556578E+03</pdfrwt>
<totfact> 0.11131588E+04</totfact>
</mgrwt>
</event>
<event>
 5    1  0.1100736E+001  0.2748247E+03  0.7818608E-02  0.1098550E+00
          1   -1    0    0  501    0  0.00000000000E+00  0.00000000000E+00  0.15514343515E+02  0.15514343515E+02  0.00000000000E+00 0.  1.
         -1   -1    0    0    0  501 -0.00000000000E+00 -0.00000000000E+00 -0.12170769564E+04  0.12170769564E+04  0.00000000000E+00 0.  1.
         35    2    1    2    0    0  0.00000000000E+00  0.00000000000E+00 -0.12015626128E+04  0.12325912999E+04  0.27482467127E+03 0.  0.
         25    1    3    3    0    0  0.43181549248E+02  0.31021816252E+02 -0.41831522199E+03  0.43842288287E+03  0.12000000000E+03 0.  0.
         25    1    3    3    0    0 -0.43181549248E+02 -0.31021816252E+02 -0.78324739085E+03  0.79416841700E+03  0.12000000000E+03 0.  0.
<mgrwt>
<rscale>  0 0.27482467E+03</rscale>
<asrwt>0</asrwt>
<pdfrwt beam="1">  1        1 0.23868224E-02 0.27482467E+03</pdfrwt>
<pdfrwt beam="2">  1       -1 0.18724258E+00 0.27482467E+03</pdfrwt>
<totfact> 0.95934135E+02</totfact>
</mgrwt>
</event>
<event>
 5    1  0.1100736E+001  0.2752491E+03  0.7818608E-02  0.1098312E+00
          3   -1    0    0  501    0  0.00000000000E+00  0.00000000000E+00  0.34345829901E+03  0.34345829901E+03  0.00000000000E+00 0. -1.
         -3   -1    0    0    0  501 -0.00000000000E+00 -0.00000000000E+00 -0.55146497229E+02  0.55146497229E+02  0.00000000000E+00 0. -1.
         35    2    1    2    0    0  0.00000000000E+00  0.00000000000E+00  0.28831180178E+03  0.39860479624E+03  0.27524913903E+03 0.  0.
         25    1    3    3    0    0  0.24003508653E+02  0.61041146909E+02  0.12179919506E+03  0.18313173936E+03  0.12000000000E+03 0.  0.
         25    1    3    3    0    0 -0.24003508653E+02 -0.61041146909E+02  0.16651260672E+03  0.21547305688E+03  0.12000000000E+03 0.  0.
<mgrwt>
<rscale>  0 0.27524914E+03</rscale>
<asrwt>0</asrwt>
<pdfrwt beam="1">  1        3 0.52839737E-01 0.27524914E+03</pdfrwt>
<pdfrwt beam="2">  1       -3 0.84840767E-02 0.27524914E+03</pdfrwt>
<totfact> 0.88038222E+02</totfact>
</mgrwt>
</event>
<event>
 5    1  0.1100736E+001  0.2756503E+03  0.7818608E-02  0.1098089E+00
          1   -1    0    0  501    0  0.00000000000E+00  0.00000000000E+00  0.64145538391E+03  0.64145538391E+03  0.00000000000E+00 0.  1.
         -1   -1    0    0    0  501 -0.00000000000E+00 -0.00000000000E+00 -0.29613543265E+02  0.29613543265E+02  0.00000000000E+00 0.  1.
         35    2    1    2    0    0  0.00000000000E+00  0.00000000000E+00  0.61184184065E+03  0.67106892718E+03  0.27565026221E+03 0.  0.
         25    1    3    3    0    0 -0.24115547921E+02  0.46442655623E+02  0.41083848761E+03  0.43119223417E+03  0.12000000000E+03 0.  0.
         25    1    3    3    0    0  0.24115547921E+02 -0.46442655623E+02  0.20100335304E+03  0.23987669301E+03  0.12000000000E+03 0.  0.
<mgrwt>
<rscale>  0 0.27565026E+03</rscale>
<asrwt>0</asrwt>
<pdfrwt beam="1">  1        1 0.98685433E-01 0.27565026E+03</pdfrwt>
<pdfrwt beam="2">  1       -1 0.45559302E-02 0.27565026E+03</pdfrwt>
<totfact> 0.64556900E+03</totfact>
</mgrwt>
</event>
<event>
 5    1  0.1100736E+001  0.2766306E+03  0.7818608E-02  0.1097544E+00
          2   -1    0    0  501    0  0.00000000000E+00  0.00000000000E+00  0.54117487348E+03  0.54117487348E+03  0.00000000000E+00 0. -1.
         -2   -1    0    0    0  501 -0.00000000000E+00 -0.00000000000E+00 -0.35351080385E+02  0.35351080385E+02  0.00000000000E+00 0. -1.
         35    2    1    2    0    0  0.00000000000E+00  0.00000000000E+00  0.50582379310E+03  0.57652595387E+03  0.27663055836E+03 0.  0.
         25    1    3    3    0    0 -0.49826412534E+02 -0.17403779764E+02  0.16098548640E+03  0.20760994622E+03  0.12000000000E+03 0.  0.
         25    1    3    3    0    0  0.49826412534E+02  0.17403779764E+02  0.34483830669E+03  0.36891600765E+03  0.12000000000E+03 0.  0.
<mgrwt>
<rscale>  0 0.27663056E+03</rscale>
<asrwt>0</asrwt>
<pdfrwt beam="1">  1        2 0.83257667E-01 0.27663056E+03</pdfrwt>
<pdfrwt beam="2">  1       -2 0.54386282E-02 0.27663056E+03</pdfrwt>
<totfact> 0.97428074E+03</totfact>
</mgrwt>
</event>
<event>
 5    1  0.1100736E+001  0.2749164E+03  0.7818608E-02  0.1098498E+00
         -1   -1    0    0    0  501 -0.00000000000E+00  0.00000000000E+00  0.76197476169E+01  0.76197476169E+01  0.00000000000E+00 0.  1.
          1   -1    0    0  501    0  0.00000000000E+00 -0.00000000000E+00 -0.24797085166E+04  0.24797085166E+04  0.00000000000E+00 0.  1.
         35    2    1    2    0    0  0.00000000000E+00  0.00000000000E+00 -0.24720887690E+04  0.24873282642E+04  0.27491637317E+03 0.  0.
         25    1    3    3    0    0 -0.37111187519E+02  0.39410684951E+02 -0.87820016058E+03  0.88801236723E+03  0.12000000000E+03 0.  0.
         25    1    3    3    0    0  0.37111187519E+02 -0.39410684951E+02 -0.15938886084E+04  0.15993158970E+04  0.12000000000E+03 0.  0.
<mgrwt>
<rscale>  0 0.27491637E+03</rscale>
<asrwt>0</asrwt>
<pdfrwt beam="1">  1        1 0.38149363E+00 0.27491637E+03</pdfrwt>
<pdfrwt beam="2">  1       -1 0.11722688E-02 0.27491637E+03</pdfrwt>
<totfact> 0.24435853E+03</totfact>
</mgrwt>
</event>
<event>
 5    1  0.1100736E+001  0.2745939E+03  0.7818608E-02  0.1098679E+00
          1   -1    0    0  501    0  0.00000000000E+00  0.00000000000E+00  0.32866088855E+03  0.32866088855E+03  0.00000000000E+00 0. -1.
         -1   -1    0    0    0  501 -0.00000000000E+00 -0.00000000000E+00 -0.57355326383E+02  0.57355326383E+02  0.00000000000E+00 0. -1.
         35    2    1    2    0    0  0.00000000000E+00  0.00000000000E+00  0.27130556216E+03  0.38601621493E+03  0.27459390038E+03 0.  0.
         25    1    3    3    0    0  0.38195399294E+02  0.10879908897E+02  0.21100515780E+03  0.24596836699E+03  0.12000000000E+03 0.  0.
         25    1    3    3    0    0 -0.38195399294E+02 -0.10879908897E+02  0.60300404368E+02  0.14004784794E+03  0.12000000000E+03 0.  0.
<mgrwt>
<rscale>  0 0.27459390E+03</rscale>
<asrwt>0</asrwt>
<pdfrwt beam="1">  1        1 0.50563213E-01 0.27459390E+03</pdfrwt>
<pdfrwt beam="2">  1       -1 0.88238965E-02 0.27459390E+03</pdfrwt>
<totfact> 0.57362253E+03</totfact>
</mgrwt>
</event>
<event>
 5    1  0.1100736E+001  0.2822682E+03  0.7818608E-02  0.1094457E+00
          2   -1    0    0  501    0  0.00000000000E+00  0.00000000000E+00  0.26053464082E+03  0.26053464082E+03  0.00000000000E+00 0.  1.
         -2   -1    0    0    0  501 -0.00000000000E+00 -0.00000000000E+00 -0.76453671078E+02  0.76453671078E+02  0.00000000000E+00 0.  1.
         35    2    1    2    0    0  0.00000000000E+00  0.00000000000E+00  0.18408096974E+03  0.33698831189E+03  0.28226816847E+03 0.  0.
         25    1    3    3    0    0 -0.31857988233E+02  0.25367317472E+02  0.16621743057E+03  0.20901355563E+03  0.12000000000E+03 0.  0.
         25    1    3    3    0    0  0.31857988233E+02 -0.25367317472E+02  0.17863539167E+02  0.12797475627E+03  0.12000000000E+03 0.  0.
<mgrwt>
<rscale>  0 0.28226817E+03</rscale>
<asrwt>0</asrwt>
<pdfrwt beam="1">  1        2 0.40082252E-01 0.28226817E+03</pdfrwt>
<pdfrwt beam="2">  1       -2 0.11762103E-01 0.28226817E+03</pdfrwt>
<totfact> 0.64724876E+03</totfact>
</mgrwt>
</event>
<event>
 5    1  0.1100736E+001  0.2734695E+03  0.7818608E-02  0.1099310E+00
          2   -1    0    0  501    0  0.00000000000E+00  0.00000000000E+00  0.15650306009E+04  0.15650306009E+04  0.00000000000E+00 0. -1.
         -2   -1    0    0    0  501 -0.00000000000E+00 -0.00000000000E+00 -0.11946343912E+02  0.11946343912E+02  0.00000000000E+00 0. -1.
         35    2    1    2    0    0  0.00000000000E+00  0.00000000000E+00  0.15530842570E+04  0.15769769448E+04  0.27346951414E+03 0.  0.
         25    1    3    3    0    0 -0.90186893997E+01 -0.26100950467E+02  0.11193393156E+04  0.11260919588E+04  0.12000000000E+03 0.  0.
         25    1    3    3    0    0  0.90186893997E+01  0.26100950467E+02  0.43374494144E+03  0.45088498600E+03  0.12000000000E+03 0.  0.
<mgrwt>
<rscale>  0 0.27346951E+03</rscale>
<asrwt>0</asrwt>
<pdfrwt beam="1">  1        2 0.24077378E+00 0.27346951E+03</pdfrwt>
<pdfrwt beam="2">  1       -2 0.18379003E-02 0.27346951E+03</pdfrwt>
<totfact> 0.11025723E+04</totfact>
</mgrwt>
</event>
<event>
 5    1  0.1100736E+001  0.2751026E+03  0.7818608E-02  0.1098394E+00
          1   -1    0    0  501    0  0.00000000000E+00  0.00000000000E+00  0.40661437551E+03  0.40661437551E+03  0.00000000000E+00 0.  1.
         -1   -1    0    0    0  501 -0.00000000000E+00 -0.00000000000E+00 -0.46531464368E+02  0.46531464368E+02  0.00000000000E+00 0.  1.
         35    2    1    2    0    0  0.00000000000E+00  0.00000000000E+00  0.36008291114E+03  0.45314583988E+03  0.27510261595E+03 0.  0.
         25    1    3    3    0    0 -0.56974657706E+02  0.34316305531E+02  0.19623440506E+03  0.23944031026E+03  0.12000000000E+03 0.  0.
         25    1    3    3    0    0  0.56974657706E+02 -0.34316305531E+02  0.16384850608E+03  0.21370552962E+03  0.12000000000E+03 0.  0.
<mgrwt>
<rscale>  0 0.27510262E+03</rscale>
<asrwt>0</asrwt>
<pdfrwt beam="1">  1        1 0.62556055E-01 0.27510262E+03</pdfrwt>
<pdfrwt beam="2">  1       -1 0.71586871E-02 0.27510262E+03</pdfrwt>
<totfact> 0.60214588E+03</totfact>
</mgrwt>
</event>
<event>
 5    1  0.1100736E+001  0.2755320E+03  0.7818608E-02  0.1098155E+00
         -2   -1    0    0    0  501 -0.00000000000E+00  0.00000000000E+00  0.94806436801E+03  0.94806436801E+03  0.00000000000E+00 0. -1.
          2   -1    0    0  501    0  0.00000000000E+00 -0.00000000000E+00 -0.20019182766E+02  0.20019182766E+02  0.00000000000E+00 0. -1.
         35    2    1    2    0    0  0.00000000000E+00  0.00000000000E+00  0.92804518524E+03  0.96808355077E+03  0.27553202251E+03 0.  0.
         25    1    3    3    0    0  0.60041225773E+02  0.10300504426E+02  0.36048290801E+03  0.38478432420E+03  0.12000000000E+03 0.  0.
         25    1    3    3    0    0 -0.60041225773E+02 -0.10300504426E+02  0.56756227723E+03  0.58329922657E+03  0.12000000000E+03 0.  0.
<mgrwt>
<rscale>  0 0.27553202E+03</rscale>
<asrwt>0</asrwt>
<pdfrwt beam="1">  1        2 0.30798750E-02 0.27553202E+03</pdfrwt>
<pdfrwt beam="2">  1       -2 0.14585602E+00 0.27553202E+03</pdfrwt>
<totfact> 0.10305365E+03</totfact>
</mgrwt>
</event>
<event>
 5    1  0.1100736E+001  0.2680704E+03  0.7818608E-02  0.1102389E+00
          2   -1    0    0  501    0  0.00000000000E+00  0.00000000000E+00  0.15702283043E+04  0.15702283043E+04  0.00000000000E+00 0.  1.
         -2   -1    0    0    0  501 -0.00000000000E+00 -0.00000000000E+00 -0.11441291342E+02  0.11441291342E+02  0.00000000000E+00 0.  1.
         35    2    1    2    0    0  0.00000000000E+00  0.00000000000E+00  0.15587870129E+04  0.15816695956E+04  0.26807043479E+03 0.  0.
         25    1    3    3    0    0  0.26800201502E+00 -0.13152234476E+02  0.43574100886E+03  0.45215404444E+03  0.12000000000E+03 0.  0.
         25    1    3    3    0    0 -0.26800201502E+00  0.13152234476E+02  0.11230460040E+04  0.11295155512E+04  0.12000000000E+03 0.  0.
<mgrwt>
<rscale>  0 0.26807043E+03</rscale>
<asrwt>0</asrwt>
<pdfrwt beam="1">  1        2 0.24157341E+00 0.26807043E+03</pdfrwt>
<pdfrwt beam="2">  1       -2 0.17601999E-02 0.26807043E+03</pdfrwt>
<totfact> 0.11667836E+04</totfact>
</mgrwt>
</event>
<event>
 5    1  0.1100736E+001  0.2748256E+03  0.7818608E-02  0.1098549E+00
         -1   -1    0    0    0  501 -0.00000000000E+00  0.00000000000E+00  0.58223317094E+02  0.58223317094E+02  0.00000000000E+00 0.  1.
          1   -1    0    0  501    0  0.00000000000E+00 -0.00000000000E+00 -0.32430775992E+03  0.32430775992E+03  0.00000000000E+00 0.  1.
         35    2    1    2    0    0  0.00000000000E+00  0.00000000000E+00 -0.26608444282E+03  0.38253107701E+03  0.27482557044E+03 0.  0.
         25    1    3    3    0    0 -0.12766794527E+02 -0.61023856187E+02 -0.99079412874E+02  0.16764137950E+03  0.12000000000E+03 0.  0.
         25    1    3    3    0    0  0.12766794527E+02  0.61023856187E+02 -0.16700502995E+03  0.21488969751E+03  0.12000000000E+03 0.  0.
<mgrwt>
<rscale>  0 0.27482557E+03</rscale>
<asrwt>0</asrwt>
<pdfrwt beam="1">  1        1 0.49893501E-01 0.27482557E+03</pdfrwt>
<pdfrwt beam="2">  1       -1 0.89574335E-02 0.27482557E+03</pdfrwt>
<totfact> 0.57007495E+03</totfact>
</mgrwt>
</event>
<event>
 5    1  0.1100736E+001  0.2745539E+03  0.7818608E-02  0.1098701E+00
          2   -1    0    0  501    0  0.00000000000E+00  0.00000000000E+00  0.11615484437E+04  0.11615484437E+04  0.00000000000E+00 0. -1.
         -2   -1    0    0    0  501 -0.00000000000E+00 -0.00000000000E+00 -0.16224004540E+02  0.16224004540E+02  0.00000000000E+00 0. -1.
         35    2    1    2    0    0  0.00000000000E+00  0.00000000000E+00  0.11453244391E+04  0.11777724482E+04  0.27455394532E+03 0.  0.
         25    1    3    3    0    0 -0.39411685520E+02  0.20790567564E+01  0.34215504116E+03  0.36472959247E+03  0.12000000000E+03 0.  0.
         25    1    3    3    0    0  0.39411685520E+02 -0.20790567564E+01  0.80316939795E+03  0.81304285572E+03  0.12000000000E+03 0.  0.
<mgrwt>
<rscale>  0 0.27455395E+03</rscale>
<asrwt>0</asrwt>
<pdfrwt beam="1">  1        2 0.17869970E+00 0.27455395E+03</pdfrwt>
<pdfrwt beam="2">  1       -2 0.24960016E-02 0.27455395E+03</pdfrwt>
<totfact> 0.11693978E+04</totfact>
</mgrwt>
</event>
<event>
 5    1  0.1100736E+001  0.2754843E+03  0.7818608E-02  0.1098181E+00
          1   -1    0    0  501    0  0.00000000000E+00  0.00000000000E+00  0.17401862155E+04  0.17401862155E+04  0.00000000000E+00 0. -1.
         -1   -1    0    0    0  501 -0.00000000000E+00 -0.00000000000E+00 -0.10902800145E+02  0.10902800145E+02  0.00000000000E+00 0. -1.
         35    2    1    2    0    0  0.00000000000E+00  0.00000000000E+00  0.17292834154E+04  0.17510890157E+04  0.27548431914E+03 0.  0.
         25    1    3    3    0    0 -0.51442536788E+02  0.22308906195E+01  0.11432806577E+04  0.11507136802E+04  0.12000000000E+03 0.  0.
         25    1    3    3    0    0  0.51442536788E+02 -0.22308906195E+01  0.58600275763E+03  0.60037533545E+03  0.12000000000E+03 0.  0.
<mgrwt>
<rscale>  0 0.27548432E+03</rscale>
<asrwt>0</asrwt>
<pdfrwt beam="1">  1        1 0.26772074E+00 0.27548432E+03</pdfrwt>
<pdfrwt beam="2">  1       -1 0.16773552E-02 0.27548432E+03</pdfrwt>
<totfact> 0.44136571E+03</totfact>
</mgrwt>
</event>
<event>
 5    1  0.1100736E+001  0.2700000E+03  0.7818608E-02  0.1101280E+00
         -4   -1    0    0    0  501 -0.00000000000E+00  0.00000000000E+00  0.20172777618E+02  0.20172777618E+02  0.00000000000E+00 0. -1.
          4   -1    0    0  501    0  0.00000000000E+00 -0.00000000000E+00 -0.90344492201E+03  0.90344492201E+03  0.00000000000E+00 0. -1.
         35    2    1    2    0    0  0.00000000000E+00  0.00000000000E+00 -0.88327214440E+03  0.92361769963E+03  0.26999995187E+03 0.  0.
         25    1    3    3    0    0 -0.49712951659E+02  0.29023147238E+02 -0.51898511284E+03  0.53577912239E+03  0.12000000000E+03 0.  0.
         25    1    3    3    0    0  0.49712951659E+02 -0.29023147238E+02 -0.36428703156E+03  0.38783857725E+03  0.12000000000E+03 0.  0.
<mgrwt>
<rscale>  0 0.26999995E+03</rscale>
<asrwt>0</asrwt>
<pdfrwt beam="1">  1        4 0.13899155E+00 0.26999995E+03</pdfrwt>
<pdfrwt beam="2">  1       -4 0.31035037E-02 0.26999995E+03</pdfrwt>
<totfact> 0.36714955E+02</totfact>
</mgrwt>
</event>
<event>
 5    1  0.1100736E+001  0.2757623E+03  0.7818608E-02  0.1098026E+00
         -2   -1    0    0    0  501 -0.00000000000E+00  0.00000000000E+00  0.62601672207E+01  0.62601672207E+01  0.00000000000E+00 0. -1.
          2   -1    0    0  501    0  0.00000000000E+00 -0.00000000000E+00 -0.30368531439E+04  0.30368531439E+04  0.00000000000E+00 0. -1.
         35    2    1    2    0    0  0.00000000000E+00  0.00000000000E+00 -0.30305929767E+04  0.30431133112E+04  0.27576227810E+03 0.  0.
         25    1    3    3    0    0 -0.48110464671E+02 -0.47463459390E+02 -0.15883394554E+04  0.15942991007E+04  0.12000000000E+03 0.  0.
         25    1    3    3    0    0  0.48110464671E+02  0.47463459390E+02 -0.14422535213E+04  0.14488142105E+04  0.12000000000E+03 0.  0.
<mgrwt>
<rscale>  0 0.27576228E+03</rscale>
<asrwt>0</asrwt>
<pdfrwt beam="1">  1        2 0.46720996E+00 0.27576228E+03</pdfrwt>
<pdfrwt beam="2">  1       -2 0.96309896E-03 0.27576228E+03</pdfrwt>
<totfact> 0.44605350E+03</totfact>
</mgrwt>
</event>
<event>
 5    1  0.1100736E+001  0.2744676E+03  0.7818608E-02  0.1098750E+00
          1   -1    0    0  501    0  0.00000000000E+00  0.00000000000E+00  0.29595139882E+03  0.29595139882E+03  0.00000000000E+00 0.  1.
         -1   -1    0    0    0  501 -0.00000000000E+00 -0.00000000000E+00 -0.63635846183E+02  0.63635846183E+02  0.00000000000E+00 0.  1.
         35    2    1    2    0    0  0.00000000000E+00  0.00000000000E+00  0.23231555264E+03  0.35958724501E+03  0.27446761334E+03 0.  0.
         25    1    3    3    0    0  0.14332958263E+02  0.25906035554E+02  0.38025887551E+02  0.12931560035E+03  0.12000000000E+03 0.  0.
         25    1    3    3    0    0 -0.14332958263E+02 -0.25906035554E+02  0.19428966509E+03  0.23027164465E+03  0.12000000000E+03 0.  0.
<mgrwt>
<rscale>  0 0.27446761E+03</rscale>
<asrwt>0</asrwt>
<pdfrwt beam="1">  1        1 0.45530984E-01 0.27446761E+03</pdfrwt>
<pdfrwt beam="2">  1       -1 0.97901303E-02 0.27446761E+03</pdfrwt>
<totfact> 0.55783519E+03</totfact>
</mgrwt>
</event>
<event>
 5    1  0.1100736E+001  0.2752144E+03  0.7818608E-02  0.1098332E+00
         -2   -1    0    0    0  501 -0.00000000000E+00  0.00000000000E+00  0.80247555899E+01  0.80247555899E+01  0.00000000000E+00 0.  1.
          2   -1    0    0  501    0  0.00000000000E+00 -0.00000000000E+00 -0.23596662426E+04  0.23596662426E+04  0.00000000000E+00 0.  1.
         35    2    1    2    0    0  0.00000000000E+00  0.00000000000E+00 -0.23516414870E+04  0.23676909982E+04  0.27521442455E+03 0.  0.
         25    1    3    3    0    0  0.62561969885E+02  0.60856892560E+01 -0.13838496983E+04  0.13904643193E+04  0.12000000000E+03 0.  0.
         25    1    3    3    0    0 -0.62561969885E+02 -0.60856892560E+01 -0.96779178870E+03  0.97722667891E+03  0.12000000000E+03 0.  0.
<mgrwt>
<rscale>  0 0.27521442E+03</rscale>
<asrwt>0</asrwt>
<pdfrwt beam="1">  1        2 0.36302573E+00 0.27521442E+03</pdfrwt>
<pdfrwt beam="2">  1       -2 0.12345772E-02 0.27521442E+03</pdfrwt>
<totfact> 0.74995902E+03</totfact>
</mgrwt>
</event>
<event>
 5    1  0.1100736E+001  0.2759339E+03  0.7818608E-02  0.1097931E+00
         -2   -1    0    0    0  501 -0.00000000000E+00  0.00000000000E+00  0.56207064567E+02  0.56207064567E+02  0.00000000000E+00 0.  1.
          2   -1    0    0  501    0  0.00000000000E+00 -0.00000000000E+00 -0.33865626188E+03  0.33865626188E+03  0.00000000000E+00 0.  1.
         35    2    1    2    0    0  0.00000000000E+00  0.00000000000E+00 -0.28244919731E+03  0.39486332644E+03  0.27593386438E+03 0.  0.
         25    1    3    3    0    0 -0.57079977621E+02 -0.30642300037E+02 -0.11128267728E+03  0.17601394450E+03  0.12000000000E+03 0.  0.
         25    1    3    3    0    0  0.57079977621E+02  0.30642300037E+02 -0.17116652003E+03  0.21884938194E+03  0.12000000000E+03 0.  0.
<mgrwt>
<rscale>  0 0.27593386E+03</rscale>
<asrwt>0</asrwt>
<pdfrwt beam="1">  1        2 0.52100963E-01 0.27593386E+03</pdfrwt>
<pdfrwt beam="2">  1       -2 0.86472407E-02 0.27593386E+03</pdfrwt>
<totfact> 0.79562198E+03</totfact>
</mgrwt>
</event>
<event>
 5    1  0.1100736E+001  0.2745534E+03  0.7818608E-02  0.1098701E+00
          1   -1    0    0  501    0  0.00000000000E+00  0.00000000000E+00  0.42443140513E+03  0.42443140513E+03  0.00000000000E+00 0.  1.
         -1   -1    0    0    0  501 -0.00000000000E+00 -0.00000000000E+00 -0.44400333694E+02  0.44400333694E+02  0.00000000000E+00 0.  1.
         35    2    1    2    0    0  0.00000000000E+00  0.00000000000E+00  0.38003107144E+03  0.46883173883E+03  0.27455342663E+03 0.  0.
         25    1    3    3    0    0  0.27215057273E+02 -0.56611162524E+02  0.22817656127E+03  0.26534887635E+03  0.12000000000E+03 0.  0.
         25    1    3    3    0    0 -0.27215057273E+02  0.56611162524E+02  0.15185451017E+03  0.20348286248E+03  0.12000000000E+03 0.  0.
<mgrwt>
<rscale>  0 0.27455343E+03</rscale>
<asrwt>0</asrwt>
<pdfrwt beam="1">  1        1 0.65297137E-01 0.27455343E+03</pdfrwt>
<pdfrwt beam="2">  1       -1 0.68308208E-02 0.27455343E+03</pdfrwt>
<totfact> 0.61175821E+03</totfact>
</mgrwt>
</event>
<event>
 5    1  0.1100736E+001  0.2751868E+03  0.7818608E-02  0.1098347E+00
         -2   -1    0    0    0  501 -0.00000000000E+00  0.00000000000E+00  0.16658501261E+02  0.16658501261E+02  0.00000000000E+00 0. -1.
          2   -1    0    0  501    0  0.00000000000E+00 -0.00000000000E+00 -0.11364737007E+04  0.11364737007E+04  0.00000000000E+00 0. -1.
         35    2    1    2    0    0  0.00000000000E+00  0.00000000000E+00 -0.11198151995E+04  0.11531322020E+04  0.27518683527E+03 0.  0.
         25    1    3    3    0    0 -0.52538169599E+02  0.34692587644E+02 -0.65978542280E+03  0.67355819277E+03  0.12000000000E+03 0.  0.
         25    1    3    3    0    0  0.52538169599E+02 -0.34692587644E+02 -0.46002977666E+03  0.47957400921E+03  0.12000000000E+03 0.  0.
<mgrwt>
<rscale>  0 0.27518684E+03</rscale>
<asrwt>0</asrwt>
<pdfrwt beam="1">  1        2 0.17484214E+00 0.27518684E+03</pdfrwt>
<pdfrwt beam="2">  1       -2 0.25628459E-02 0.27518684E+03</pdfrwt>
<totfact> 0.11627223E+04</totfact>
</mgrwt>
</event>
<event>
 5    1  0.1100736E+001  0.2751869E+03  0.7818608E-02  0.1098347E+00
          1   -1    0    0  501    0  0.00000000000E+00  0.00000000000E+00  0.96731492663E+03  0.96731492663E+03  0.00000000000E+00 0.  1.
         -1   -1    0    0    0  501 -0.00000000000E+00 -0.00000000000E+00 -0.19571662501E+02  0.19571662501E+02  0.00000000000E+00 0.  1.
         35    2    1    2    0    0  0.00000000000E+00  0.00000000000E+00  0.94774326413E+03  0.98688658913E+03  0.27518692757E+03 0.  0.
         25    1    3    3    0    0  0.45495339410E+02  0.34221802690E+02  0.34501606908E+03  0.36969858752E+03  0.12000000000E+03 0.  0.
         25    1    3    3    0    0 -0.45495339410E+02 -0.34221802690E+02  0.60272719505E+03  0.61718800161E+03  0.12000000000E+03 0.  0.
<mgrwt>
<rscale>  0 0.27518693E+03</rscale>
<asrwt>0</asrwt>
<pdfrwt beam="1">  1        1 0.14881764E+00 0.27518693E+03</pdfrwt>
<pdfrwt beam="2">  1       -1 0.30110258E-02 0.27518693E+03</pdfrwt>
<totfact> 0.63463247E+03</totfact>
</mgrwt>
</event>
<event>
 5    1  0.1100736E+001  0.2704347E+03  0.7818608E-02  0.1101031E+00
          2   -1    0    0  501    0  0.00000000000E+00  0.00000000000E+00  0.16282846862E+04  0.16282846862E+04  0.00000000000E+00 0. -1.
         -2   -1    0    0    0  501 -0.00000000000E+00 -0.00000000000E+00 -0.11228827575E+02  0.11228827575E+02  0.00000000000E+00 0. -1.
         35    2    1    2    0    0  0.00000000000E+00  0.00000000000E+00  0.16170558586E+04  0.16395135137E+04  0.27043467222E+03 0.  0.
         25    1    3    3    0    0  0.37146847127E+02  0.48576941448E+02  0.73574735177E+03  0.74797310990E+03  0.12000000000E+03 0.  0.
         25    1    3    3    0    0 -0.37146847127E+02 -0.48576941448E+02  0.88130850682E+03  0.89154040384E+03  0.12000000000E+03 0.  0.
<mgrwt>
<rscale>  0 0.27043467E+03</rscale>
<asrwt>0</asrwt>
<pdfrwt beam="1">  1        2 0.25050515E+00 0.27043467E+03</pdfrwt>
<pdfrwt beam="2">  1       -2 0.17275132E-02 0.27043467E+03</pdfrwt>
<totfact> 0.11175264E+04</totfact>
</mgrwt>
</event>
<event>
 5    1  0.1100736E+001  0.2748745E+03  0.7818608E-02  0.1098522E+00
          1   -1    0    0  501    0  0.00000000000E+00  0.00000000000E+00  0.16277299538E+02  0.16277299538E+02  0.00000000000E+00 0. -1.
         -1   -1    0    0    0  501 -0.00000000000E+00 -0.00000000000E+00 -0.11604501862E+04  0.11604501862E+04  0.00000000000E+00 0. -1.
         35    2    1    2    0    0  0.00000000000E+00  0.00000000000E+00 -0.11441728867E+04  0.11767274857E+04  0.27487448248E+03 0.  0.
         25    1    3    3    0    0 -0.56263377671E+02 -0.66257086095E+01 -0.72521856576E+03  0.73725940876E+03  0.12000000000E+03 0.  0.
         25    1    3    3    0    0  0.56263377671E+02  0.66257086095E+01 -0.41895432090E+03  0.43946807698E+03  0.12000000000E+03 0.  0.
<mgrwt>
<rscale>  0 0.27487448E+03</rscale>
<asrwt>0</asrwt>
<pdfrwt beam="1">  1        1 0.25041997E-02 0.27487448E+03</pdfrwt>
<pdfrwt beam="2">  1       -1 0.17853081E+00 0.27487448E+03</pdfrwt>
<totfact> 0.10300828E+03</totfact>
</mgrwt>
</event>
<event>
 5    1  0.1100736E+001  0.2760051E+03  0.7818608E-02  0.1097891E+00
          2   -1    0    0  501    0  0.00000000000E+00  0.00000000000E+00  0.32921660582E+03  0.32921660582E+03  0.00000000000E+00 0.  1.
         -2   -1    0    0    0  501 -0.00000000000E+00 -0.00000000000E+00 -0.57848540359E+02  0.57848540359E+02  0.00000000000E+00 0.  1.
         35    2    1    2    0    0  0.00000000000E+00  0.00000000000E+00  0.27136806546E+03  0.38706514618E+03  0.27600507320E+03 0.  0.
         25    1    3    3    0    0  0.23094482716E+02  0.64079837679E+02  0.13885707367E+03  0.19575716497E+03  0.12000000000E+03 0.  0.
         25    1    3    3    0    0 -0.23094482716E+02 -0.64079837679E+02  0.13251099179E+03  0.19130798121E+03  0.12000000000E+03 0.  0.
<mgrwt>
<rscale>  0 0.27600507E+03</rscale>
<asrwt>0</asrwt>
<pdfrwt beam="1">  1        2 0.50648708E-01 0.27600507E+03</pdfrwt>
<pdfrwt beam="2">  1       -2 0.88997756E-02 0.27600507E+03</pdfrwt>
<totfact> 0.78393209E+03</totfact>
</mgrwt>
</event>
<event>
 5    1  0.1100736E+001  0.2744269E+03  0.7818608E-02  0.1098772E+00
          1   -1    0    0  501    0  0.00000000000E+00  0.00000000000E+00  0.31450177525E+02  0.31450177525E+02  0.00000000000E+00 0.  1.
         -1   -1    0    0    0  501 -0.00000000000E+00 -0.00000000000E+00 -0.59864632458E+03  0.59864632458E+03  0.00000000000E+00 0.  1.
         35    2    1    2    0    0  0.00000000000E+00  0.00000000000E+00 -0.56719614706E+03  0.63009650211E+03  0.27442691692E+03 0.  0.
         25    1    3    3    0    0 -0.24856516116E+02 -0.56318255830E+02 -0.34159040492E+03  0.36725140853E+03  0.12000000000E+03 0.  0.
         25    1    3    3    0    0  0.24856516116E+02  0.56318255830E+02 -0.22560574214E+03  0.26284509358E+03  0.12000000000E+03 0.  0.
<mgrwt>
<rscale>  0 0.27442692E+03</rscale>
<asrwt>0</asrwt>
<pdfrwt beam="1">  1        1 0.48384892E-02 0.27442692E+03</pdfrwt>
<pdfrwt beam="2">  1       -1 0.92099428E-01 0.27442692E+03</pdfrwt>
<totfact> 0.21030169E+03</totfact>
</mgrwt>
</event>
<event>
 5    1  0.1100736E+001  0.2749147E+03  0.7818608E-02  0.1098499E+00
         -2   -1    0    0    0  501 -0.00000000000E+00  0.00000000000E+00  0.10000924336E+04  0.10000924336E+04  0.00000000000E+00 0. -1.
          2   -1    0    0  501    0  0.00000000000E+00 -0.00000000000E+00 -0.18892783463E+02  0.18892783463E+02  0.00000000000E+00 0. -1.
         35    2    1    2    0    0  0.00000000000E+00  0.00000000000E+00  0.98119965009E+03  0.10189852170E+04  0.27491474889E+03 0.  0.
         25    1    3    3    0    0 -0.24207825866E+02 -0.34136454746E+02  0.68473294823E+03  0.69642697160E+03  0.12000000000E+03 0.  0.
         25    1    3    3    0    0  0.24207825866E+02  0.34136454746E+02  0.29646670186E+03  0.32255824542E+03  0.12000000000E+03 0.  0.
<mgrwt>
<rscale>  0 0.27491475E+03</rscale>
<asrwt>0</asrwt>
<pdfrwt beam="1">  1        2 0.29065828E-02 0.27491475E+03</pdfrwt>
<pdfrwt beam="2">  1       -2 0.15386033E+00 0.27491475E+03</pdfrwt>
<totfact> 0.97131172E+02</totfact>
</mgrwt>
</event>
<event>
 5    1  0.1100736E+001  0.2724390E+03  0.7818608E-02  0.1099892E+00
          2   -1    0    0  501    0  0.00000000000E+00  0.00000000000E+00  0.92643209273E+03  0.92643209273E+03  0.00000000000E+00 0.  1.
         -2   -1    0    0    0  501 -0.00000000000E+00 -0.00000000000E+00 -0.20029262008E+02  0.20029262008E+02  0.00000000000E+00 0.  1.
         35    2    1    2    0    0  0.00000000000E+00  0.00000000000E+00  0.90640283072E+03  0.94646135473E+03  0.27243899220E+03 0.  0.
         25    1    3    3    0    0 -0.34211505460E+02  0.54263356907E+02  0.43100779558E+03  0.45197639193E+03  0.12000000000E+03 0.  0.
         25    1    3    3    0    0  0.34211505460E+02 -0.54263356907E+02  0.47539503513E+03  0.49448496280E+03  0.12000000000E+03 0.  0.
<mgrwt>
<rscale>  0 0.27243899E+03</rscale>
<asrwt>0</asrwt>
<pdfrwt beam="1">  1        2 0.14252798E+00 0.27243899E+03</pdfrwt>
<pdfrwt beam="2">  1       -2 0.30814256E-02 0.27243899E+03</pdfrwt>
<totfact> 0.11846866E+04</totfact>
</mgrwt>
</event>
<event>
 5    1  0.1100736E+001  0.2749316E+03  0.7818608E-02  0.1098490E+00
         -3   -1    0    0    0  501 -0.00000000000E+00  0.00000000000E+00  0.39395833044E+03  0.39395833044E+03  0.00000000000E+00 0. -1.
          3   -1    0    0  501    0  0.00000000000E+00 -0.00000000000E+00 -0.47966625364E+02  0.47966625364E+02  0.00000000000E+00 0. -1.
         35    2    1    2    0    0  0.00000000000E+00  0.00000000000E+00  0.34599170507E+03  0.44192495580E+03  0.27493163983E+03 0.  0.
         25    1    3    3    0    0 -0.26035115092E+02 -0.61529036417E+02  0.16373381340E+03  0.21371104602E+03  0.12000000000E+03 0.  0.
         25    1    3    3    0    0  0.26035115092E+02  0.61529036417E+02  0.18225789167E+03  0.22821390978E+03  0.12000000000E+03 0.  0.
<mgrwt>
<rscale>  0 0.27493164E+03</rscale>
<asrwt>0</asrwt>
<pdfrwt beam="1">  1        3 0.73794811E-02 0.27493164E+03</pdfrwt>
<pdfrwt beam="2">  1       -3 0.60608972E-01 0.27493164E+03</pdfrwt>
<totfact> 0.83381962E+02</totfact>
</mgrwt>
</event>
<event>
 5    1  0.1100736E+001  0.2751639E+03  0.7818608E-02  0.1098360E+00
          1   -1    0    0  501    0  0.00000000000E+00  0.00000000000E+00  0.12157713396E+04  0.12157713396E+04  0.00000000000E+00 0.  1.
         -1   -1    0    0    0  501 -0.00000000000E+00 -0.00000000000E+00 -0.15569370858E+02  0.15569370858E+02  0.00000000000E+00 0.  1.
         35    2    1    2    0    0  0.00000000000E+00  0.00000000000E+00  0.12002019688E+04  0.12313407105E+04  0.27516391380E+03 0.  0.
         25    1    3    3    0    0  0.49741278519E+02  0.43933241194E+02  0.55017578668E+03  0.56700769018E+03  0.12000000000E+03 0.  0.
         25    1    3    3    0    0 -0.49741278519E+02 -0.43933241194E+02  0.65002618210E+03  0.66433302032E+03  0.12000000000E+03 0.  0.
<mgrwt>
<rscale>  0 0.27516391E+03</rscale>
<asrwt>0</asrwt>
<pdfrwt beam="1">  1        1 0.18704167E+00 0.27516391E+03</pdfrwt>
<pdfrwt beam="2">  1       -1 0.23952888E-02 0.27516391E+03</pdfrwt>
<totfact> 0.58706479E+03</totfact>
</mgrwt>
</event>
<event>
 5    1  0.1100736E+001  0.2756244E+03  0.7818608E-02  0.1098103E+00
         -2   -1    0    0    0  501 -0.00000000000E+00  0.00000000000E+00  0.33642267773E+02  0.33642267773E+02  0.00000000000E+00 0.  1.
          2   -1    0    0  501    0  0.00000000000E+00 -0.00000000000E+00 -0.56453388611E+03  0.56453388611E+03  0.00000000000E+00 0.  1.
         35    2    1    2    0    0  0.00000000000E+00  0.00000000000E+00 -0.53089161834E+03  0.59817615388E+03  0.27562438327E+03 0.  0.
         25    1    3    3    0    0  0.37129734375E+02  0.46884713142E+02 -0.33460206389E+03  0.36046544170E+03  0.12000000000E+03 0.  0.
         25    1    3    3    0    0 -0.37129734375E+02 -0.46884713142E+02 -0.19628955445E+03  0.23771071218E+03  0.12000000000E+03 0.  0.
<mgrwt>
<rscale>  0 0.27562438E+03</rscale>
<asrwt>0</asrwt>
<pdfrwt beam="1">  1        2 0.86851367E-01 0.27562438E+03</pdfrwt>
<pdfrwt beam="2">  1       -2 0.51757335E-02 0.27562438E+03</pdfrwt>
<totfact> 0.10011563E+04</totfact>
</mgrwt>
</event>
<event>
 5    1  0.1100736E+001  0.2755840E+03  0.7818608E-02  0.1098126E+00
         -1   -1    0    0    0  501 -0.00000000000E+00  0.00000000000E+00  0.64973930450E+02  0.64973930450E+02  0.00000000000E+00 0. -1.
          1   -1    0    0  501    0  0.00000000000E+00 -0.00000000000E+00 -0.29221936549E+03  0.29221936549E+03  0.00000000000E+00 0. -1.
         35    2    1    2    0    0  0.00000000000E+00  0.00000000000E+00 -0.22724543504E+03  0.35719329594E+03  0.27558403967E+03 0.  0.
         25    1    3    3    0    0 -0.15370511126E+02  0.50169121558E+02 -0.58123934522E+02  0.14328846825E+03  0.12000000000E+03 0.  0.
         25    1    3    3    0    0  0.15370511126E+02 -0.50169121558E+02 -0.16912150052E+03  0.21390482769E+03  0.12000000000E+03 0.  0.
<mgrwt>
<rscale>  0 0.27558404E+03</rscale>
<asrwt>0</asrwt>
<pdfrwt beam="1">  1        1 0.44956826E-01 0.27558404E+03</pdfrwt>
<pdfrwt beam="2">  1       -1 0.99959892E-02 0.27558404E+03</pdfrwt>
<totfact> 0.54894926E+03</totfact>
</mgrwt>
</event>
<event>
 5    1  0.1100736E+001  0.2753778E+03  0.7818608E-02  0.1098241E+00
         -3   -1    0    0    0  501 -0.00000000000E+00  0.00000000000E+00  0.31410509485E+02  0.31410509485E+02  0.00000000000E+00 0. -1.
          3   -1    0    0  501    0  0.00000000000E+00 -0.00000000000E+00 -0.60356343804E+03  0.60356343804E+03  0.00000000000E+00 0. -1.
         35    2    1    2    0    0  0.00000000000E+00  0.00000000000E+00 -0.57215292855E+03  0.63497394752E+03  0.27537781389E+03 0.  0.
         25    1    3    3    0    0 -0.43853947620E+02  0.15282500150E+02 -0.39907408523E+03  0.41930519796E+03  0.12000000000E+03 0.  0.
         25    1    3    3    0    0  0.43853947620E+02 -0.15282500150E+02 -0.17307884332E+03  0.21566874956E+03  0.12000000000E+03 0.  0.
<mgrwt>
<rscale>  0 0.27537781E+03</rscale>
<asrwt>0</asrwt>
<pdfrwt beam="1">  1        3 0.92855913E-01 0.27537781E+03</pdfrwt>
<pdfrwt beam="2">  1       -3 0.48323861E-02 0.27537781E+03</pdfrwt>
<totfact> 0.65556427E+02</totfact>
</mgrwt>
</event>
<event>
 5    1  0.1100736E+001  0.2748301E+03  0.7818608E-02  0.1098547E+00
          2   -1    0    0  501    0  0.00000000000E+00  0.00000000000E+00  0.15279943553E+03  0.15279943553E+03  0.00000000000E+00 0.  1.
         -2   -1    0    0    0  501 -0.00000000000E+00 -0.00000000000E+00 -0.12357963527E+03  0.12357963527E+03  0.00000000000E+00 0.  1.
         35    2    1    2    0    0  0.00000000000E+00  0.00000000000E+00  0.29219800256E+02  0.27637907081E+03  0.27483011853E+03 0.  0.
         25    1    3    3    0    0 -0.15450894557E+02 -0.12946192455E+02 -0.49597928727E+02  0.13140125028E+03  0.12000000000E+03 0.  0.
         25    1    3    3    0    0  0.15450894557E+02  0.12946192455E+02  0.78817728983E+02  0.14497782052E+03  0.12000000000E+03 0.  0.
<mgrwt>
<rscale>  0 0.27483012E+03</rscale>
<asrwt>0</asrwt>
<pdfrwt beam="1">  1        2 0.23507606E-01 0.27483012E+03</pdfrwt>
<pdfrwt beam="2">  1       -2 0.19012252E-01 0.27483012E+03</pdfrwt>
<totfact> 0.52527519E+03</totfact>
</mgrwt>
</event>
<event>
 5    1  0.1100736E+001  0.2749447E+03  0.7818608E-02  0.1098482E+00
          1   -1    0    0  501    0  0.00000000000E+00  0.00000000000E+00  0.25425950672E+02  0.25425950672E+02  0.00000000000E+00 0. -1.
         -1   -1    0    0    0  501 -0.00000000000E+00 -0.00000000000E+00 -0.74328208501E+03  0.74328208501E+03  0.00000000000E+00 0. -1.
         35    2    1    2    0    0  0.00000000000E+00  0.00000000000E+00 -0.71785613433E+03  0.76870803568E+03  0.27494474811E+03 0.  0.
         25    1    3    3    0    0 -0.56946265416E+02 -0.27882655463E+02 -0.29778015653E+03  0.32725118982E+03  0.12000000000E+03 0.  0.
         25    1    3    3    0    0  0.56946265416E+02  0.27882655463E+02 -0.42007597781E+03  0.44145684585E+03  0.12000000000E+03 0.  0.
<mgrwt>
<rscale>  0 0.27494475E+03</rscale>
<asrwt>0</asrwt>
<pdfrwt beam="1">  1        1 0.39116844E-02 0.27494475E+03</pdfrwt>
<pdfrwt beam="2">  1       -1 0.11435110E+00 0.27494475E+03</pdfrwt>
<totfact> 0.17378793E+03</totfact>
</mgrwt>
</event>
<event>
 5    1  0.1100736E+001  0.2785943E+03  0.7818608E-02  0.1096459E+00
         -2   -1    0    0    0  501 -0.00000000000E+00  0.00000000000E+00  0.78754694353E+02  0.78754694353E+02  0.00000000000E+00 0. -1.
          2   -1    0    0  501    0  0.00000000000E+00 -0.00000000000E+00 -0.24638153290E+03  0.24638153290E+03  0.00000000000E+00 0. -1.
         35    2    1    2    0    0  0.00000000000E+00  0.00000000000E+00 -0.16762683855E+03  0.32513622726E+03  0.27859434537E+03 0.  0.
         25    1    3    3    0    0  0.68822673604E+02  0.15822025839E+02 -0.88597711260E+02  0.16503469740E+03  0.12000000000E+03 0.  0.
         25    1    3    3    0    0 -0.68822673604E+02 -0.15822025839E+02 -0.79029127289E+02  0.16010152986E+03  0.12000000000E+03 0.  0.
<mgrwt>
<rscale>  0 0.27859435E+03</rscale>
<asrwt>0</asrwt>
<pdfrwt beam="1">  1        2 0.37904851E-01 0.27859435E+03</pdfrwt>
<pdfrwt beam="2">  1       -2 0.12116107E-01 0.27859435E+03</pdfrwt>
<totfact> 0.65506628E+03</totfact>
</mgrwt>
</event>
<event>
 5    1  0.1100736E+001  0.2744525E+03  0.7818608E-02  0.1098758E+00
          1   -1    0    0  501    0  0.00000000000E+00  0.00000000000E+00  0.13640859274E+03  0.13640859274E+03  0.00000000000E+00 0. -1.
         -1   -1    0    0    0  501 -0.00000000000E+00 -0.00000000000E+00 -0.13804885643E+03  0.13804885643E+03  0.00000000000E+00 0. -1.
         35    2    1    2    0    0  0.00000000000E+00  0.00000000000E+00 -0.16402636956E+01  0.27445744917E+03  0.27445254770E+03 0.  0.
         25    1    3    3    0    0 -0.31030723800E+02 -0.93506191749E+01  0.57324782723E+02  0.13688122812E+03  0.12000000000E+03 0.  0.
         25    1    3    3    0    0  0.31030723800E+02  0.93506191749E+01 -0.58965046418E+02  0.13757622105E+03  0.12000000000E+03 0.  0.
<mgrwt>
<rscale>  0 0.27445255E+03</rscale>
<asrwt>0</asrwt>
<pdfrwt beam="1">  1        1 0.20985937E-01 0.27445255E+03</pdfrwt>
<pdfrwt beam="2">  1       -1 0.21238286E-01 0.27445255E+03</pdfrwt>
<totfact> 0.43535521E+03</totfact>
</mgrwt>
</event>
<event>
 5    1  0.1100736E+001  0.2746583E+03  0.7818608E-02  0.1098643E+00
          2   -1    0    0  501    0  0.00000000000E+00  0.00000000000E+00  0.20820618481E+04  0.20820618481E+04  0.00000000000E+00 0.  1.
         -2   -1    0    0    0  501 -0.00000000000E+00 -0.00000000000E+00 -0.90579875637E+01  0.90579875637E+01  0.00000000000E+00 0.  1.
         35    2    1    2    0    0  0.00000000000E+00  0.00000000000E+00  0.20730038605E+04  0.20911198356E+04  0.27465826277E+03 0.  0.
         25    1    3    3    0    0 -0.10339077076E+02  0.60409569184E+02  0.12383794377E+04  0.12456885021E+04  0.12000000000E+03 0.  0.
         25    1    3    3    0    0  0.10339077076E+02 -0.60409569184E+02  0.83462442280E+03  0.84543133352E+03  0.12000000000E+03 0.  0.
<mgrwt>
<rscale>  0 0.27465826E+03</rscale>
<asrwt>0</asrwt>
<pdfrwt beam="1">  1        2 0.32031683E+00 0.27465826E+03</pdfrwt>
<pdfrwt beam="2">  1       -2 0.13935382E-02 0.27465826E+03</pdfrwt>
<totfact> 0.88364018E+03</totfact>
</mgrwt>
</event>
<event>
 5    1  0.1100736E+001  0.2747778E+03  0.7818608E-02  0.1098576E+00
          1   -1    0    0  501    0  0.00000000000E+00  0.00000000000E+00  0.19406955487E+02  0.19406955487E+02  0.00000000000E+00 0.  1.
         -1   -1    0    0    0  501 -0.00000000000E+00 -0.00000000000E+00 -0.97262627933E+03  0.97262627933E+03  0.00000000000E+00 0.  1.
         35    2    1    2    0    0  0.00000000000E+00  0.00000000000E+00 -0.95321932385E+03  0.99203323482E+03  0.27477783687E+03 0.  0.
         25    1    3    3    0    0  0.54508097882E+02 -0.10269708916E+02 -0.61165241006E+03  0.62577573489E+03  0.12000000000E+03 0.  0.
         25    1    3    3    0    0 -0.54508097882E+02  0.10269708916E+02 -0.34156691379E+03  0.36625749993E+03  0.12000000000E+03 0.  0.
<mgrwt>
<rscale>  0 0.27477784E+03</rscale>
<asrwt>0</asrwt>
<pdfrwt beam="1">  1        1 0.29856856E-02 0.27477784E+03</pdfrwt>
<pdfrwt beam="2">  1       -1 0.14963480E+00 0.27477784E+03</pdfrwt>
<totfact> 0.13052538E+03</totfact>
</mgrwt>
</event>
<event>
 5    1  0.1100736E+001  0.2754926E+03  0.7818608E-02  0.1098177E+00
         -1   -1    0    0    0  501 -0.00000000000E+00  0.00000000000E+00  0.47412569189E+02  0.47412569189E+02  0.00000000000E+00 0. -1.
          1   -1    0    0  501    0  0.00000000000E+00 -0.00000000000E+00 -0.40019029458E+03  0.40019029458E+03  0.00000000000E+00 0. -1.
         35    2    1    2    0    0  0.00000000000E+00  0.00000000000E+00 -0.35277772539E+03  0.44760286376E+03  0.27549264985E+03 0.  0.
         25    1    3    3    0    0 -0.84624425438E+01  0.62599256961E+02 -0.21564465731E+03  0.25474084504E+03  0.12000000000E+03 0.  0.
         25    1    3    3    0    0  0.84624425438E+01 -0.62599256961E+02 -0.13713306808E+03  0.19286201873E+03  0.12000000000E+03 0.  0.
<mgrwt>
<rscale>  0 0.27549265E+03</rscale>
<asrwt>0</asrwt>
<pdfrwt beam="1">  1        1 0.61567740E-01 0.27549265E+03</pdfrwt>
<pdfrwt beam="2">  1       -1 0.72942411E-02 0.27549265E+03</pdfrwt>
<totfact> 0.59733346E+03</totfact>
</mgrwt>
</event>
<event>
 5    1  0.1100736E+001  0.2738542E+03  0.7818608E-02  0.1099094E+00
         -2   -1    0    0    0  501 -0.00000000000E+00  0.00000000000E+00  0.20400468418E+02  0.20400468418E+02  0.00000000000E+00 0. -1.
          2   -1    0    0  501    0  0.00000000000E+00 -0.00000000000E+00 -0.91904916361E+03  0.91904916361E+03  0.00000000000E+00 0. -1.
         35    2    1    2    0    0  0.00000000000E+00  0.00000000000E+00 -0.89864869520E+03  0.93944963203E+03  0.27385421989E+03 0.  0.
         25    1    3    3    0    0 -0.13028299254E+02 -0.39435003171E+02 -0.27359242638E+03  0.30162505172E+03  0.12000000000E+03 0.  0.
         25    1    3    3    0    0  0.13028299254E+02  0.39435003171E+02 -0.62505626882E+03  0.63782458031E+03  0.12000000000E+03 0.  0.
<mgrwt>
<rscale>  0 0.27385422E+03</rscale>
<asrwt>0</asrwt>
<pdfrwt beam="1">  1        2 0.14139221E+00 0.27385422E+03</pdfrwt>
<pdfrwt beam="2">  1       -2 0.31385329E-02 0.27385422E+03</pdfrwt>
<totfact> 0.11654732E+04</totfact>
</mgrwt>
</event>
<event>
 5    1  0.1100736E+001  0.2770138E+03  0.7818608E-02  0.1097331E+00
         -1   -1    0    0    0  501 -0.00000000000E+00  0.00000000000E+00  0.92759281272E+03  0.92759281272E+03  0.00000000000E+00 0.  1.
          1   -1    0    0  501    0  0.00000000000E+00 -0.00000000000E+00 -0.20681667189E+02  0.20681667189E+02  0.00000000000E+00 0.  1.
         35    2    1    2    0    0  0.00000000000E+00  0.00000000000E+00  0.90691114554E+03  0.94827447991E+03  0.27701383243E+03 0.  0.
         25    1    3    3    0    0  0.46803656004E+02 -0.15039980872E+02  0.62001408499E+03  0.63343053986E+03  0.12000000000E+03 0.  0.
         25    1    3    3    0    0 -0.46803656004E+02  0.15039980872E+02  0.28689706055E+03  0.31484394006E+03  0.12000000000E+03 0.  0.
<mgrwt>
<rscale>  0 0.27701383E+03</rscale>
<asrwt>0</asrwt>
<pdfrwt beam="1">  1        1 0.31817957E-02 0.27701383E+03</pdfrwt>
<pdfrwt beam="2">  1       -1 0.14270655E+00 0.27701383E+03</pdfrwt>
<totfact> 0.13500046E+03</totfact>
</mgrwt>
</event>
<event>
 5    1  0.1100736E+001  0.2752071E+03  0.7818608E-02  0.1098336E+00
          1   -1    0    0  501    0  0.00000000000E+00  0.00000000000E+00  0.68737060829E+03  0.68737060829E+03  0.00000000000E+00 0. -1.
         -1   -1    0    0    0  501 -0.00000000000E+00 -0.00000000000E+00 -0.27546620353E+02  0.27546620353E+02  0.00000000000E+00 0. -1.
         35    2    1    2    0    0  0.00000000000E+00  0.00000000000E+00  0.65982398794E+03  0.71491722864E+03  0.27520710157E+03 0.  0.
         25    1    3    3    0    0  0.54831797080E+02  0.15067561672E+02  0.42361742947E+03  0.44394288364E+03  0.12000000000E+03 0.  0.
         25    1    3    3    0    0 -0.54831797080E+02 -0.15067561672E+02  0.23620655847E+03  0.27097434500E+03  0.12000000000E+03 0.  0.
<mgrwt>
<rscale>  0 0.27520710E+03</rscale>
<asrwt>0</asrwt>
<pdfrwt beam="1">  1        1 0.10574931E+00 0.27520710E+03</pdfrwt>
<pdfrwt beam="2">  1       -1 0.42379421E-02 0.27520710E+03</pdfrwt>
<totfact> 0.65126453E+03</totfact>
</mgrwt>
</event>
<event>
 5    1  0.1100736E+001  0.2778974E+03  0.7818608E-02  0.1096843E+00
          2   -1    0    0  501    0  0.00000000000E+00  0.00000000000E+00  0.22999497563E+04  0.22999497563E+04  0.00000000000E+00 0.  1.
         -2   -1    0    0    0  501 -0.00000000000E+00 -0.00000000000E+00 -0.83944162850E+01  0.83944162850E+01  0.00000000000E+00 0.  1.
         35    2    1    2    0    0  0.00000000000E+00  0.00000000000E+00  0.22915553400E+04  0.23083441726E+04  0.27789736011E+03 0.  0.
         25    1    3    3    0    0  0.11766863595E+02  0.26561272244E+02  0.16752308360E+04  0.16797744831E+04  0.12000000000E+03 0.  0.
         25    1    3    3    0    0 -0.11766863595E+02 -0.26561272244E+02  0.61632450399E+03  0.62856968944E+03  0.12000000000E+03 0.  0.
<mgrwt>
<rscale>  0 0.27789736E+03</rscale>
<asrwt>0</asrwt>
<pdfrwt beam="1">  1        2 0.35383792E+00 0.27789736E+03</pdfrwt>
<pdfrwt beam="2">  1       -2 0.12914505E-02 0.27789736E+03</pdfrwt>
<totfact> 0.75620597E+03</totfact>
</mgrwt>
</event>
<event>
 5    1  0.1100736E+001  0.2738999E+03  0.7818608E-02  0.1099068E+00
         -2   -1    0    0    0  501 -0.00000000000E+00  0.00000000000E+00  0.12172977884E+02  0.12172977884E+02  0.00000000000E+00 0.  1.
          2   -1    0    0  501    0  0.00000000000E+00 -0.00000000000E+00 -0.15407318476E+04  0.15407318476E+04  0.00000000000E+00 0.  1.
         35    2    1    2    0    0  0.00000000000E+00  0.00000000000E+00 -0.15285588697E+04  0.15529048255E+04  0.27389994309E+03 0.  0.
         25    1    3    3    0    0  0.52738660063E+02  0.31866057716E+02 -0.63029393490E+03  0.64456749551E+03  0.12000000000E+03 0.  0.
         25    1    3    3    0    0 -0.52738660063E+02 -0.31866057716E+02 -0.89826493484E+03  0.90833732999E+03  0.12000000000E+03 0.  0.
<mgrwt>
<rscale>  0 0.27389994E+03</rscale>
<asrwt>0</asrwt>
<pdfrwt beam="1">  1        2 0.23703559E+00 0.27389994E+03</pdfrwt>
<pdfrwt beam="2">  1       -2 0.18727665E-02 0.27389994E+03</pdfrwt>
<totfact> 0.11050049E+04</totfact>
</mgrwt>
</event>
<event>
 5    1  0.1100736E+001  0.2750441E+03  0.7818608E-02  0.1098427E+00
          2   -1    0    0  501    0  0.00000000000E+00  0.00000000000E+00  0.11525206711E+02  0.11525206711E+02  0.00000000000E+00 0.  1.
         -2   -1    0    0    0  501 -0.00000000000E+00 -0.00000000000E+00 -0.16409521589E+04  0.16409521589E+04  0.00000000000E+00 0.  1.
         35    2    1    2    0    0  0.00000000000E+00  0.00000000000E+00 -0.16294269522E+04  0.16524773656E+04  0.27504408981E+03 0.  0.
         25    1    3    3    0    0  0.27274826357E+01  0.16929496311E+02 -0.42450187697E+03  0.44147014685E+03  0.12000000000E+03 0.  0.
         25    1    3    3    0    0 -0.27274826357E+01 -0.16929496311E+02 -0.12049250753E+04  0.12110072188E+04  0.12000000000E+03 0.  0.
<mgrwt>
<rscale>  0 0.27504409E+03</rscale>
<asrwt>0</asrwt>
<pdfrwt beam="1">  1        2 0.17731086E-02 0.27504409E+03</pdfrwt>
<pdfrwt beam="2">  1       -2 0.25245419E+00 0.27504409E+03</pdfrwt>
<totfact> 0.44912847E+02</totfact>
</mgrwt>
</event>
<event>
 5    1  0.1100736E+001  0.2757364E+03  0.7818608E-02  0.1098041E+00
          1   -1    0    0  501    0  0.00000000000E+00  0.00000000000E+00  0.33930602263E+02  0.33930602263E+02  0.00000000000E+00 0.  1.
         -1   -1    0    0    0  501 -0.00000000000E+00 -0.00000000000E+00 -0.56019149307E+03  0.56019149307E+03  0.00000000000E+00 0.  1.
         35    2    1    2    0    0  0.00000000000E+00  0.00000000000E+00 -0.52626089080E+03  0.59412209533E+03  0.27573635772E+03 0.  0.
         25    1    3    3    0    0 -0.63538111451E+02 -0.22506534215E+02 -0.24589317699E+03  0.28179263684E+03  0.12000000000E+03 0.  0.
         25    1    3    3    0    0  0.63538111451E+02  0.22506534215E+02 -0.28036771381E+03  0.31232945849E+03  0.12000000000E+03 0.  0.
<mgrwt>
<rscale>  0 0.27573636E+03</rscale>
<asrwt>0</asrwt>
<pdfrwt beam="1">  1        1 0.52200929E-02 0.27573636E+03</pdfrwt>
<pdfrwt beam="2">  1       -1 0.86183303E-01 0.27573636E+03</pdfrwt>
<totfact> 0.21826387E+03</totfact>
</mgrwt>
</event>
<event>
 5    1  0.1100736E+001  0.2736657E+03  0.7818608E-02  0.1099200E+00
          2   -1    0    0  501    0  0.00000000000E+00  0.00000000000E+00  0.14034062949E+04  0.14034062949E+04  0.00000000000E+00 0.  1.
         -2   -1    0    0    0  501 -0.00000000000E+00 -0.00000000000E+00 -0.13341278451E+02  0.13341278451E+02  0.00000000000E+00 0.  1.
         35    2    1    2    0    0  0.00000000000E+00  0.00000000000E+00  0.13900650164E+04  0.14167475733E+04  0.27366573889E+03 0.  0.
         25    1    3    3    0    0  0.18497500486E+02  0.48075730343E+02  0.48348672240E+03  0.50081218447E+03  0.12000000000E+03 0.  0.
         25    1    3    3    0    0 -0.18497500486E+02 -0.48075730343E+02  0.90657829404E+03  0.91593538887E+03  0.12000000000E+03 0.  0.
<mgrwt>
<rscale>  0 0.27366574E+03</rscale>
<asrwt>0</asrwt>
<pdfrwt beam="1">  1        2 0.21590854E+00 0.27366574E+03</pdfrwt>
<pdfrwt beam="2">  1       -2 0.20525055E-02 0.27366574E+03</pdfrwt>
<totfact> 0.11445072E+04</totfact>
</mgrwt>
</event>
<event>
 5    1  0.1100736E+001  0.2796193E+03  0.7818608E-02  0.1095897E+00
         -1   -1    0    0    0  501 -0.00000000000E+00  0.00000000000E+00  0.10000799481E+02  0.10000799481E+02  0.00000000000E+00 0.  1.
          1   -1    0    0  501    0  0.00000000000E+00 -0.00000000000E+00 -0.19545170309E+04  0.19545170309E+04  0.00000000000E+00 0.  1.
         35    2    1    2    0    0  0.00000000000E+00  0.00000000000E+00 -0.19445162314E+04  0.19645178304E+04  0.27961926192E+03 0.  0.
         25    1    3    3    0    0 -0.52797484415E+02 -0.34513546490E+01 -0.63187480477E+03  0.64534119279E+03  0.12000000000E+03 0.  0.
         25    1    3    3    0    0  0.52797484415E+02  0.34513546490E+01 -0.13126414267E+04  0.13191766376E+04  0.12000000000E+03 0.  0.
<mgrwt>
<rscale>  0 0.27961926E+03</rscale>
<asrwt>0</asrwt>
<pdfrwt beam="1">  1        1 0.30069521E+00 0.27961926E+03</pdfrwt>
<pdfrwt beam="2">  1       -1 0.15385831E-02 0.27961926E+03</pdfrwt>
<totfact> 0.36320863E+03</totfact>
</mgrwt>
</event>
<event>
 5    1  0.1100736E+001  0.2757679E+03  0.7818608E-02  0.1098023E+00
         -2   -1    0    0    0  501 -0.00000000000E+00  0.00000000000E+00  0.53396484585E+02  0.53396484585E+02  0.00000000000E+00 0. -1.
          2   -1    0    0  501    0  0.00000000000E+00 -0.00000000000E+00 -0.35605304397E+03  0.35605304397E+03  0.00000000000E+00 0. -1.
         35    2    1    2    0    0  0.00000000000E+00  0.00000000000E+00 -0.30265655938E+03  0.40944952855E+03  0.27576787974E+03 0.  0.
         25    1    3    3    0    0 -0.39877223250E+02  0.39872888394E+02 -0.20751312812E+03  0.24625543345E+03  0.12000000000E+03 0.  0.
         25    1    3    3    0    0  0.39877223250E+02 -0.39872888394E+02 -0.95143431263E+02  0.16319409510E+03  0.12000000000E+03 0.  0.
<mgrwt>
<rscale>  0 0.27576788E+03</rscale>
<asrwt>0</asrwt>
<pdfrwt beam="1">  1        2 0.54777391E-01 0.27576788E+03</pdfrwt>
<pdfrwt beam="2">  1       -2 0.82148439E-02 0.27576788E+03</pdfrwt>
<totfact> 0.81687365E+03</totfact>
</mgrwt>
</event>
<event>
 5    1  0.1100736E+001  0.2750260E+03  0.7818608E-02  0.1098437E+00
         -1   -1    0    0    0  501 -0.00000000000E+00  0.00000000000E+00  0.73771044756E+03  0.73771044756E+03  0.00000000000E+00 0.  1.
          1   -1    0    0  501    0  0.00000000000E+00 -0.00000000000E+00 -0.25633128729E+02  0.25633128729E+02  0.00000000000E+00 0.  1.
         35    2    1    2    0    0  0.00000000000E+00  0.00000000000E+00  0.71207731883E+03  0.76334357629E+03  0.27502601235E+03 0.  0.
         25    1    3    3    0    0 -0.32133237426E+02  0.57880663177E+02  0.32474636385E+03  0.35248108736E+03  0.12000000000E+03 0.  0.
         25    1    3    3    0    0  0.32133237426E+02 -0.57880663177E+02  0.38733095499E+03  0.41086248893E+03  0.12000000000E+03 0.  0.
<mgrwt>
<rscale>  0 0.27502601E+03</rscale>
<asrwt>0</asrwt>
<pdfrwt beam="1">  1        1 0.39435588E-02 0.27502601E+03</pdfrwt>
<pdfrwt beam="2">  1       -1 0.11349390E+00 0.27502601E+03</pdfrwt>
<totfact> 0.17487097E+03</totfact>
</mgrwt>
</event>
<event>
 5    1  0.1100736E+001  0.2745471E+03  0.7818608E-02  0.1098705E+00
         -1   -1    0    0    0  501 -0.00000000000E+00  0.00000000000E+00  0.46969409740E+02  0.46969409740E+02  0.00000000000E+00 0.  1.
          1   -1    0    0  501    0  0.00000000000E+00 -0.00000000000E+00 -0.40119800054E+03  0.40119800054E+03  0.00000000000E+00 0.  1.
         35    2    1    2    0    0  0.00000000000E+00  0.00000000000E+00 -0.35422859080E+03  0.44816741028E+03  0.27454714185E+03 0.  0.
         25    1    3    3    0    0  0.31711822193E+02  0.58590249832E+02 -0.17325956716E+03  0.22103695314E+03  0.12000000000E+03 0.  0.
         25    1    3    3    0    0 -0.31711822193E+02 -0.58590249832E+02 -0.18096902364E+03  0.22713045714E+03  0.12000000000E+03 0.  0.
<mgrwt>
<rscale>  0 0.27454714E+03</rscale>
<asrwt>0</asrwt>
<pdfrwt beam="1">  1        1 0.61722766E-01 0.27454714E+03</pdfrwt>
<pdfrwt beam="2">  1       -1 0.72260635E-02 0.27454714E+03</pdfrwt>
<totfact> 0.60390627E+03</totfact>
</mgrwt>
</event>
<event>
 5    1  0.1100736E+001  0.2757691E+03  0.7818608E-02  0.1098022E+00
          2   -1    0    0  501    0  0.00000000000E+00  0.00000000000E+00  0.30806418366E+03  0.30806418366E+03  0.00000000000E+00 0. -1.
         -2   -1    0    0    0  501 -0.00000000000E+00 -0.00000000000E+00 -0.61714876783E+02  0.61714876783E+02  0.00000000000E+00 0. -1.
         35    2    1    2    0    0  0.00000000000E+00  0.00000000000E+00  0.24634930688E+03  0.36977906045E+03  0.27576905654E+03 0.  0.
         25    1    3    3    0    0  0.45556285267E+02  0.44706658973E+02  0.15427901393E+03  0.20561146521E+03  0.12000000000E+03 0.  0.
         25    1    3    3    0    0 -0.45556285267E+02 -0.44706658973E+02  0.92070292950E+02  0.16416759524E+03  0.12000000000E+03 0.  0.
<mgrwt>
<rscale>  0 0.27576906E+03</rscale>
<asrwt>0</asrwt>
<pdfrwt beam="1">  1        2 0.47394489E-01 0.27576906E+03</pdfrwt>
<pdfrwt beam="2">  1       -2 0.94945966E-02 0.27576906E+03</pdfrwt>
<totfact> 0.76022229E+03</totfact>
</mgrwt>
</event>
<event>
 5    1  0.1100736E+001  0.2748230E+03  0.7818608E-02  0.1098551E+00
          1   -1    0    0  501    0  0.00000000000E+00  0.00000000000E+00  0.15538432844E+03  0.15538432844E+03  0.00000000000E+00 0.  1.
         -1   -1    0    0    0  501 -0.00000000000E+00 -0.00000000000E+00 -0.12151755506E+03  0.12151755506E+03  0.00000000000E+00 0.  1.
         35    2    1    2    0    0  0.00000000000E+00  0.00000000000E+00  0.33866773375E+02  0.27690188350E+03  0.27482302441E+03 0.  0.
         25    1    3    3    0    0 -0.36831346373E+02  0.38104738106E+02  0.58150091435E+02  0.14349199377E+03  0.12000000000E+03 0.  0.
         25    1    3    3    0    0  0.36831346373E+02 -0.38104738106E+02 -0.24283318060E+02  0.13340988973E+03  0.12000000000E+03 0.  0.
<mgrwt>
<rscale>  0 0.27482302E+03</rscale>
<asrwt>0</asrwt>
<pdfrwt beam="1">  1        1 0.23905281E-01 0.27482302E+03</pdfrwt>
<pdfrwt beam="2">  1       -1 0.18695008E-01 0.27482302E+03</pdfrwt>
<totfact> 0.45339471E+03</totfact>
</mgrwt>
</event>
<event>
 5    1  0.1100736E+001  0.2749134E+03  0.7818608E-02  0.1098500E+00
         -1   -1    0    0    0  501 -0.00000000000E+00  0.00000000000E+00  0.15946278172E+02  0.15946278172E+02  0.00000000000E+00 0.  1.
          1   -1    0    0  501    0  0.00000000000E+00 -0.00000000000E+00 -0.11848750095E+04  0.11848750095E+04  0.00000000000E+00 0.  1.
         35    2    1    2    0    0  0.00000000000E+00  0.00000000000E+00 -0.11689287313E+04  0.12008212876E+04  0.27491341546E+03 0.  0.
         25    1    3    3    0    0 -0.10216558003E+02  0.52892511188E+02 -0.41016259184E+03  0.43073814266E+03  0.12000000000E+03 0.  0.
         25    1    3    3    0    0  0.10216558003E+02 -0.52892511188E+02 -0.75876613946E+03  0.77008314498E+03  0.12000000000E+03 0.  0.
<mgrwt>
<rscale>  0 0.27491342E+03</rscale>
<asrwt>0</asrwt>
<pdfrwt beam="1">  1        1 0.18228844E+00 0.27491342E+03</pdfrwt>
<pdfrwt beam="2">  1       -1 0.24532739E-02 0.27491342E+03</pdfrwt>
<totfact> 0.59572579E+03</totfact>
</mgrwt>
</event>
<event>
 5    1  0.1100736E+001  0.2760344E+03  0.7818608E-02  0.1097875E+00
         -2   -1    0    0    0  501 -0.00000000000E+00  0.00000000000E+00  0.22153296898E+02  0.22153296898E+02  0.00000000000E+00 0.  1.
          2   -1    0    0  501    0  0.00000000000E+00 -0.00000000000E+00 -0.85986067993E+03  0.85986067993E+03  0.00000000000E+00 0.  1.
         35    2    1    2    0    0  0.00000000000E+00  0.00000000000E+00 -0.83770738303E+03  0.88201397683E+03  0.27603441042E+03 0.  0.
         25    1    3    3    0    0 -0.19462102172E+02  0.61284661630E+02 -0.34639944917E+03  0.37219237171E+03  0.12000000000E+03 0.  0.
         25    1    3    3    0    0  0.19462102172E+02 -0.61284661630E+02 -0.49130793386E+03  0.50982160512E+03  0.12000000000E+03 0.  0.
<mgrwt>
<rscale>  0 0.27603441E+03</rscale>
<asrwt>0</asrwt>
<pdfrwt beam="1">  1        2 0.13228625E+00 0.27603441E+03</pdfrwt>
<pdfrwt beam="2">  1       -2 0.34081998E-02 0.27603441E+03</pdfrwt>
<totfact> 0.11263446E+04</totfact>
</mgrwt>
</event>
<event>
 5    1  0.1100736E+001  0.2748682E+03  0.7818608E-02  0.1098525E+00
          2   -1    0    0  501    0  0.00000000000E+00  0.00000000000E+00  0.10465400406E+04  0.10465400406E+04  0.00000000000E+00 0.  1.
         -2   -1    0    0    0  501 -0.00000000000E+00 -0.00000000000E+00 -0.18048169497E+02  0.18048169497E+02  0.00000000000E+00 0.  1.
         35    2    1    2    0    0  0.00000000000E+00  0.00000000000E+00  0.10284918711E+04  0.10645882101E+04  0.27486820143E+03 0.  0.
         25    1    3    3    0    0  0.41338849992E+02  0.49918425301E+02  0.44858800551E+03  0.46886239814E+03  0.12000000000E+03 0.  0.
         25    1    3    3    0    0 -0.41338849992E+02 -0.49918425301E+02  0.57990386564E+03  0.59572581200E+03  0.12000000000E+03 0.  0.
<mgrwt>
<rscale>  0 0.27486820E+03</rscale>
<asrwt>0</asrwt>
<pdfrwt beam="1">  1        2 0.16100611E+00 0.27486820E+03</pdfrwt>
<pdfrwt beam="2">  1       -2 0.27766423E-02 0.27486820E+03</pdfrwt>
<totfact> 0.11664900E+04</totfact>
</mgrwt>
</event>
<event>
 5    1  0.1100736E+001  0.2663078E+03  0.7818608E-02  0.1103412E+00
         -2   -1    0    0    0  501 -0.00000000000E+00  0.00000000000E+00  0.34616711975E+02  0.34616711975E+02  0.00000000000E+00 0. -1.
          2   -1    0    0  501    0  0.00000000000E+00 -0.00000000000E+00 -0.51217906086E+03  0.51217906086E+03  0.00000000000E+00 0. -1.
         35    2    1    2    0    0  0.00000000000E+00  0.00000000000E+00 -0.47756234889E+03  0.54679577284E+03  0.26630775452E+03 0.  0.
         25    1    3    3    0    0  0.11427667929E+02 -0.53798406516E+02 -0.20291716799E+03  0.24207485868E+03  0.12000000000E+03 0.  0.
         25    1    3    3    0    0 -0.11427667929E+02  0.53798406516E+02 -0.27464518089E+03  0.30472091416E+03  0.12000000000E+03 0.  0.
<mgrwt>
<rscale>  0 0.26630775E+03</rscale>
<asrwt>0</asrwt>
<pdfrwt beam="1">  1        2 0.78796776E-01 0.26630775E+03</pdfrwt>
<pdfrwt beam="2">  1       -2 0.53256482E-02 0.26630775E+03</pdfrwt>
<totfact> 0.10688849E+04</totfact>
</mgrwt>
</event>
<event>
 5    1  0.1100736E+001  0.2741067E+03  0.7818608E-02  0.1098952E+00
         -2   -1    0    0    0  501 -0.00000000000E+00  0.00000000000E+00  0.50198919296E+03  0.50198919296E+03  0.00000000000E+00 0.  1.
          2   -1    0    0  501    0  0.00000000000E+00 -0.00000000000E+00 -0.37418382244E+02  0.37418382244E+02  0.00000000000E+00 0.  1.
         35    2    1    2    0    0  0.00000000000E+00  0.00000000000E+00  0.46457081072E+03  0.53940757521E+03  0.27410672013E+03 0.  0.
         25    1    3    3    0    0 -0.13486901412E+02  0.33284468849E+02  0.12282716353E+03  0.17543165187E+03  0.12000000000E+03 0.  0.
         25    1    3    3    0    0  0.13486901412E+02 -0.33284468849E+02  0.34174364719E+03  0.36397592334E+03  0.12000000000E+03 0.  0.
<mgrwt>
<rscale>  0 0.27410672E+03</rscale>
<asrwt>0</asrwt>
<pdfrwt beam="1">  1        2 0.57566745E-02 0.27410672E+03</pdfrwt>
<pdfrwt beam="2">  1       -2 0.77229102E-01 0.27410672E+03</pdfrwt>
<totfact> 0.20045074E+03</totfact>
</mgrwt>
</event>
<event>
 5    1  0.1100736E+001  0.2756833E+03  0.7818608E-02  0.1098070E+00
         -2   -1    0    0    0  501 -0.00000000000E+00  0.00000000000E+00  0.66842283228E+02  0.66842283228E+02  0.00000000000E+00 0.  1.
          2   -1    0    0  501    0  0.00000000000E+00 -0.00000000000E+00 -0.28425606512E+03  0.28425606512E+03  0.00000000000E+00 0.  1.
         35    2    1    2    0    0  0.00000000000E+00  0.00000000000E+00 -0.21741378190E+03  0.35109834835E+03  0.27568332858E+03 0.  0.
         25    1    3    3    0    0 -0.87682974301E+01 -0.65897898575E+02 -0.91577277036E+02  0.16494184959E+03  0.12000000000E+03 0.  0.
         25    1    3    3    0    0  0.87682974301E+01  0.65897898575E+02 -0.12583650486E+03  0.18615649876E+03  0.12000000000E+03 0.  0.
<mgrwt>
<rscale>  0 0.27568333E+03</rscale>
<asrwt>0</asrwt>
<pdfrwt beam="1">  1        2 0.43731702E-01 0.27568333E+03</pdfrwt>
<pdfrwt beam="2">  1       -2 0.10283428E-01 0.27568333E+03</pdfrwt>
<totfact> 0.73023497E+03</totfact>
</mgrwt>
</event>
<event>
 5    1  0.1100736E+001  0.2748900E+03  0.7818608E-02  0.1098513E+00
         -1   -1    0    0    0  501 -0.00000000000E+00  0.00000000000E+00  0.56390883528E+02  0.56390883528E+02  0.00000000000E+00 0. -1.
          1   -1    0    0  501    0  0.00000000000E+00 -0.00000000000E+00 -0.33500313379E+03  0.33500313379E+03  0.00000000000E+00 0. -1.
         35    2    1    2    0    0  0.00000000000E+00  0.00000000000E+00 -0.27861225026E+03  0.39139401732E+03  0.27488996125E+03 0.  0.
         25    1    3    3    0    0 -0.33143313110E+02 -0.51259560813E+02 -0.99922592855E+02  0.16766200029E+03  0.12000000000E+03 0.  0.
         25    1    3    3    0    0  0.33143313110E+02  0.51259560813E+02 -0.17868965741E+03  0.22373201703E+03  0.12000000000E+03 0.  0.
<mgrwt>
<rscale>  0 0.27488996E+03</rscale>
<asrwt>0</asrwt>
<pdfrwt beam="1">  1        1 0.51538943E-01 0.27488996E+03</pdfrwt>
<pdfrwt beam="2">  1       -1 0.86755207E-02 0.27488996E+03</pdfrwt>
<totfact> 0.57471317E+03</totfact>
</mgrwt>
</event>
<event>
 5    1  0.1100736E+001  0.2767174E+03  0.7818608E-02  0.1097495E+00
         -1   -1    0    0    0  501 -0.00000000000E+00  0.00000000000E+00  0.40960463986E+03  0.40960463986E+03  0.00000000000E+00 0. -1.
          1   -1    0    0  501    0  0.00000000000E+00 -0.00000000000E+00 -0.46735642348E+02  0.46735642348E+02  0.00000000000E+00 0. -1.
         35    2    1    2    0    0  0.00000000000E+00  0.00000000000E+00  0.36286899751E+03  0.45634028220E+03  0.27671744399E+03 0.  0.
         25    1    3    3    0    0 -0.25615893520E+02  0.14640234644E+02  0.28405993553E+03  0.30977501101E+03  0.12000000000E+03 0.  0.
         25    1    3    3    0    0  0.25615893520E+02 -0.14640234644E+02  0.78809061977E+02  0.14656527120E+03  0.12000000000E+03 0.  0.
<mgrwt>
<rscale>  0 0.27671744E+03</rscale>
<asrwt>0</asrwt>
<pdfrwt beam="1">  1        1 0.71900991E-02 0.27671744E+03</pdfrwt>
<pdfrwt beam="2">  1       -1 0.63016096E-01 0.27671744E+03</pdfrwt>
<totfact> 0.26520760E+03</totfact>
</mgrwt>
</event>
<event>
 5    1  0.1100736E+001  0.2751873E+03  0.7818608E-02  0.1098347E+00
         -1   -1    0    0    0  501 -0.00000000000E+00  0.00000000000E+00  0.31529021752E+02  0.31529021752E+02  0.00000000000E+00 0. -1.
          1   -1    0    0  501    0  0.00000000000E+00 -0.00000000000E+00 -0.60046319636E+03  0.60046319636E+03  0.00000000000E+00 0. -1.
         35    2    1    2    0    0  0.00000000000E+00  0.00000000000E+00 -0.56893417461E+03  0.63199221811E+03  0.27518733386E+03 0.  0.
         25    1    3    3    0    0 -0.30985357709E+01  0.37426495710E+02 -0.41278197290E+03  0.43150816986E+03  0.12000000000E+03 0.  0.
         25    1    3    3    0    0  0.30985357709E+01 -0.37426495710E+02 -0.15615220171E+03  0.20048404825E+03  0.12000000000E+03 0.  0.
<mgrwt>
<rscale>  0 0.27518733E+03</rscale>
<asrwt>0</asrwt>
<pdfrwt beam="1">  1        1 0.92378950E-01 0.27518733E+03</pdfrwt>
<pdfrwt beam="2">  1       -1 0.48506189E-02 0.27518733E+03</pdfrwt>
<totfact> 0.64484492E+03</totfact>
</mgrwt>
</event>
<event>
 5    1  0.1100736E+001  0.2747079E+03  0.7818608E-02  0.1098615E+00
         -2   -1    0    0    0  501 -0.00000000000E+00  0.00000000000E+00  0.22549815732E+02  0.22549815732E+02  0.00000000000E+00 0. -1.
          2   -1    0    0  501    0  0.00000000000E+00 -0.00000000000E+00 -0.83664122433E+03  0.83664122433E+03  0.00000000000E+00 0. -1.
         35    2    1    2    0    0  0.00000000000E+00  0.00000000000E+00 -0.81409140860E+03  0.85919104006E+03  0.27470788443E+03 0.  0.
         25    1    3    3    0    0  0.37856732917E+02 -0.53925951250E+02 -0.37208237290E+03  0.39646744213E+03  0.12000000000E+03 0.  0.
         25    1    3    3    0    0 -0.37856732917E+02  0.53925951250E+02 -0.44200903569E+03  0.46272359793E+03  0.12000000000E+03 0.  0.
<mgrwt>
<rscale>  0 0.27470788E+03</rscale>
<asrwt>0</asrwt>
<pdfrwt beam="1">  1        2 0.12871403E+00 0.27470788E+03</pdfrwt>
<pdfrwt beam="2">  1       -2 0.34692025E-02 0.27470788E+03</pdfrwt>
<totfact> 0.11365286E+04</totfact>
</mgrwt>
</event>
<event>
 5    1  0.1100736E+001  0.2723344E+03  0.7818608E-02  0.1099951E+00
          2   -1    0    0  501    0  0.00000000000E+00  0.00000000000E+00  0.52067413049E+03  0.52067413049E+03  0.00000000000E+00 0. -1.
         -2   -1    0    0    0  501 -0.00000000000E+00 -0.00000000000E+00 -0.35610574497E+02  0.35610574497E+02  0.00000000000E+00 0. -1.
         35    2    1    2    0    0  0.00000000000E+00  0.00000000000E+00  0.48506355599E+03  0.55628470498E+03  0.27233438940E+03 0.  0.
         25    1    3    3    0    0 -0.63292462893E+00  0.61014556900E+02  0.28431031097E+03  0.31457197852E+03  0.12000000000E+03 0.  0.
         25    1    3    3    0    0  0.63292462893E+00 -0.61014556900E+02  0.20075324502E+03  0.24171272646E+03  0.12000000000E+03 0.  0.
<mgrwt>
<rscale>  0 0.27233439E+03</rscale>
<asrwt>0</asrwt>
<pdfrwt beam="1">  1        2 0.80103707E-01 0.27233439E+03</pdfrwt>
<pdfrwt beam="2">  1       -2 0.54785503E-02 0.27233439E+03</pdfrwt>
<totfact> 0.10058714E+04</totfact>
</mgrwt>
</event>
<event>
 5    1  0.1100736E+001  0.2756483E+03  0.7818608E-02  0.1098090E+00
         -2   -1    0    0    0  501 -0.00000000000E+00  0.00000000000E+00  0.46133407740E+02  0.46133407740E+02  0.00000000000E+00 0. -1.
          2   -1    0    0  501    0  0.00000000000E+00 -0.00000000000E+00 -0.41175137180E+03  0.41175137180E+03  0.00000000000E+00 0. -1.
         35    2    1    2    0    0  0.00000000000E+00  0.00000000000E+00 -0.36561796406E+03  0.45788477954E+03  0.27564828258E+03 0.  0.
         25    1    3    3    0    0  0.57703397470E+02 -0.17120195493E+02 -0.13100146551E+03  0.18757443093E+03  0.12000000000E+03 0.  0.
         25    1    3    3    0    0 -0.57703397470E+02  0.17120195493E+02 -0.23461649854E+03  0.27031034860E+03  0.12000000000E+03 0.  0.
<mgrwt>
<rscale>  0 0.27564828E+03</rscale>
<asrwt>0</asrwt>
<pdfrwt beam="1">  1        2 0.63346365E-01 0.27564828E+03</pdfrwt>
<pdfrwt beam="2">  1       -2 0.70974473E-02 0.27564828E+03</pdfrwt>
<totfact> 0.87621648E+03</totfact>
</mgrwt>
</event>
<event>
 5    1  0.1100736E+001  0.2746930E+03  0.7818608E-02  0.1098623E+00
         -2   -1    0    0    0  501 -0.00000000000E+00  0.00000000000E+00  0.91112958762E+01  0.91112958762E+01  0.00000000000E+00 0.  1.
          2   -1    0    0  501    0  0.00000000000E+00 -0.00000000000E+00 -0.20704033000E+04  0.20704033000E+04  0.00000000000E+00 0.  1.
         35    2    1    2    0    0  0.00000000000E+00  0.00000000000E+00 -0.20612920041E+04  0.20795145959E+04  0.27469297078E+03 0.  0.
         25    1    3    3    0    0  0.21676996147E+02  0.20136018573E+02 -0.57713968013E+03  0.59022500946E+03  0.12000000000E+03 0.  0.
         25    1    3    3    0    0 -0.21676996147E+02 -0.20136018573E+02 -0.14841523240E+04  0.14892895864E+04  0.12000000000E+03 0.  0.
<mgrwt>
<rscale>  0 0.27469297E+03</rscale>
<asrwt>0</asrwt>
<pdfrwt beam="1">  1        2 0.31852364E+00 0.27469297E+03</pdfrwt>
<pdfrwt beam="2">  1       -2 0.14017376E-02 0.27469297E+03</pdfrwt>
<totfact> 0.88859928E+03</totfact>
</mgrwt>
</event>
<event>
 5    1  0.1100736E+001  0.2745389E+03  0.7818608E-02  0.1098710E+00
          2   -1    0    0  501    0  0.00000000000E+00  0.00000000000E+00  0.16287458562E+04  0.16287458562E+04  0.00000000000E+00 0. -1.
         -2   -1    0    0    0  501 -0.00000000000E+00 -0.00000000000E+00 -0.11568960991E+02  0.11568960991E+02  0.00000000000E+00 0. -1.
         35    2    1    2    0    0  0.00000000000E+00  0.00000000000E+00  0.16171768952E+04  0.16403148172E+04  0.27453886629E+03 0.  0.
         25    1    3    3    0    0 -0.74873860245E+01  0.60033463164E+02  0.97575686269E+03  0.98496778259E+03  0.12000000000E+03 0.  0.
         25    1    3    3    0    0  0.74873860245E+01 -0.60033463164E+02  0.64142003255E+03  0.65534703464E+03  0.12000000000E+03 0.  0.
<mgrwt>
<rscale>  0 0.27453887E+03</rscale>
<asrwt>0</asrwt>
<pdfrwt beam="1">  1        2 0.25057610E+00 0.27453887E+03</pdfrwt>
<pdfrwt beam="2">  1       -2 0.17798414E-02 0.27453887E+03</pdfrwt>
<totfact> 0.10693737E+04</totfact>
</mgrwt>
</event>
<event>
 5    1  0.1100736E+001  0.2757930E+03  0.7818608E-02  0.1098009E+00
         -3   -1    0    0    0  501 -0.00000000000E+00  0.00000000000E+00  0.45869171927E+02  0.45869171927E+02  0.00000000000E+00 0.  1.
          3   -1    0    0  501    0  0.00000000000E+00 -0.00000000000E+00 -0.41455827480E+03  0.41455827480E+03  0.00000000000E+00 0.  1.
         35    2    1    2    0    0  0.00000000000E+00  0.00000000000E+00 -0.36868910288E+03  0.46042744673E+03  0.27579300050E+03 0.  0.
         25    1    3    3    0    0  0.13440466327E+02  0.29339191139E+02 -0.84538729071E+02  0.15029381552E+03  0.12000000000E+03 0.  0.
         25    1    3    3    0    0 -0.13440466327E+02 -0.29339191139E+02 -0.28415037381E+03  0.31013363121E+03  0.12000000000E+03 0.  0.
<mgrwt>
<rscale>  0 0.27579300E+03</rscale>
<asrwt>0</asrwt>
<pdfrwt beam="1">  1        3 0.63778200E-01 0.27579300E+03</pdfrwt>
<pdfrwt beam="2">  1       -3 0.70567953E-02 0.27579300E+03</pdfrwt>
<totfact> 0.80710608E+02</totfact>
</mgrwt>
</event>
<event>
 5    1  0.1100736E+001  0.2753374E+03  0.7818608E-02  0.1098263E+00
          1   -1    0    0  501    0  0.00000000000E+00  0.00000000000E+00  0.12073019288E+03  0.12073019288E+03  0.00000000000E+00 0.  1.
         -1   -1    0    0    0  501 -0.00000000000E+00 -0.00000000000E+00 -0.15698367938E+03  0.15698367938E+03  0.00000000000E+00 0.  1.
         35    2    1    2    0    0  0.00000000000E+00  0.00000000000E+00 -0.36253486502E+02  0.27771387226E+03  0.27533739223E+03 0.  0.
         25    1    3    3    0    0  0.58314657719E+01 -0.56526062193E+02  0.18566756253E+02  0.13406687189E+03  0.12000000000E+03 0.  0.
         25    1    3    3    0    0 -0.58314657719E+01  0.56526062193E+02 -0.54820242755E+02  0.14364700037E+03  0.12000000000E+03 0.  0.
<mgrwt>
<rscale>  0 0.27533739E+03</rscale>
<asrwt>0</asrwt>
<pdfrwt beam="1">  1        1 0.18573876E-01 0.27533739E+03</pdfrwt>
<pdfrwt beam="2">  1       -1 0.24151335E-01 0.27533739E+03</pdfrwt>
<totfact> 0.41247264E+03</totfact>
</mgrwt>
</event>
<event>
 5    1  0.1100736E+001  0.2746435E+03  0.7818608E-02  0.1098651E+00
          4   -1    0    0  501    0  0.00000000000E+00  0.00000000000E+00  0.64096772493E+03  0.64096772493E+03  0.00000000000E+00 0.  1.
         -4   -1    0    0    0  501 -0.00000000000E+00 -0.00000000000E+00 -0.29419988778E+02  0.29419988778E+02  0.00000000000E+00 0.  1.
         35    2    1    2    0    0  0.00000000000E+00  0.00000000000E+00  0.61154773615E+03  0.67038771371E+03  0.27464350183E+03 0.  0.
         25    1    3    3    0    0  0.35019448773E+01  0.34928922942E+02  0.44439184552E+03  0.46164532451E+03  0.12000000000E+03 0.  0.
         25    1    3    3    0    0 -0.35019448773E+01 -0.34928922942E+02  0.16715589063E+03  0.20874238920E+03  0.12000000000E+03 0.  0.
<mgrwt>
<rscale>  0 0.27464350E+03</rscale>
<asrwt>0</asrwt>
<pdfrwt beam="1">  1        4 0.98610409E-01 0.27464350E+03</pdfrwt>
<pdfrwt beam="2">  1       -4 0.45261526E-02 0.27464350E+03</pdfrwt>
<totfact> 0.46327078E+02</totfact>
</mgrwt>
</event>
<event>
 5    1  0.1100736E+001  0.2750145E+03  0.7818608E-02  0.1098444E+00
          2   -1    0    0  501    0  0.00000000000E+00  0.00000000000E+00  0.61075197387E+03  0.61075197387E+03  0.00000000000E+00 0. -1.
         -2   -1    0    0    0  501 -0.00000000000E+00 -0.00000000000E+00 -0.30958949545E+02  0.30958949545E+02  0.00000000000E+00 0. -1.
         35    2    1    2    0    0  0.00000000000E+00  0.00000000000E+00  0.57979302433E+03  0.64171092342E+03  0.27501446903E+03 0.  0.
         25    1    3    3    0    0 -0.10919634662E+02 -0.56711620421E+02  0.20998771122E+03  0.24865696285E+03  0.12000000000E+03 0.  0.
         25    1    3    3    0    0  0.10919634662E+02  0.56711620421E+02  0.36980531311E+03  0.39305396057E+03  0.12000000000E+03 0.  0.
<mgrwt>
<rscale>  0 0.27501447E+03</rscale>
<asrwt>0</asrwt>
<pdfrwt beam="1">  1        2 0.93961833E-01 0.27501447E+03</pdfrwt>
<pdfrwt beam="2">  1       -2 0.47629158E-02 0.27501447E+03</pdfrwt>
<totfact> 0.10370823E+04</totfact>
</mgrwt>
</event>
<event>
 5    1  0.1100736E+001  0.2750600E+03  0.7818608E-02  0.1098418E+00
         -2   -1    0    0    0  501 -0.00000000000E+00  0.00000000000E+00  0.79433823515E+02  0.79433823515E+02  0.00000000000E+00 0.  1.
          2   -1    0    0  501    0  0.00000000000E+00 -0.00000000000E+00 -0.23811650658E+03  0.23811650658E+03  0.00000000000E+00 0.  1.
         35    2    1    2    0    0  0.00000000000E+00  0.00000000000E+00 -0.15868268307E+03  0.31755033010E+03  0.27506002661E+03 0.  0.
         25    1    3    3    0    0 -0.25015878154E+02  0.13758956803E+01 -0.73662622364E+01  0.12280858711E+03  0.12000000000E+03 0.  0.
         25    1    3    3    0    0  0.25015878154E+02 -0.13758956803E+01 -0.15131642083E+03  0.19474174299E+03  0.12000000000E+03 0.  0.
<mgrwt>
<rscale>  0 0.27506003E+03</rscale>
<asrwt>0</asrwt>
<pdfrwt beam="1">  1        2 0.36633308E-01 0.27506003E+03</pdfrwt>
<pdfrwt beam="2">  1       -2 0.12220589E-01 0.27506003E+03</pdfrwt>
<totfact> 0.67002772E+03</totfact>
</mgrwt>
</event>
<event>
 5    1  0.1100736E+001  0.2758541E+03  0.7818608E-02  0.1097975E+00
          2   -1    0    0  501    0  0.00000000000E+00  0.00000000000E+00  0.58515669704E+02  0.58515669704E+02  0.00000000000E+00 0. -1.
         -2   -1    0    0    0  501 -0.00000000000E+00 -0.00000000000E+00 -0.32510727028E+03  0.32510727028E+03  0.00000000000E+00 0. -1.
         35    2    1    2    0    0  0.00000000000E+00  0.00000000000E+00 -0.26659160057E+03  0.38362293998E+03  0.27585408930E+03 0.  0.
         25    1    3    3    0    0 -0.19835876166E+02 -0.54115804866E+02 -0.83117974129E+02  0.15694132643E+03  0.12000000000E+03 0.  0.
         25    1    3    3    0    0  0.19835876166E+02  0.54115804866E+02 -0.18347362644E+03  0.22668161355E+03  0.12000000000E+03 0.  0.
<mgrwt>
<rscale>  0 0.27585409E+03</rscale>
<asrwt>0</asrwt>
<pdfrwt beam="1">  1        2 0.90024107E-02 0.27585409E+03</pdfrwt>
<pdfrwt beam="2">  1       -2 0.50016503E-01 0.27585409E+03</pdfrwt>
<totfact> 0.27985737E+03</totfact>
</mgrwt>
</event>
<event>
 5    1  0.1100736E+001  0.2751774E+03  0.7818608E-02  0.1098352E+00
          2   -1    0    0  501    0  0.00000000000E+00  0.00000000000E+00  0.12990148034E+02  0.12990148034E+02  0.00000000000E+00 0. -1.
         -2   -1    0    0    0  501 -0.00000000000E+00 -0.00000000000E+00 -0.14573081357E+04  0.14573081357E+04  0.00000000000E+00 0. -1.
         35    2    1    2    0    0  0.00000000000E+00  0.00000000000E+00 -0.14443179877E+04  0.14702982838E+04  0.27517738581E+03 0.  0.
         25    1    3    3    0    0 -0.89713315734E+01  0.66171683848E+02 -0.76733005741E+03  0.77952202890E+03  0.12000000000E+03 0.  0.
         25    1    3    3    0    0  0.89713315734E+01 -0.66171683848E+02 -0.67698793031E+03  0.69077625488E+03  0.12000000000E+03 0.  0.
<mgrwt>
<rscale>  0 0.27517739E+03</rscale>
<asrwt>0</asrwt>
<pdfrwt beam="1">  1        2 0.19984848E-02 0.27517739E+03</pdfrwt>
<pdfrwt beam="2">  1       -2 0.22420120E+00 0.27517739E+03</pdfrwt>
<totfact> 0.56024338E+02</totfact>
</mgrwt>
</event>
<event>
 5    1  0.1100736E+001  0.2744589E+03  0.7818608E-02  0.1098754E+00
         -2   -1    0    0    0  501 -0.00000000000E+00  0.00000000000E+00  0.37454122872E+02  0.37454122872E+02  0.00000000000E+00 0. -1.
          2   -1    0    0  501    0  0.00000000000E+00 -0.00000000000E+00 -0.50279966237E+03  0.50279966237E+03  0.00000000000E+00 0. -1.
         35    2    1    2    0    0  0.00000000000E+00  0.00000000000E+00 -0.46534553950E+03  0.54025378524E+03  0.27445888825E+03 0.  0.
         25    1    3    3    0    0 -0.24885535502E+02  0.30202781438E+02 -0.12666171692E+03  0.17881467618E+03  0.12000000000E+03 0.  0.
         25    1    3    3    0    0  0.24885535502E+02 -0.30202781438E+02 -0.33868382258E+03  0.36143910906E+03  0.12000000000E+03 0.  0.
<mgrwt>
<rscale>  0 0.27445889E+03</rscale>
<asrwt>0</asrwt>
<pdfrwt beam="1">  1        2 0.77353797E-01 0.27445889E+03</pdfrwt>
<pdfrwt beam="2">  1       -2 0.57621725E-02 0.27445889E+03</pdfrwt>
<totfact> 0.96874247E+03</totfact>
</mgrwt>
</event>
<event>
 5    1  0.1100736E+001  0.2774515E+03  0.7818608E-02  0.1097089E+00
         -2   -1    0    0    0  501 -0.00000000000E+00  0.00000000000E+00  0.16464127458E+04  0.16464127458E+04  0.00000000000E+00 0. -1.
          2   -1    0    0  501    0  0.00000000000E+00 -0.00000000000E+00 -0.11688946317E+02  0.11688946317E+02  0.00000000000E+00 0. -1.
         35    2    1    2    0    0  0.00000000000E+00  0.00000000000E+00  0.16347237995E+04  0.16581016921E+04  0.27745147469E+03 0.  0.
         25    1    3    3    0    0 -0.30671339955E+02  0.62447579833E+02  0.80482774073E+03  0.81669340855E+03  0.12000000000E+03 0.  0.
         25    1    3    3    0    0  0.30671339955E+02 -0.62447579833E+02  0.82989605878E+03  0.84140828360E+03  0.12000000000E+03 0.  0.
<mgrwt>
<rscale>  0 0.27745147E+03</rscale>
<asrwt>0</asrwt>
<pdfrwt beam="1">  1        2 0.17983007E-02 0.27745147E+03</pdfrwt>
<pdfrwt beam="2">  1       -2 0.25329409E+00 0.27745147E+03</pdfrwt>
<totfact> 0.43545461E+02</totfact>
</mgrwt>
</event>
<event>
 5    1  0.1100736E+001  0.2746227E+03  0.7818608E-02  0.1098663E+00
          2   -1    0    0  501    0  0.00000000000E+00  0.00000000000E+00  0.94125579112E+03  0.94125579112E+03  0.00000000000E+00 0. -1.
         -2   -1    0    0    0  501 -0.00000000000E+00 -0.00000000000E+00 -0.20031125483E+02  0.20031125483E+02  0.00000000000E+00 0. -1.
         35    2    1    2    0    0  0.00000000000E+00  0.00000000000E+00  0.92122466564E+03  0.96128691661E+03  0.27462274388E+03 0.  0.
         25    1    3    3    0    0 -0.48453671407E+02 -0.19559944336E+02  0.31526966874E+03  0.34135804330E+03  0.12000000000E+03 0.  0.
         25    1    3    3    0    0  0.48453671407E+02  0.19559944336E+02  0.60595499690E+03  0.61992887331E+03  0.12000000000E+03 0.  0.
<mgrwt>
<rscale>  0 0.27462274E+03</rscale>
<asrwt>0</asrwt>
<pdfrwt beam="1">  1        2 0.14480855E+00 0.27462274E+03</pdfrwt>
<pdfrwt beam="2">  1       -2 0.30817123E-02 0.27462274E+03</pdfrwt>
<totfact> 0.11594924E+04</totfact>
</mgrwt>
</event>
<event>
 5    1  0.1100736E+001  0.2753747E+03  0.7818608E-02  0.1098242E+00
         -1   -1    0    0    0  501 -0.00000000000E+00  0.00000000000E+00  0.34974982766E+02  0.34974982766E+02  0.00000000000E+00 0. -1.
          1   -1    0    0  501    0  0.00000000000E+00 -0.00000000000E+00 -0.54203918401E+03  0.54203918401E+03  0.00000000000E+00 0. -1.
         35    2    1    2    0    0  0.00000000000E+00  0.00000000000E+00 -0.50706420124E+03  0.57701416677E+03  0.27537473464E+03 0.  0.
         25    1    3    3    0    0 -0.48659569144E+02  0.28827940778E+01 -0.15565872372E+03  0.20249864800E+03  0.12000000000E+03 0.  0.
         25    1    3    3    0    0  0.48659569144E+02 -0.28827940778E+01 -0.35140547753E+03  0.37451551878E+03  0.12000000000E+03 0.  0.
<mgrwt>
<rscale>  0 0.27537473E+03</rscale>
<asrwt>0</asrwt>
<pdfrwt beam="1">  1        1 0.83390644E-01 0.27537473E+03</pdfrwt>
<pdfrwt beam="2">  1       -1 0.53807665E-02 0.27537473E+03</pdfrwt>
<totfact> 0.63510398E+03</totfact>
</mgrwt>
</event>
<event>
 5    1  0.1100736E+001  0.2701404E+03  0.7818608E-02  0.1101199E+00
          2   -1    0    0  501    0  0.00000000000E+00  0.00000000000E+00  0.12369364877E+04  0.12369364877E+04  0.00000000000E+00 0.  1.
         -2   -1    0    0    0  501 -0.00000000000E+00 -0.00000000000E+00 -0.14749304547E+02  0.14749304547E+02  0.00000000000E+00 0.  1.
         35    2    1    2    0    0  0.00000000000E+00  0.00000000000E+00  0.12221871832E+04  0.12516857923E+04  0.27014035583E+03 0.  0.
         25    1    3    3    0    0 -0.35742478472E+02  0.50497021670E+02  0.59228435137E+03  0.60747693523E+03  0.12000000000E+03 0.  0.
         25    1    3    3    0    0  0.35742478472E+02 -0.50497021670E+02  0.62990283183E+03  0.64420885705E+03  0.12000000000E+03 0.  0.
<mgrwt>
<rscale>  0 0.27014036E+03</rscale>
<asrwt>0</asrwt>
<pdfrwt beam="1">  1        2 0.19029784E+00 0.27014036E+03</pdfrwt>
<pdfrwt beam="2">  1       -2 0.22691248E-02 0.27014036E+03</pdfrwt>
<totfact> 0.12191882E+04</totfact>
</mgrwt>
</event>
<event>
 5    1  0.1100736E+001  0.2750739E+03  0.7818608E-02  0.1098410E+00
         -1   -1    0    0    0  501 -0.00000000000E+00  0.00000000000E+00  0.43053314755E+02  0.43053314755E+02  0.00000000000E+00 0.  1.
          1   -1    0    0  501    0  0.00000000000E+00 -0.00000000000E+00 -0.43937168749E+03  0.43937168749E+03  0.00000000000E+00 0.  1.
         35    2    1    2    0    0  0.00000000000E+00  0.00000000000E+00 -0.39631837274E+03  0.48242500225E+03  0.27507386322E+03 0.  0.
         25    1    3    3    0    0 -0.38410860323E+02 -0.74443872081E+01 -0.10233042183E+03  0.16248793285E+03  0.12000000000E+03 0.  0.
         25    1    3    3    0    0  0.38410860323E+02  0.74443872081E+01 -0.29398795091E+03  0.31993706940E+03  0.12000000000E+03 0.  0.
<mgrwt>
<rscale>  0 0.27507386E+03</rscale>
<asrwt>0</asrwt>
<pdfrwt beam="1">  1        1 0.67595645E-01 0.27507386E+03</pdfrwt>
<pdfrwt beam="2">  1       -1 0.66235868E-02 0.27507386E+03</pdfrwt>
<totfact> 0.61293978E+03</totfact>
</mgrwt>
</event>
<event>
 5    1  0.1100736E+001  0.2746349E+03  0.7818608E-02  0.1098656E+00
          2   -1    0    0  501    0  0.00000000000E+00  0.00000000000E+00  0.12361119439E+04  0.12361119439E+04  0.00000000000E+00 0. -1.
         -2   -1    0    0    0  501 -0.00000000000E+00 -0.00000000000E+00 -0.15254352074E+02  0.15254352074E+02  0.00000000000E+00 0. -1.
         35    2    1    2    0    0  0.00000000000E+00  0.00000000000E+00  0.12208575918E+04  0.12513662959E+04  0.27463493437E+03 0.  0.
         25    1    3    3    0    0  0.38636965689E+02 -0.54036119335E+02  0.58042191867E+03  0.59640784785E+03  0.12000000000E+03 0.  0.
         25    1    3    3    0    0 -0.38636965689E+02  0.54036119335E+02  0.64043567312E+03  0.65495844809E+03  0.12000000000E+03 0.  0.
<mgrwt>
<rscale>  0 0.27463493E+03</rscale>
<asrwt>0</asrwt>
<pdfrwt beam="1">  1        2 0.19017099E+00 0.27463493E+03</pdfrwt>
<pdfrwt beam="2">  1       -2 0.23468244E-02 0.27463493E+03</pdfrwt>
<totfact> 0.11618368E+04</totfact>
</mgrwt>
</event>
<event>
 5    1  0.1100736E+001  0.2754220E+03  0.7818608E-02  0.1098216E+00
          1   -1    0    0  501    0  0.00000000000E+00  0.00000000000E+00  0.13109366604E+04  0.13109366604E+04  0.00000000000E+00 0.  1.
         -1   -1    0    0    0  501 -0.00000000000E+00 -0.00000000000E+00 -0.14466235984E+02  0.14466235984E+02  0.00000000000E+00 0.  1.
         35    2    1    2    0    0  0.00000000000E+00  0.00000000000E+00  0.12964704244E+04  0.13254028963E+04  0.27542199686E+03 0.  0.
         25    1    3    3    0    0 -0.36457756392E+02  0.49160271631E+02  0.51056591791E+03  0.52803736311E+03  0.12000000000E+03 0.  0.
         25    1    3    3    0    0  0.36457756392E+02 -0.49160271631E+02  0.78590450647E+03  0.79736553324E+03  0.12000000000E+03 0.  0.
<mgrwt>
<rscale>  0 0.27542200E+03</rscale>
<asrwt>0</asrwt>
<pdfrwt beam="1">  1        1 0.20168247E+00 0.27542200E+03</pdfrwt>
<pdfrwt beam="2">  1       -1 0.22255758E-02 0.27542200E+03</pdfrwt>
<totfact> 0.56221899E+03</totfact>
</mgrwt>
</event>
<event>
 5    1  0.1100736E+001  0.2748406E+03  0.7818608E-02  0.1098541E+00
         -2   -1    0    0    0  501 -0.00000000000E+00  0.00000000000E+00  0.16887055231E+03  0.16887055231E+03  0.00000000000E+00 0. -1.
          2   -1    0    0  501    0  0.00000000000E+00 -0.00000000000E+00 -0.11182730284E+03  0.11182730284E+03  0.00000000000E+00 0. -1.
         35    2    1    2    0    0  0.00000000000E+00  0.00000000000E+00  0.57043249473E+02  0.28069785515E+03  0.27484059666E+03 0.  0.
         25    1    3    3    0    0  0.61280002499E+02 -0.26920355157E+02  0.30662524883E+02  0.14078400002E+03  0.12000000000E+03 0.  0.
         25    1    3    3    0    0 -0.61280002499E+02  0.26920355157E+02  0.26380724590E+02  0.13991385513E+03  0.12000000000E+03 0.  0.
<mgrwt>
<rscale>  0 0.27484060E+03</rscale>
<asrwt>0</asrwt>
<pdfrwt beam="1">  1        2 0.17204200E-01 0.27484060E+03</pdfrwt>
<pdfrwt beam="2">  1       -2 0.25980085E-01 0.27484060E+03</pdfrwt>
<totfact> 0.43673662E+03</totfact>
</mgrwt>
</event>
<event>
 5    1  0.1100736E+001  0.2743267E+03  0.7818608E-02  0.1098829E+00
          3   -1    0    0  501    0  0.00000000000E+00  0.00000000000E+00  0.24376291279E+02  0.24376291279E+02  0.00000000000E+00 0.  1.
         -3   -1    0    0    0  501 -0.00000000000E+00 -0.00000000000E+00 -0.77180655380E+03  0.77180655380E+03  0.00000000000E+00 0.  1.
         35    2    1    2    0    0  0.00000000000E+00  0.00000000000E+00 -0.74743026252E+03  0.79618284508E+03  0.27432667655E+03 0.  0.
         25    1    3    3    0    0  0.34006743897E+02 -0.35644509195E+02 -0.24434889524E+03  0.27664665599E+03  0.12000000000E+03 0.  0.
         25    1    3    3    0    0 -0.34006743897E+02  0.35644509195E+02 -0.50308136728E+03  0.51953618909E+03  0.12000000000E+03 0.  0.
<mgrwt>
<rscale>  0 0.27432668E+03</rscale>
<asrwt>0</asrwt>
<pdfrwt beam="1">  1        3 0.37501987E-02 0.27432668E+03</pdfrwt>
<pdfrwt beam="2">  1       -3 0.11873947E+00 0.27432668E+03</pdfrwt>
<totfact> 0.55243355E+02</totfact>
</mgrwt>
</event>
<event>
 5    1  0.1100736E+001  0.2747243E+03  0.7818608E-02  0.1098606E+00
         -2   -1    0    0    0  501 -0.00000000000E+00  0.00000000000E+00  0.34883999720E+02  0.34883999720E+02  0.00000000000E+00 0.  1.
          2   -1    0    0  501    0  0.00000000000E+00 -0.00000000000E+00 -0.54088863915E+03  0.54088863915E+03  0.00000000000E+00 0.  1.
         35    2    1    2    0    0  0.00000000000E+00  0.00000000000E+00 -0.50600463943E+03  0.57577263887E+03  0.27472429187E+03 0.  0.
         25    1    3    3    0    0  0.45611218620E+02  0.40134372132E+01 -0.35507258326E+03  0.37758844040E+03  0.12000000000E+03 0.  0.
         25    1    3    3    0    0 -0.45611218620E+02 -0.40134372132E+01 -0.15093205617E+03  0.19818419847E+03  0.12000000000E+03 0.  0.
<mgrwt>
<rscale>  0 0.27472429E+03</rscale>
<asrwt>0</asrwt>
<pdfrwt beam="1">  1        2 0.83213639E-01 0.27472429E+03</pdfrwt>
<pdfrwt beam="2">  1       -2 0.53667690E-02 0.27472429E+03</pdfrwt>
<totfact> 0.99458733E+03</totfact>
</mgrwt>
</event>
<event>
 5    1  0.1100736E+001  0.2753645E+03  0.7818608E-02  0.1098248E+00
          2   -1    0    0  501    0  0.00000000000E+00  0.00000000000E+00  0.27724993685E+03  0.27724993685E+03  0.00000000000E+00 0. -1.
         -2   -1    0    0    0  501 -0.00000000000E+00 -0.00000000000E+00 -0.68372961519E+02  0.68372961519E+02  0.00000000000E+00 0. -1.
         35    2    1    2    0    0  0.00000000000E+00  0.00000000000E+00  0.20887697533E+03  0.34562289837E+03  0.27536448038E+03 0.  0.
         25    1    3    3    0    0  0.29986439153E+02  0.50881732966E+02  0.14546205987E+03  0.19760401854E+03  0.12000000000E+03 0.  0.
         25    1    3    3    0    0 -0.29986439153E+02 -0.50881732966E+02  0.63414915468E+02  0.14801887983E+03  0.12000000000E+03 0.  0.
<mgrwt>
<rscale>  0 0.27536448E+03</rscale>
<asrwt>0</asrwt>
<pdfrwt beam="1">  1        2 0.42653836E-01 0.27536448E+03</pdfrwt>
<pdfrwt beam="2">  1       -2 0.10518917E-01 0.27536448E+03</pdfrwt>
<totfact> 0.72347391E+03</totfact>
</mgrwt>
</event>
<event>
 5    1  0.1100736E+001  0.2743412E+03  0.7818608E-02  0.1098820E+00
         -2   -1    0    0    0  501 -0.00000000000E+00  0.00000000000E+00  0.13399079456E+03  0.13399079456E+03  0.00000000000E+00 0. -1.
          2   -1    0    0  501    0  0.00000000000E+00 -0.00000000000E+00 -0.14042588718E+03  0.14042588718E+03  0.00000000000E+00 0. -1.
         35    2    1    2    0    0  0.00000000000E+00  0.00000000000E+00 -0.64350926206E+01  0.27441668173E+03  0.27434121964E+03 0.  0.
         25    1    3    3    0    0  0.37821142479E+01  0.62733120888E+02 -0.24811151076E+02  0.13771471258E+03  0.12000000000E+03 0.  0.
         25    1    3    3    0    0 -0.37821142479E+01 -0.62733120888E+02  0.18376058456E+02  0.13670196915E+03  0.12000000000E+03 0.  0.
<mgrwt>
<rscale>  0 0.27434122E+03</rscale>
<asrwt>0</asrwt>
<pdfrwt beam="1">  1        2 0.21603983E-01 0.27434122E+03</pdfrwt>
<pdfrwt beam="2">  1       -2 0.20613968E-01 0.27434122E+03</pdfrwt>
<totfact> 0.50324960E+03</totfact>
</mgrwt>
</event>
<event>
 5    1  0.1100736E+001  0.2748475E+03  0.7818608E-02  0.1098537E+00
         -2   -1    0    0    0  501 -0.00000000000E+00  0.00000000000E+00  0.36357277619E+03  0.36357277619E+03  0.00000000000E+00 0.  1.
          2   -1    0    0  501    0  0.00000000000E+00 -0.00000000000E+00 -0.51943621137E+02  0.51943621137E+02  0.00000000000E+00 0.  1.
         35    2    1    2    0    0  0.00000000000E+00  0.00000000000E+00  0.31162915505E+03  0.41551639733E+03  0.27484749620E+03 0.  0.
         25    1    3    3    0    0 -0.37239567454E+02 -0.24335980103E+02  0.80129623782E+02  0.15099596657E+03  0.12000000000E+03 0.  0.
         25    1    3    3    0    0  0.37239567454E+02  0.24335980103E+02  0.23149953127E+03  0.26452043076E+03  0.12000000000E+03 0.  0.
<mgrwt>
<rscale>  0 0.27484750E+03</rscale>
<asrwt>0</asrwt>
<pdfrwt beam="1">  1        2 0.79913266E-02 0.27484750E+03</pdfrwt>
<pdfrwt beam="2">  1       -2 0.55934272E-01 0.27484750E+03</pdfrwt>
<totfact> 0.25957835E+03</totfact>
</mgrwt>
</event>
<event>
 5    1  0.1100736E+001  0.2746936E+03  0.7818608E-02  0.1098623E+00
         -2   -1    0    0    0  501 -0.00000000000E+00  0.00000000000E+00  0.85478261512E+01  0.85478261512E+01  0.00000000000E+00 0.  1.
          2   -1    0    0  501    0  0.00000000000E+00 -0.00000000000E+00 -0.22068931636E+04  0.22068931636E+04  0.00000000000E+00 0.  1.
         35    2    1    2    0    0  0.00000000000E+00  0.00000000000E+00 -0.21983453374E+04  0.22154409897E+04  0.27469356816E+03 0.  0.
         25    1    3    3    0    0  0.29555052786E+02  0.59393664689E+02 -0.11632032186E+04  0.11712569472E+04  0.12000000000E+03 0.  0.
         25    1    3    3    0    0 -0.29555052786E+02 -0.59393664689E+02 -0.10351421188E+04  0.10441840426E+04  0.12000000000E+03 0.  0.
<mgrwt>
<rscale>  0 0.27469357E+03</rscale>
<asrwt>0</asrwt>
<pdfrwt beam="1">  1        2 0.33952246E+00 0.27469357E+03</pdfrwt>
<pdfrwt beam="2">  1       -2 0.13150485E-02 0.27469357E+03</pdfrwt>
<totfact> 0.82580116E+03</totfact>
</mgrwt>
</event>
<event>
 5    1  0.1100736E+001  0.2821360E+03  0.7818608E-02  0.1094528E+00
          1   -1    0    0  501    0  0.00000000000E+00  0.00000000000E+00  0.18175153869E+03  0.18175153869E+03  0.00000000000E+00 0. -1.
         -1   -1    0    0    0  501 -0.00000000000E+00 -0.00000000000E+00 -0.10949116455E+03  0.10949116455E+03  0.00000000000E+00 0. -1.
         35    2    1    2    0    0  0.00000000000E+00  0.00000000000E+00  0.72260374137E+02  0.29124270325E+03  0.28213604967E+03 0.  0.
         25    1    3    3    0    0  0.13497283328E+02  0.66655548139E+02  0.55941532606E+01  0.13804504086E+03  0.12000000000E+03 0.  0.
         25    1    3    3    0    0 -0.13497283328E+02 -0.66655548139E+02  0.66666220877E+02  0.15319766239E+03  0.12000000000E+03 0.  0.
<mgrwt>
<rscale>  0 0.28213605E+03</rscale>
<asrwt>0</asrwt>
<pdfrwt beam="1">  1        1 0.27961775E-01 0.28213605E+03</pdfrwt>
<pdfrwt beam="2">  1       -1 0.16844795E-01 0.28213605E+03</pdfrwt>
<totfact> 0.43964691E+03</totfact>
</mgrwt>
</event>
<event>
 5    1  0.1100736E+001  0.2755093E+03  0.7818608E-02  0.1098167E+00
          4   -1    0    0  501    0  0.00000000000E+00  0.00000000000E+00  0.98617979813E+01  0.98617979813E+01  0.00000000000E+00 0.  1.
         -4   -1    0    0    0  501 -0.00000000000E+00 -0.00000000000E+00 -0.19242271260E+04  0.19242271260E+04  0.00000000000E+00 0.  1.
         35    2    1    2    0    0  0.00000000000E+00  0.00000000000E+00 -0.19143653281E+04  0.19340889240E+04  0.27550926799E+03 0.  0.
         25    1    3    3    0    0  0.45400606857E+02  0.49795768754E+02 -0.91535264786E+03  0.92564102309E+03  0.12000000000E+03 0.  0.
         25    1    3    3    0    0 -0.45400606857E+02 -0.49795768754E+02 -0.99901268021E+03  0.10084479009E+04  0.12000000000E+03 0.  0.
<mgrwt>
<rscale>  0 0.27550927E+03</rscale>
<asrwt>0</asrwt>
<pdfrwt beam="1">  1        4 0.15171994E-02 0.27550927E+03</pdfrwt>
<pdfrwt beam="2">  1       -4 0.29603500E+00 0.27550927E+03</pdfrwt>
<totfact> 0.11138621E+02</totfact>
</mgrwt>
</event>
<event>
 5    1  0.1100736E+001  0.2757838E+03  0.7818608E-02  0.1098014E+00
         -2   -1    0    0    0  501 -0.00000000000E+00  0.00000000000E+00  0.40699738166E+02  0.40699738166E+02  0.00000000000E+00 0. -1.
          2   -1    0    0  501    0  0.00000000000E+00 -0.00000000000E+00 -0.46718162267E+03  0.46718162267E+03  0.00000000000E+00 0. -1.
         35    2    1    2    0    0  0.00000000000E+00  0.00000000000E+00 -0.42648188450E+03  0.50788136083E+03  0.27578375383E+03 0.  0.
         25    1    3    3    0    0 -0.63334435211E+01  0.61948677850E+02 -0.16326558030E+03  0.21197500066E+03  0.12000000000E+03 0.  0.
         25    1    3    3    0    0  0.63334435211E+01 -0.61948677850E+02 -0.26321630420E+03  0.29590636017E+03  0.12000000000E+03 0.  0.
<mgrwt>
<rscale>  0 0.27578375E+03</rscale>
<asrwt>0</asrwt>
<pdfrwt beam="1">  1        2 0.71874093E-01 0.27578375E+03</pdfrwt>
<pdfrwt beam="2">  1       -2 0.62614984E-02 0.27578375E+03</pdfrwt>
<totfact> 0.92561969E+03</totfact>
</mgrwt>
</event>
<event>
 5    1  0.1100736E+001  0.2743567E+03  0.7818608E-02  0.1098812E+00
         -2   -1    0    0    0  501 -0.00000000000E+00  0.00000000000E+00  0.95020698386E+01  0.95020698386E+01  0.00000000000E+00 0. -1.
          2   -1    0    0  501    0  0.00000000000E+00 -0.00000000000E+00 -0.19803993808E+04  0.19803993808E+04  0.00000000000E+00 0. -1.
         35    2    1    2    0    0  0.00000000000E+00  0.00000000000E+00 -0.19708973110E+04  0.19899014506E+04  0.27435665273E+03 0.  0.
         25    1    3    3    0    0  0.55931500387E+02  0.33150491751E+02 -0.10855831378E+04  0.10941288941E+04  0.12000000000E+03 0.  0.
         25    1    3    3    0    0 -0.55931500387E+02 -0.33150491751E+02 -0.88531417314E+03  0.89577255651E+03  0.12000000000E+03 0.  0.
<mgrwt>
<rscale>  0 0.27435665E+03</rscale>
<asrwt>0</asrwt>
<pdfrwt beam="1">  1        2 0.30467677E+00 0.27435665E+03</pdfrwt>
<pdfrwt beam="2">  1       -2 0.14618572E-02 0.27435665E+03</pdfrwt>
<totfact> 0.93206215E+03</totfact>
</mgrwt>
</event>
<event>
 5    1  0.1100736E+001  0.2748073E+03  0.7818608E-02  0.1098559E+00
          1   -1    0    0  501    0  0.00000000000E+00  0.00000000000E+00  0.16439834298E+03  0.16439834298E+03  0.00000000000E+00 0.  1.
         -1   -1    0    0    0  501 -0.00000000000E+00 -0.00000000000E+00 -0.11484158129E+03  0.11484158129E+03  0.00000000000E+00 0.  1.
         35    2    1    2    0    0  0.00000000000E+00  0.00000000000E+00  0.49556761692E+02  0.27923992427E+03  0.27480731918E+03 0.  0.
         25    1    3    3    0    0 -0.36077893725E+02 -0.40796165307E+02  0.64313853078E+02  0.14663632980E+03  0.12000000000E+03 0.  0.
         25    1    3    3    0    0  0.36077893725E+02  0.40796165307E+02 -0.14757091386E+02  0.13260359447E+03  0.12000000000E+03 0.  0.
<mgrwt>
<rscale>  0 0.27480732E+03</rscale>
<asrwt>0</asrwt>
<pdfrwt beam="1">  1        1 0.25292053E-01 0.27480732E+03</pdfrwt>
<pdfrwt beam="2">  1       -1 0.17667936E-01 0.27480732E+03</pdfrwt>
<totfact> 0.46219003E+03</totfact>
</mgrwt>
</event>
<event>
 5    1  0.1100736E+001  0.2746257E+03  0.7818608E-02  0.1098661E+00
         -2   -1    0    0    0  501 -0.00000000000E+00  0.00000000000E+00  0.69963408675E+02  0.69963408675E+02  0.00000000000E+00 0. -1.
          2   -1    0    0  501    0  0.00000000000E+00 -0.00000000000E+00 -0.26949539990E+03  0.26949539990E+03  0.00000000000E+00 0. -1.
         35    2    1    2    0    0  0.00000000000E+00  0.00000000000E+00 -0.19953199123E+03  0.33945880858E+03  0.27462568561E+03 0.  0.
         25    1    3    3    0    0  0.51866369660E+02  0.23958482697E+02 -0.14241853029E+03  0.19480032588E+03  0.12000000000E+03 0.  0.
         25    1    3    3    0    0 -0.51866369660E+02 -0.23958482697E+02 -0.57113460939E+02  0.14465848269E+03  0.12000000000E+03 0.  0.
<mgrwt>
<rscale>  0 0.27462569E+03</rscale>
<asrwt>0</asrwt>
<pdfrwt beam="1">  1        2 0.41460831E-01 0.27462569E+03</pdfrwt>
<pdfrwt beam="2">  1       -2 0.10763601E-01 0.27462569E+03</pdfrwt>
<totfact> 0.71892316E+03</totfact>
</mgrwt>
</event>
<event>
 5    1  0.1100736E+001  0.2752570E+03  0.7818608E-02  0.1098308E+00
          2   -1    0    0  501    0  0.00000000000E+00  0.00000000000E+00  0.39397567384E+04  0.39397567384E+04  0.00000000000E+00 0. -1.
         -2   -1    0    0    0  501 -0.00000000000E+00 -0.00000000000E+00 -0.48078098358E+01  0.48078098358E+01  0.00000000000E+00 0. -1.
         35    2    1    2    0    0  0.00000000000E+00  0.00000000000E+00  0.39349489286E+04  0.39445645482E+04  0.27525697955E+03 0.  0.
         25    1    3    3    0    0 -0.53878000277E+02  0.13375067864E+02  0.25150169156E+04  0.25184899875E+04  0.12000000000E+03 0.  0.
         25    1    3    3    0    0  0.53878000277E+02 -0.13375067864E+02  0.14199320130E+04  0.14260745608E+04  0.12000000000E+03 0.  0.
<mgrwt>
<rscale>  0 0.27525698E+03</rscale>
<asrwt>0</asrwt>
<pdfrwt beam="1">  1        2 0.60611384E+00 0.27525698E+03</pdfrwt>
<pdfrwt beam="2">  1       -2 0.73966620E-03 0.27525698E+03</pdfrwt>
<totfact> 0.16405906E+03</totfact>
</mgrwt>
</event>
<event>
 5    1  0.1100736E+001  0.2752673E+03  0.7818608E-02  0.1098302E+00
          1   -1    0    0  501    0  0.00000000000E+00  0.00000000000E+00  0.93849025231E+03  0.93849025231E+03  0.00000000000E+00 0.  1.
         -1   -1    0    0    0  501 -0.00000000000E+00 -0.00000000000E+00 -0.20184563205E+02  0.20184563205E+02  0.00000000000E+00 0.  1.
         35    2    1    2    0    0  0.00000000000E+00  0.00000000000E+00  0.91830568911E+03  0.95867481552E+03  0.27526725788E+03 0.  0.
         25    1    3    3    0    0  0.38089618575E+02  0.42938901994E+01  0.65223924585E+03  0.66429307566E+03  0.12000000000E+03 0.  0.
         25    1    3    3    0    0 -0.38089618575E+02 -0.42938901994E+01  0.26606644325E+03  0.29438173986E+03  0.12000000000E+03 0.  0.
<mgrwt>
<rscale>  0 0.27526726E+03</rscale>
<asrwt>0</asrwt>
<pdfrwt beam="1">  1        1 0.14438308E+00 0.27526726E+03</pdfrwt>
<pdfrwt beam="2">  1       -1 0.31053181E-02 0.27526726E+03</pdfrwt>
<totfact> 0.63796819E+03</totfact>
</mgrwt>
</event>
<event>
 5    1  0.1100736E+001  0.2759259E+03  0.7818608E-02  0.1097935E+00
         -2   -1    0    0    0  501 -0.00000000000E+00  0.00000000000E+00  0.13674074373E+02  0.13674074373E+02  0.00000000000E+00 0. -1.
          2   -1    0    0  501    0  0.00000000000E+00 -0.00000000000E+00 -0.13919610487E+04  0.13919610487E+04  0.00000000000E+00 0. -1.
         35    2    1    2    0    0  0.00000000000E+00  0.00000000000E+00 -0.13782869743E+04  0.14056351230E+04  0.27592592414E+03 0.  0.
         25    1    3    3    0    0 -0.10733495304E+01  0.67822528157E+02 -0.65999855547E+03  0.67423967595E+03  0.12000000000E+03 0.  0.
         25    1    3    3    0    0  0.10733495304E+01 -0.67822528157E+02 -0.71828841881E+03  0.73139544707E+03  0.12000000000E+03 0.  0.
<mgrwt>
<rscale>  0 0.27592592E+03</rscale>
<asrwt>0</asrwt>
<pdfrwt beam="1">  1        2 0.21414768E+00 0.27592592E+03</pdfrwt>
<pdfrwt beam="2">  1       -2 0.21037055E-02 0.27592592E+03</pdfrwt>
<totfact> 0.11198516E+04</totfact>
</mgrwt>
</event>
<event>
 5    1  0.1100736E+001  0.2732959E+03  0.7818608E-02  0.1099408E+00
         -1   -1    0    0    0  501 -0.00000000000E+00  0.00000000000E+00  0.27693269566E+03  0.27693269566E+03  0.00000000000E+00 0. -1.
          1   -1    0    0  501    0  0.00000000000E+00 -0.00000000000E+00 -0.67426729429E+02  0.67426729429E+02  0.00000000000E+00 0. -1.
         35    2    1    2    0    0  0.00000000000E+00  0.00000000000E+00  0.20950596623E+03  0.34435942509E+03  0.27329592708E+03 0.  0.
         25    1    3    3    0    0 -0.11282768519E+02  0.22364855563E+02  0.18082732489E+03  0.21846283221E+03  0.12000000000E+03 0.  0.
         25    1    3    3    0    0  0.11282768519E+02 -0.22364855563E+02  0.28678641343E+02  0.12589659288E+03  0.12000000000E+03 0.  0.
<mgrwt>
<rscale>  0 0.27329593E+03</rscale>
<asrwt>0</asrwt>
<pdfrwt beam="1">  1        1 0.10373343E-01 0.27329593E+03</pdfrwt>
<pdfrwt beam="2">  1       -1 0.42605029E-01 0.27329593E+03</pdfrwt>
<totfact> 0.33491844E+03</totfact>
</mgrwt>
</event>
<event>
 5    1  0.1100736E+001  0.2750176E+03  0.7818608E-02  0.1098442E+00
         -1   -1    0    0    0  501 -0.00000000000E+00  0.00000000000E+00  0.68924374226E+02  0.68924374226E+02  0.00000000000E+00 0.  1.
          1   -1    0    0  501    0  0.00000000000E+00 -0.00000000000E+00 -0.27433931510E+03  0.27433931510E+03  0.00000000000E+00 0.  1.
         35    2    1    2    0    0  0.00000000000E+00  0.00000000000E+00 -0.20541494087E+03  0.34326368932E+03  0.27501756757E+03 0.  0.
         25    1    3    3    0    0 -0.51238601073E+02 -0.33725029767E+02 -0.68619125786E+02  0.15123278843E+03  0.12000000000E+03 0.  0.
         25    1    3    3    0    0  0.51238601073E+02  0.33725029767E+02 -0.13679581509E+03  0.19203090089E+03  0.12000000000E+03 0.  0.
<mgrwt>
<rscale>  0 0.27501757E+03</rscale>
<asrwt>0</asrwt>
<pdfrwt beam="1">  1        1 0.42206050E-01 0.27501757E+03</pdfrwt>
<pdfrwt beam="2">  1       -1 0.10603750E-01 0.27501757E+03</pdfrwt>
<totfact> 0.54231801E+03</totfact>
</mgrwt>
</event>
<event>
 5    1  0.1100736E+001  0.2745897E+03  0.7818608E-02  0.1098681E+00
         -2   -1    0    0    0  501 -0.00000000000E+00  0.00000000000E+00  0.11072672416E+03  0.11072672416E+03  0.00000000000E+00 0.  1.
          2   -1    0    0  501    0  0.00000000000E+00 -0.00000000000E+00 -0.17023784723E+03  0.17023784723E+03  0.00000000000E+00 0.  1.
         35    2    1    2    0    0  0.00000000000E+00  0.00000000000E+00 -0.59511123071E+02  0.28096457140E+03  0.27458972416E+03 0.  0.
         25    1    3    3    0    0  0.50006470095E+02 -0.25631788491E+02  0.70267875016E+01  0.13269141410E+03  0.12000000000E+03 0.  0.
         25    1    3    3    0    0 -0.50006470095E+02  0.25631788491E+02 -0.66537910572E+02  0.14827315730E+03  0.12000000000E+03 0.  0.
<mgrwt>
<rscale>  0 0.27458972E+03</rscale>
<asrwt>0</asrwt>
<pdfrwt beam="1">  1        2 0.26190438E-01 0.27458972E+03</pdfrwt>
<pdfrwt beam="2">  1       -2 0.17034881E-01 0.27458972E+03</pdfrwt>
<totfact> 0.56021241E+03</totfact>
</mgrwt>
</event>
<event>
 5    1  0.1100736E+001  0.2714527E+03  0.7818608E-02  0.1100451E+00
         -1   -1    0    0    0  501 -0.00000000000E+00  0.00000000000E+00  0.67488353597E+03  0.67488353597E+03  0.00000000000E+00 0.  1.
          1   -1    0    0  501    0  0.00000000000E+00 -0.00000000000E+00 -0.27296022542E+02  0.27296022542E+02  0.00000000000E+00 0.  1.
         35    2    1    2    0    0  0.00000000000E+00  0.00000000000E+00  0.64758751343E+03  0.70217955852E+03  0.27145265673E+03 0.  0.
         25    1    3    3    0    0  0.25642894178E+02 -0.55737593020E+02  0.28229286380E+03  0.31281543800E+03  0.12000000000E+03 0.  0.
         25    1    3    3    0    0 -0.25642894178E+02  0.55737593020E+02  0.36529464963E+03  0.38936412052E+03  0.12000000000E+03 0.  0.
<mgrwt>
<rscale>  0 0.27145266E+03</rscale>
<asrwt>0</asrwt>
<pdfrwt beam="1">  1        1 0.41993886E-02 0.27145266E+03</pdfrwt>
<pdfrwt beam="2">  1       -1 0.10382822E+00 0.27145266E+03</pdfrwt>
<totfact> 0.19642409E+03</totfact>
</mgrwt>
</event>
<event>
 5    1  0.1100736E+001  0.2750697E+03  0.7818608E-02  0.1098413E+00
         -3   -1    0    0    0  501 -0.00000000000E+00  0.00000000000E+00  0.94669141675E+02  0.94669141675E+02  0.00000000000E+00 0.  1.
          1   -1    0    0  501    0  0.00000000000E+00 -0.00000000000E+00 -0.19980992802E+03  0.19980992802E+03  0.00000000000E+00 0.  1.
         35    2    1    2    0    0  0.00000000000E+00  0.00000000000E+00 -0.10514078635E+03  0.29447906970E+03  0.27506969578E+03 0.  0.
         25    1    3    3    0    0  0.18501854063E+02  0.19609472062E+02 -0.11846852353E+03  0.17076779868E+03  0.12000000000E+03 0.  0.
         25    1    3    3    0    0 -0.18501854063E+02 -0.19609472062E+02  0.13327737184E+02  0.12371127102E+03  0.12000000000E+03 0.  0.
<mgrwt>
<rscale>  0 0.27506970E+03</rscale>
<asrwt>0</asrwt>
<pdfrwt beam="1">  1        1 0.30739989E-01 0.27506970E+03</pdfrwt>
<pdfrwt beam="2">  1       -3 0.14564483E-01 0.27506970E+03</pdfrwt>
<totfact> 0.31614655E+03</totfact>
</mgrwt>
</event>
<event>
 5    1  0.1100736E+001  0.2755721E+03  0.7818608E-02  0.1098132E+00
          2   -1    0    0  501    0  0.00000000000E+00  0.00000000000E+00  0.27291707595E+02  0.27291707595E+02  0.00000000000E+00 0.  1.
         -2   -1    0    0    0  501 -0.00000000000E+00 -0.00000000000E+00 -0.69563223545E+03  0.69563223545E+03  0.00000000000E+00 0.  1.
         35    2    1    2    0    0  0.00000000000E+00  0.00000000000E+00 -0.66834052786E+03  0.72292394305E+03  0.27557207089E+03 0.  0.
         25    1    3    3    0    0  0.53061551276E+02 -0.27250825352E+02 -0.25010585742E+03  0.28374473673E+03  0.12000000000E+03 0.  0.
         25    1    3    3    0    0 -0.53061551276E+02  0.27250825352E+02 -0.41823467044E+03  0.43917920632E+03  0.12000000000E+03 0.  0.
<mgrwt>
<rscale>  0 0.27557207E+03</rscale>
<asrwt>0</asrwt>
<pdfrwt beam="1">  1        2 0.41987243E-02 0.27557207E+03</pdfrwt>
<pdfrwt beam="2">  1       -2 0.10702034E+00 0.27557207E+03</pdfrwt>
<totfact> 0.14506238E+03</totfact>
</mgrwt>
</event>
<event>
 5    1  0.1100736E+001  0.2755719E+03  0.7818608E-02  0.1098132E+00
         -1   -1    0    0    0  501 -0.00000000000E+00  0.00000000000E+00  0.33939134400E+02  0.33939134400E+02  0.00000000000E+00 0.  1.
          1   -1    0    0  501    0  0.00000000000E+00 -0.00000000000E+00 -0.55938259761E+03  0.55938259761E+03  0.00000000000E+00 0.  1.
         35    2    1    2    0    0  0.00000000000E+00  0.00000000000E+00 -0.52544346321E+03  0.59332173201E+03  0.27557185024E+03 0.  0.
         25    1    3    3    0    0  0.59241357652E+02 -0.32442639783E+02 -0.27302446721E+03  0.30578492936E+03  0.12000000000E+03 0.  0.
         25    1    3    3    0    0 -0.59241357652E+02  0.32442639783E+02 -0.25241899600E+03  0.28753680264E+03  0.12000000000E+03 0.  0.
<mgrwt>
<rscale>  0 0.27557185E+03</rscale>
<asrwt>0</asrwt>
<pdfrwt beam="1">  1        1 0.86058862E-01 0.27557185E+03</pdfrwt>
<pdfrwt beam="2">  1       -1 0.52214052E-02 0.27557185E+03</pdfrwt>
<totfact> 0.63662079E+03</totfact>
</mgrwt>
</event>
<event>
 5    1  0.1100736E+001  0.2769581E+03  0.7818608E-02  0.1097362E+00
         -2   -1    0    0    0  501 -0.00000000000E+00  0.00000000000E+00  0.84227972256E+01  0.84227972256E+01  0.00000000000E+00 0.  1.
          2   -1    0    0  501    0  0.00000000000E+00 -0.00000000000E+00 -0.22767313095E+04  0.22767313095E+04  0.00000000000E+00 0.  1.
         35    2    1    2    0    0  0.00000000000E+00  0.00000000000E+00 -0.22683085122E+04  0.22851541067E+04  0.27695809182E+03 0.  0.
         25    1    3    3    0    0 -0.17582320853E+02 -0.66809229151E+02 -0.11503122329E+04  0.11586159175E+04  0.12000000000E+03 0.  0.
         25    1    3    3    0    0  0.17582320853E+02  0.66809229151E+02 -0.11179962793E+04  0.11265381892E+04  0.12000000000E+03 0.  0.
<mgrwt>
<rscale>  0 0.27695809E+03</rscale>
<asrwt>0</asrwt>
<pdfrwt beam="1">  1        2 0.35026645E+00 0.27695809E+03</pdfrwt>
<pdfrwt beam="2">  1       -2 0.12958146E-02 0.27695809E+03</pdfrwt>
<totfact> 0.77436383E+03</totfact>
</mgrwt>
</event>
<event>
 5    1  0.1100736E+001  0.2724018E+03  0.7818608E-02  0.1099913E+00
         -1   -1    0    0    0  501 -0.00000000000E+00  0.00000000000E+00  0.17713497960E+02  0.17713497960E+02  0.00000000000E+00 0. -1.
          1   -1    0    0  501    0  0.00000000000E+00 -0.00000000000E+00 -0.10472625526E+04  0.10472625526E+04  0.00000000000E+00 0. -1.
         35    2    1    2    0    0  0.00000000000E+00  0.00000000000E+00 -0.10295490546E+04  0.10649760505E+04  0.27240178479E+03 0.  0.
         25    1    3    3    0    0  0.22589327847E+02 -0.59775512265E+02 -0.54684581646E+03  0.56349244589E+03  0.12000000000E+03 0.  0.
         25    1    3    3    0    0 -0.22589327847E+02  0.59775512265E+02 -0.48270323816E+03  0.50148360465E+03  0.12000000000E+03 0.  0.
<mgrwt>
<rscale>  0 0.27240178E+03</rscale>
<asrwt>0</asrwt>
<pdfrwt beam="1">  1        1 0.16111737E+00 0.27240178E+03</pdfrwt>
<pdfrwt beam="2">  1       -1 0.27251526E-02 0.27240178E+03</pdfrwt>
<totfact> 0.64061329E+03</totfact>
</mgrwt>
</event>
<event>
 5    1  0.1100736E+001  0.2752385E+03  0.7818608E-02  0.1098318E+00
         -1   -1    0    0    0  501 -0.00000000000E+00  0.00000000000E+00  0.22816285776E+02  0.22816285776E+02  0.00000000000E+00 0.  1.
          1   -1    0    0  501    0  0.00000000000E+00 -0.00000000000E+00 -0.83006756395E+03  0.83006756395E+03  0.00000000000E+00 0.  1.
         35    2    1    2    0    0  0.00000000000E+00  0.00000000000E+00 -0.80725127818E+03  0.85288384973E+03  0.27523850568E+03 0.  0.
         25    1    3    3    0    0 -0.21768184297E+02 -0.42334781228E+02 -0.55135868979E+03  0.56627068824E+03  0.12000000000E+03 0.  0.
         25    1    3    3    0    0  0.21768184297E+02  0.42334781228E+02 -0.25589258839E+03  0.28661316149E+03  0.12000000000E+03 0.  0.
<mgrwt>
<rscale>  0 0.27523851E+03</rscale>
<asrwt>0</asrwt>
<pdfrwt beam="1">  1        1 0.12770269E+00 0.27523851E+03</pdfrwt>
<pdfrwt beam="2">  1       -1 0.35101981E-02 0.27523851E+03</pdfrwt>
<totfact> 0.64874135E+03</totfact>
</mgrwt>
</event>
<event>
 5    1  0.1100736E+001  0.2748152E+03  0.7818608E-02  0.1098555E+00
         -1   -1    0    0    0  501 -0.00000000000E+00  0.00000000000E+00  0.83145759543E+02  0.83145759543E+02  0.00000000000E+00 0. -1.
          1   -1    0    0  501    0  0.00000000000E+00 -0.00000000000E+00 -0.22708130350E+03  0.22708130350E+03  0.00000000000E+00 0. -1.
         35    2    1    2    0    0  0.00000000000E+00  0.00000000000E+00 -0.14393554396E+03  0.31022706305E+03  0.27481519214E+03 0.  0.
         25    1    3    3    0    0  0.44240075008E+02 -0.49902512524E+02 -0.78491986065E+02  0.15814056048E+03  0.12000000000E+03 0.  0.
         25    1    3    3    0    0 -0.44240075008E+02  0.49902512524E+02 -0.65443557896E+02  0.15208650257E+03  0.12000000000E+03 0.  0.
<mgrwt>
<rscale>  0 0.27481519E+03</rscale>
<asrwt>0</asrwt>
<pdfrwt beam="1">  1        1 0.34935585E-01 0.27481519E+03</pdfrwt>
<pdfrwt beam="2">  1       -1 0.12791655E-01 0.27481519E+03</pdfrwt>
<totfact> 0.51319676E+03</totfact>
</mgrwt>
</event>
<event>
 5    1  0.1100736E+001  0.2751837E+03  0.7818608E-02  0.1098349E+00
         -2   -1    0    0    0  501 -0.00000000000E+00  0.00000000000E+00  0.51909286147E+03  0.51909286147E+03  0.00000000000E+00 0. -1.
          2   -1    0    0  501    0  0.00000000000E+00 -0.00000000000E+00 -0.36470381820E+02  0.36470381820E+02  0.00000000000E+00 0. -1.
         35    2    1    2    0    0  0.00000000000E+00  0.00000000000E+00  0.48262247965E+03  0.55556324329E+03  0.27518368308E+03 0.  0.
         25    1    3    3    0    0  0.45991823850E+02 -0.17340285546E+01  0.14213379945E+03  0.19162534191E+03  0.12000000000E+03 0.  0.
         25    1    3    3    0    0 -0.45991823850E+02  0.17340285546E+01  0.34048868021E+03  0.36393790138E+03  0.12000000000E+03 0.  0.
<mgrwt>
<rscale>  0 0.27518368E+03</rscale>
<asrwt>0</asrwt>
<pdfrwt beam="1">  1        2 0.56108284E-02 0.27518368E+03</pdfrwt>
<pdfrwt beam="2">  1       -2 0.79860435E-01 0.27518368E+03</pdfrwt>
<totfact> 0.19261150E+03</totfact>
</mgrwt>
</event>
<event>
 5    1  0.1100736E+001  0.2753004E+03  0.7818608E-02  0.1098284E+00
         -1   -1    0    0    0  501 -0.00000000000E+00  0.00000000000E+00  0.86606170516E+02  0.86606170516E+02  0.00000000000E+00 0.  1.
          1   -1    0    0  501    0  0.00000000000E+00 -0.00000000000E+00 -0.21877865044E+03  0.21877865044E+03  0.00000000000E+00 0.  1.
         35    2    1    2    0    0  0.00000000000E+00  0.00000000000E+00 -0.13217247993E+03  0.30538482096E+03  0.27530042576E+03 0.  0.
         25    1    3    3    0    0 -0.65520610940E+02  0.15081645694E+02 -0.71868827686E+02  0.15519515098E+03  0.12000000000E+03 0.  0.
         25    1    3    3    0    0  0.65520610940E+02 -0.15081645694E+02 -0.60303652243E+02  0.15018966998E+03  0.12000000000E+03 0.  0.
<mgrwt>
<rscale>  0 0.27530043E+03</rscale>
<asrwt>0</asrwt>
<pdfrwt beam="1">  1        1 0.33658254E-01 0.27530043E+03</pdfrwt>
<pdfrwt beam="2">  1       -1 0.13324026E-01 0.27530043E+03</pdfrwt>
<totfact> 0.50445708E+03</totfact>
</mgrwt>
</event>
<event>
 5    1  0.1100736E+001  0.2760143E+03  0.7818608E-02  0.1097886E+00
         -2   -1    0    0    0  501 -0.00000000000E+00  0.00000000000E+00  0.24546687021E+02  0.24546687021E+02  0.00000000000E+00 0.  1.
          2   -1    0    0  501    0  0.00000000000E+00 -0.00000000000E+00 -0.77590803664E+03  0.77590803664E+03  0.00000000000E+00 0.  1.
         35    2    1    2    0    0  0.00000000000E+00  0.00000000000E+00 -0.75136134962E+03  0.80045472366E+03  0.27601428755E+03 0.  0.
         25    1    3    3    0    0  0.14848841215E+02 -0.36223554320E+02 -0.53749550728E+03  0.55211779026E+03  0.12000000000E+03 0.  0.
         25    1    3    3    0    0 -0.14848841215E+02  0.36223554320E+02 -0.21386584234E+03  0.24833693340E+03  0.12000000000E+03 0.  0.
<mgrwt>
<rscale>  0 0.27601429E+03</rscale>
<asrwt>0</asrwt>
<pdfrwt beam="1">  1        2 0.11937045E+00 0.27601429E+03</pdfrwt>
<pdfrwt beam="2">  1       -2 0.37764140E-02 0.27601429E+03</pdfrwt>
<totfact> 0.11021187E+04</totfact>
</mgrwt>
</event>
<event>
 5    1  0.1100736E+001  0.2726767E+03  0.7818608E-02  0.1099757E+00
          2   -1    0    0  501    0  0.00000000000E+00  0.00000000000E+00  0.40604384718E+03  0.40604384718E+03  0.00000000000E+00 0.  1.
         -2   -1    0    0    0  501 -0.00000000000E+00 -0.00000000000E+00 -0.45778653945E+02  0.45778653945E+02  0.00000000000E+00 0.  1.
         35    2    1    2    0    0  0.00000000000E+00  0.00000000000E+00  0.36026519323E+03  0.45182250112E+03  0.27267666395E+03 0.  0.
         25    1    3    3    0    0 -0.16822170545E+02  0.59133942333E+02  0.21361577697E+03  0.25260939952E+03  0.12000000000E+03 0.  0.
         25    1    3    3    0    0  0.16822170545E+02 -0.59133942333E+02  0.14664941626E+03  0.19921310160E+03  0.12000000000E+03 0.  0.
<mgrwt>
<rscale>  0 0.27267666E+03</rscale>
<asrwt>0</asrwt>
<pdfrwt beam="1">  1        2 0.62468282E-01 0.27267666E+03</pdfrwt>
<pdfrwt beam="2">  1       -2 0.70428701E-02 0.27267666E+03</pdfrwt>
<totfact> 0.89996368E+03</totfact>
</mgrwt>
</event>
<event>
 5    1  0.1100736E+001  0.2767501E+03  0.7818608E-02  0.1097477E+00
         -1   -1    0    0    0  501 -0.00000000000E+00  0.00000000000E+00  0.49486237545E+03  0.49486237545E+03  0.00000000000E+00 0.  1.
          1   -1    0    0  501    0  0.00000000000E+00 -0.00000000000E+00 -0.38692881913E+02  0.38692881913E+02  0.00000000000E+00 0.  1.
         35    2    1    2    0    0  0.00000000000E+00  0.00000000000E+00  0.45616949353E+03  0.53355525736E+03  0.27675007827E+03 0.  0.
         25    1    3    3    0    0 -0.57179641680E+02 -0.38283958827E+02  0.23489515843E+03  0.27260027215E+03  0.12000000000E+03 0.  0.
         25    1    3    3    0    0  0.57179641680E+02  0.38283958827E+02  0.22127433511E+03  0.26095498521E+03  0.12000000000E+03 0.  0.
<mgrwt>
<rscale>  0 0.27675008E+03</rscale>
<asrwt>0</asrwt>
<pdfrwt beam="1">  1        1 0.59527514E-02 0.27675008E+03</pdfrwt>
<pdfrwt beam="2">  1       -1 0.76132669E-01 0.27675008E+03</pdfrwt>
<totfact> 0.23570075E+03</totfact>
</mgrwt>
</event>
<event>
 5    1  0.1100736E+001  0.2751781E+03  0.7818608E-02  0.1098352E+00
          2   -1    0    0  501    0  0.00000000000E+00  0.00000000000E+00  0.37090892312E+03  0.37090892312E+03  0.00000000000E+00 0. -1.
         -2   -1    0    0    0  501 -0.00000000000E+00 -0.00000000000E+00 -0.51038818117E+02  0.51038818117E+02  0.00000000000E+00 0. -1.
         35    2    1    2    0    0  0.00000000000E+00  0.00000000000E+00  0.31987010500E+03  0.42194774124E+03  0.27517814641E+03 0.  0.
         25    1    3    3    0    0 -0.46125691067E+02  0.46463591673E+02  0.13596804182E+03  0.19280496135E+03  0.12000000000E+03 0.  0.
         25    1    3    3    0    0  0.46125691067E+02 -0.46463591673E+02  0.18390206319E+03  0.22914277988E+03  0.12000000000E+03 0.  0.
<mgrwt>
<rscale>  0 0.27517815E+03</rscale>
<asrwt>0</asrwt>
<pdfrwt beam="1">  1        2 0.57062909E-01 0.27517815E+03</pdfrwt>
<pdfrwt beam="2">  1       -2 0.78521261E-02 0.27517815E+03</pdfrwt>
<totfact> 0.83862545E+03</totfact>
</mgrwt>
</event>
<event>
 5    1  0.1100736E+001  0.2624496E+03  0.7818608E-02  0.1105680E+00
         -1   -1    0    0    0  501 -0.00000000000E+00  0.00000000000E+00  0.21736002698E+03  0.21736002698E+03  0.00000000000E+00 0. -1.
          1   -1    0    0  501    0  0.00000000000E+00 -0.00000000000E+00 -0.79223155156E+02  0.79223155156E+02  0.00000000000E+00 0. -1.
         35    2    1    2    0    0  0.00000000000E+00  0.00000000000E+00  0.13813687183E+03  0.29658318214E+03  0.26244959243E+03 0.  0.
         25    1    3    3    0    0  0.20389009935E+02 -0.23141153596E+02  0.11791938623E+03  0.17104445728E+03  0.12000000000E+03 0.  0.
         25    1    3    3    0    0 -0.20389009935E+02  0.23141153596E+02  0.20217485593E+02  0.12553872486E+03  0.12000000000E+03 0.  0.
<mgrwt>
<rscale>  0 0.26244959E+03</rscale>
<asrwt>0</asrwt>
<pdfrwt beam="1">  1        1 0.12188178E-01 0.26244959E+03</pdfrwt>
<pdfrwt beam="2">  1       -1 0.33440004E-01 0.26244959E+03</pdfrwt>
<totfact> 0.41296343E+03</totfact>
</mgrwt>
</event>
<event>
 5    1  0.1100736E+001  0.2710784E+03  0.7818608E-02  0.1100664E+00
          2   -1    0    0  501    0  0.00000000000E+00  0.00000000000E+00  0.39914611081E+03  0.39914611081E+03  0.00000000000E+00 0.  1.
         -2   -1    0    0    0  501 -0.00000000000E+00 -0.00000000000E+00 -0.46025436271E+02  0.46025436271E+02  0.00000000000E+00 0.  1.
         35    2    1    2    0    0  0.00000000000E+00  0.00000000000E+00  0.35312067454E+03  0.44517154708E+03  0.27107839372E+03 0.  0.
         25    1    3    3    0    0  0.47594269325E+02 -0.41113298227E+02  0.18299570363E+03  0.22769045942E+03  0.12000000000E+03 0.  0.
         25    1    3    3    0    0 -0.47594269325E+02  0.41113298227E+02  0.17012497091E+03  0.21748108766E+03  0.12000000000E+03 0.  0.
<mgrwt>
<rscale>  0 0.27107839E+03</rscale>
<asrwt>0</asrwt>
<pdfrwt beam="1">  1        2 0.61407092E-01 0.27107839E+03</pdfrwt>
<pdfrwt beam="2">  1       -2 0.70808366E-02 0.27107839E+03</pdfrwt>
<totfact> 0.90906981E+03</totfact>
</mgrwt>
</event>
<event>
 5    1  0.1100736E+001  0.2746049E+03  0.7818608E-02  0.1098673E+00
         -1   -1    0    0    0  501 -0.00000000000E+00  0.00000000000E+00  0.11249556930E+03  0.11249556930E+03  0.00000000000E+00 0.  1.
          1   -1    0    0  501    0  0.00000000000E+00 -0.00000000000E+00 -0.16757965315E+03  0.16757965315E+03  0.00000000000E+00 0.  1.
         35    2    1    2    0    0  0.00000000000E+00  0.00000000000E+00 -0.55084083856E+02  0.28007522245E+03  0.27460494158E+03 0.  0.
         25    1    3    3    0    0  0.53921528620E+01 -0.64573461912E+02 -0.43770038392E+02  0.14322926920E+03  0.12000000000E+03 0.  0.
         25    1    3    3    0    0 -0.53921528620E+01  0.64573461912E+02 -0.11314045464E+02  0.13684595325E+03  0.12000000000E+03 0.  0.
<mgrwt>
<rscale>  0 0.27460494E+03</rscale>
<asrwt>0</asrwt>
<pdfrwt beam="1">  1        1 0.25781485E-01 0.27460494E+03</pdfrwt>
<pdfrwt beam="2">  1       -1 0.17307011E-01 0.27460494E+03</pdfrwt>
<totfact> 0.46625455E+03</totfact>
</mgrwt>
</event>
<event>
 5    1  0.1100736E+001  0.2751537E+03  0.7818608E-02  0.1098366E+00
          2   -1    0    0  501    0  0.00000000000E+00  0.00000000000E+00  0.48801324510E+03  0.48801324510E+03  0.00000000000E+00 0. -1.
         -2   -1    0    0    0  501 -0.00000000000E+00 -0.00000000000E+00 -0.38784569643E+02  0.38784569643E+02  0.00000000000E+00 0. -1.
         35    2    1    2    0    0  0.00000000000E+00  0.00000000000E+00  0.44922867545E+03  0.52679781474E+03  0.27515365664E+03 0.  0.
         25    1    3    3    0    0  0.67241467681E+02  0.15712006745E+01  0.22819617136E+03  0.26645332851E+03  0.12000000000E+03 0.  0.
         25    1    3    3    0    0 -0.67241467681E+02 -0.15712006745E+01  0.22103250409E+03  0.26034448623E+03  0.12000000000E+03 0.  0.
<mgrwt>
<rscale>  0 0.27515366E+03</rscale>
<asrwt>0</asrwt>
<pdfrwt beam="1">  1        2 0.75078956E-01 0.27515366E+03</pdfrwt>
<pdfrwt beam="2">  1       -2 0.59668572E-02 0.27515366E+03</pdfrwt>
<totfact> 0.94952186E+03</totfact>
</mgrwt>
</event>
<event>
 5    1  0.1100736E+001  0.2750355E+03  0.7818608E-02  0.1098432E+00
          1   -1    0    0  501    0  0.00000000000E+00  0.00000000000E+00  0.15573880579E+04  0.15573880579E+04  0.00000000000E+00 0. -1.
         -1   -1    0    0    0  501 -0.00000000000E+00 -0.00000000000E+00 -0.12142849419E+02  0.12142849419E+02  0.00000000000E+00 0. -1.
         35    2    1    2    0    0  0.00000000000E+00  0.00000000000E+00  0.15452452085E+04  0.15695309073E+04  0.27503547898E+03 0.  0.
         25    1    3    3    0    0 -0.61182781862E+02 -0.27455916833E+02  0.75129430737E+03  0.76376717424E+03  0.12000000000E+03 0.  0.
         25    1    3    3    0    0  0.61182781862E+02  0.27455916833E+02  0.79395090109E+03  0.80576373305E+03  0.12000000000E+03 0.  0.
<mgrwt>
<rscale>  0 0.27503548E+03</rscale>
<asrwt>0</asrwt>
<pdfrwt beam="1">  1        1 0.23959801E+00 0.27503548E+03</pdfrwt>
<pdfrwt beam="2">  1       -1 0.18681319E-02 0.27503548E+03</pdfrwt>
<totfact> 0.49683381E+03</totfact>
</mgrwt>
</event>
<event>
 5    1  0.1100736E+001  0.2762955E+03  0.7818608E-02  0.1097730E+00
         -1   -1    0    0    0  501 -0.00000000000E+00  0.00000000000E+00  0.22990836943E+02  0.22990836943E+02  0.00000000000E+00 0. -1.
          1   -1    0    0  501    0  0.00000000000E+00 -0.00000000000E+00 -0.83010492412E+03  0.83010492412E+03  0.00000000000E+00 0. -1.
         35    2    1    2    0    0  0.00000000000E+00  0.00000000000E+00 -0.80711408718E+03  0.85309576106E+03  0.27629554435E+03 0.  0.
         25    1    3    3    0    0  0.60815445711E+02  0.21800792792E+02 -0.47335461020E+03  0.49258337366E+03  0.12000000000E+03 0.  0.
         25    1    3    3    0    0 -0.60815445711E+02 -0.21800792792E+02 -0.33375947698E+03  0.36051238741E+03  0.12000000000E+03 0.  0.
<mgrwt>
<rscale>  0 0.27629554E+03</rscale>
<asrwt>0</asrwt>
<pdfrwt beam="1">  1        1 0.12770843E+00 0.27629554E+03</pdfrwt>
<pdfrwt beam="2">  1       -1 0.35370525E-02 0.27629554E+03</pdfrwt>
<totfact> 0.64147074E+03</totfact>
</mgrwt>
</event>
<event>
 5    1  0.1100736E+001  0.2721553E+03  0.7818608E-02  0.1100052E+00
          2   -1    0    0  501    0  0.00000000000E+00  0.00000000000E+00  0.42160320267E+03  0.42160320267E+03  0.00000000000E+00 0.  1.
         -2   -1    0    0    0  501 -0.00000000000E+00 -0.00000000000E+00 -0.43920741473E+02  0.43920741473E+02  0.00000000000E+00 0.  1.
         35    2    1    2    0    0  0.00000000000E+00  0.00000000000E+00  0.37768246120E+03  0.46552394415E+03  0.27215528853E+03 0.  0.
         25    1    3    3    0    0 -0.31351656111E+02 -0.55595944541E+02  0.20009552909E+03  0.24189265419E+03  0.12000000000E+03 0.  0.
         25    1    3    3    0    0  0.31351656111E+02  0.55595944541E+02  0.17758693211E+03  0.22363128996E+03  0.12000000000E+03 0.  0.
<mgrwt>
<rscale>  0 0.27215529E+03</rscale>
<asrwt>0</asrwt>
<pdfrwt beam="1">  1        2 0.64862029E-01 0.27215529E+03</pdfrwt>
<pdfrwt beam="2">  1       -2 0.67570374E-02 0.27215529E+03</pdfrwt>
<totfact> 0.92092065E+03</totfact>
</mgrwt>
</event>
<event>
 5    1  0.1100736E+001  0.2749790E+03  0.7818608E-02  0.1098463E+00
         -2   -1    0    0    0  501 -0.00000000000E+00  0.00000000000E+00  0.99248967899E+01  0.99248967899E+01  0.00000000000E+00 0. -1.
          2   -1    0    0  501    0  0.00000000000E+00 -0.00000000000E+00 -0.19046401793E+04  0.19046401793E+04  0.00000000000E+00 0. -1.
         35    2    1    2    0    0  0.00000000000E+00  0.00000000000E+00 -0.18947152825E+04  0.19145650761E+04  0.27497896066E+03 0.  0.
         25    1    3    3    0    0 -0.29439705189E+02  0.28959354826E+02 -0.13156526386E+04  0.13217591331E+04  0.12000000000E+03 0.  0.
         25    1    3    3    0    0  0.29439705189E+02 -0.28959354826E+02 -0.57906264388E+03  0.59280594296E+03  0.12000000000E+03 0.  0.
<mgrwt>
<rscale>  0 0.27497896E+03</rscale>
<asrwt>0</asrwt>
<pdfrwt beam="1">  1        2 0.29302148E+00 0.27497896E+03</pdfrwt>
<pdfrwt beam="2">  1       -2 0.15269076E-02 0.27497896E+03</pdfrwt>
<totfact> 0.95850955E+03</totfact>
</mgrwt>
</event>
<event>
 5    1  0.1100736E+001  0.2765717E+03  0.7818608E-02  0.1097576E+00
         -2   -1    0    0    0  501 -0.00000000000E+00  0.00000000000E+00  0.38389674421E+02  0.38389674421E+02  0.00000000000E+00 0.  1.
          2   -1    0    0  501    0  0.00000000000E+00 -0.00000000000E+00 -0.49812825333E+03  0.49812825333E+03  0.00000000000E+00 0.  1.
         35    2    1    2    0    0  0.00000000000E+00  0.00000000000E+00 -0.45973857891E+03  0.53651792775E+03  0.27657173728E+03 0.  0.
         25    1    3    3    0    0 -0.52474270369E+02 -0.39943345590E+02 -0.26738299116E+03  0.30040420082E+03  0.12000000000E+03 0.  0.
         25    1    3    3    0    0  0.52474270369E+02  0.39943345590E+02 -0.19235558775E+03  0.23611372693E+03  0.12000000000E+03 0.  0.
<mgrwt>
<rscale>  0 0.27657174E+03</rscale>
<asrwt>0</asrwt>
<pdfrwt beam="1">  1        2 0.76635115E-01 0.27657174E+03</pdfrwt>
<pdfrwt beam="2">  1       -2 0.59061038E-02 0.27657174E+03</pdfrwt>
<totfact> 0.94288713E+03</totfact>
</mgrwt>
</event>
<event>
 5    1  0.1100736E+001  0.2743359E+03  0.7818608E-02  0.1098823E+00
          2   -1    0    0  501    0  0.00000000000E+00  0.00000000000E+00  0.15518729558E+04  0.15518729558E+04  0.00000000000E+00 0. -1.
         -2   -1    0    0    0  501 -0.00000000000E+00 -0.00000000000E+00 -0.12124093388E+02  0.12124093388E+02  0.00000000000E+00 0. -1.
         35    2    1    2    0    0  0.00000000000E+00  0.00000000000E+00  0.15397488624E+04  0.15639970491E+04  0.27433594472E+03 0.  0.
         25    1    3    3    0    0  0.53899144477E+02  0.33070103084E+02  0.65355344849E+03  0.66748098065E+03  0.12000000000E+03 0.  0.
         25    1    3    3    0    0 -0.53899144477E+02 -0.33070103084E+02  0.88619541388E+03  0.89651606850E+03  0.12000000000E+03 0.  0.
<mgrwt>
<rscale>  0 0.27433594E+03</rscale>
<asrwt>0</asrwt>
<pdfrwt beam="1">  1        2 0.23874953E+00 0.27433594E+03</pdfrwt>
<pdfrwt beam="2">  1       -2 0.18652464E-02 0.27433594E+03</pdfrwt>
<totfact> 0.10965102E+04</totfact>
</mgrwt>
</event>
<event>
 5    1  0.1100736E+001  0.2756544E+03  0.7818608E-02  0.1098086E+00
          2   -1    0    0  501    0  0.00000000000E+00  0.00000000000E+00  0.13263026362E+04  0.13263026362E+04  0.00000000000E+00 0. -1.
         -2   -1    0    0    0  501 -0.00000000000E+00 -0.00000000000E+00 -0.14322781225E+02  0.14322781225E+02  0.00000000000E+00 0. -1.
         35    2    1    2    0    0  0.00000000000E+00  0.00000000000E+00  0.13119798550E+04  0.13406254174E+04  0.27565443944E+03 0.  0.
         25    1    3    3    0    0 -0.21803792620E+01 -0.21082896020E+02  0.34279500802E+03  0.36380992301E+03  0.12000000000E+03 0.  0.
         25    1    3    3    0    0  0.21803792620E+01  0.21082896020E+02  0.96918484694E+03  0.97681549440E+03  0.12000000000E+03 0.  0.
<mgrwt>
<rscale>  0 0.27565444E+03</rscale>
<asrwt>0</asrwt>
<pdfrwt beam="1">  1        2 0.20404646E+00 0.27565444E+03</pdfrwt>
<pdfrwt beam="2">  1       -2 0.22035058E-02 0.27565444E+03</pdfrwt>
<totfact> 0.11360673E+04</totfact>
</mgrwt>
</event>
<event>
 5    1  0.1100736E+001  0.2731399E+03  0.7818608E-02  0.1099496E+00
          3   -1    0    0  501    0  0.00000000000E+00  0.00000000000E+00  0.82442930121E+03  0.82442930121E+03  0.00000000000E+00 0.  1.
         -3   -1    0    0    0  501 -0.00000000000E+00 -0.00000000000E+00 -0.22623354932E+02  0.22623354932E+02  0.00000000000E+00 0.  1.
         35    2    1    2    0    0  0.00000000000E+00  0.00000000000E+00  0.80180594628E+03  0.84705265614E+03  0.27313993994E+03 0.  0.
         25    1    3    3    0    0  0.46273671622E+02 -0.45788204191E+02  0.38948984774E+03  0.41272285353E+03  0.12000000000E+03 0.  0.
         25    1    3    3    0    0 -0.46273671622E+02  0.45788204191E+02  0.41231609854E+03  0.43432980262E+03  0.12000000000E+03 0.  0.
<mgrwt>
<rscale>  0 0.27313994E+03</rscale>
<asrwt>0</asrwt>
<pdfrwt beam="1">  1        3 0.12683525E+00 0.27313994E+03</pdfrwt>
<pdfrwt beam="2">  1       -3 0.34805168E-02 0.27313994E+03</pdfrwt>
<totfact> 0.53141197E+02</totfact>
</mgrwt>
</event>
<event>
 5    1  0.1100736E+001  0.2752859E+03  0.7818608E-02  0.1098292E+00
         -1   -1    0    0    0  501 -0.00000000000E+00  0.00000000000E+00  0.66473292537E+02  0.66473292537E+02  0.00000000000E+00 0.  1.
          1   -1    0    0  501    0  0.00000000000E+00 -0.00000000000E+00 -0.28501038798E+03  0.28501038798E+03  0.00000000000E+00 0.  1.
         35    2    1    2    0    0  0.00000000000E+00  0.00000000000E+00 -0.21853709544E+03  0.35148368052E+03  0.27528587974E+03 0.  0.
         25    1    3    3    0    0 -0.33475007186E+01 -0.45909922219E+02 -0.46372262565E+02  0.13663569612E+03  0.12000000000E+03 0.  0.
         25    1    3    3    0    0  0.33475007186E+01  0.45909922219E+02 -0.17216483288E+03  0.21484798440E+03  0.12000000000E+03 0.  0.
<mgrwt>
<rscale>  0 0.27528588E+03</rscale>
<asrwt>0</asrwt>
<pdfrwt beam="1">  1        1 0.43847753E-01 0.27528588E+03</pdfrwt>
<pdfrwt beam="2">  1       -1 0.10226660E-01 0.27528588E+03</pdfrwt>
<totfact> 0.54679269E+03</totfact>
</mgrwt>
</event>
<event>
 5    1  0.1100736E+001  0.2751163E+03  0.7818608E-02  0.1098387E+00
          2   -1    0    0  501    0  0.00000000000E+00  0.00000000000E+00  0.47415784099E+03  0.47415784099E+03  0.00000000000E+00 0. -1.
         -2   -1    0    0    0  501 -0.00000000000E+00 -0.00000000000E+00 -0.39907053814E+02  0.39907053814E+02  0.00000000000E+00 0. -1.
         35    2    1    2    0    0  0.00000000000E+00  0.00000000000E+00  0.43425078717E+03  0.51406489480E+03  0.27511628434E+03 0.  0.
         25    1    3    3    0    0  0.53800704890E+02  0.40344210814E+02  0.21662651189E+03  0.25661102246E+03  0.12000000000E+03 0.  0.
         25    1    3    3    0    0 -0.53800704890E+02 -0.40344210814E+02  0.21762427528E+03  0.25745387234E+03  0.12000000000E+03 0.  0.
<mgrwt>
<rscale>  0 0.27511628E+03</rscale>
<asrwt>0</asrwt>
<pdfrwt beam="1">  1        2 0.72947356E-01 0.27511628E+03</pdfrwt>
<pdfrwt beam="2">  1       -2 0.61395471E-02 0.27511628E+03</pdfrwt>
<totfact> 0.93840731E+03</totfact>
</mgrwt>
</event>
<event>
 5    1  0.1100736E+001  0.2745978E+03  0.7818608E-02  0.1098677E+00
         -2   -1    0    0    0  501 -0.00000000000E+00  0.00000000000E+00  0.17855394276E+02  0.17855394276E+02  0.00000000000E+00 0.  1.
          2   -1    0    0  501    0  0.00000000000E+00 -0.00000000000E+00 -0.10557590310E+04  0.10557590310E+04  0.00000000000E+00 0.  1.
         35    2    1    2    0    0  0.00000000000E+00  0.00000000000E+00 -0.10379036367E+04  0.10736144252E+04  0.27459784237E+03 0.  0.
         25    1    3    3    0    0  0.37221586956E+02  0.45979554083E+02 -0.39835408566E+03  0.42022082706E+03  0.12000000000E+03 0.  0.
         25    1    3    3    0    0 -0.37221586956E+02 -0.45979554083E+02 -0.63954955103E+03  0.65339359819E+03  0.12000000000E+03 0.  0.
<mgrwt>
<rscale>  0 0.27459784E+03</rscale>
<asrwt>0</asrwt>
<pdfrwt beam="1">  1        2 0.16242448E+00 0.27459784E+03</pdfrwt>
<pdfrwt beam="2">  1       -2 0.27469835E-02 0.27459784E+03</pdfrwt>
<totfact> 0.11702252E+04</totfact>
</mgrwt>
</event>
<event>
 5    1  0.1100736E+001  0.2756125E+03  0.7818608E-02  0.1098110E+00
         -1   -1    0    0    0  501 -0.00000000000E+00  0.00000000000E+00  0.17617099602E+02  0.17617099602E+02  0.00000000000E+00 0. -1.
          1   -1    0    0  501    0  0.00000000000E+00 -0.00000000000E+00 -0.10779618140E+04  0.10779618140E+04  0.00000000000E+00 0. -1.
         35    2    1    2    0    0  0.00000000000E+00  0.00000000000E+00 -0.10603447144E+04  0.10955789136E+04  0.27561248626E+03 0.  0.
         25    1    3    3    0    0 -0.47636676276E+02 -0.25907370657E+02 -0.69164613123E+03  0.70407017805E+03  0.12000000000E+03 0.  0.
         25    1    3    3    0    0  0.47636676276E+02  0.25907370657E+02 -0.36869858320E+03  0.39150873558E+03  0.12000000000E+03 0.  0.
<mgrwt>
<rscale>  0 0.27561249E+03</rscale>
<asrwt>0</asrwt>
<pdfrwt beam="1">  1        1 0.16584033E+00 0.27561249E+03</pdfrwt>
<pdfrwt beam="2">  1       -1 0.27103221E-02 0.27561249E+03</pdfrwt>
<totfact> 0.61343119E+03</totfact>
</mgrwt>
</event>
<event>
 5    1  0.1100736E+001  0.2755547E+03  0.7818608E-02  0.1098142E+00
          3   -1    0    0  501    0  0.00000000000E+00  0.00000000000E+00  0.91450932326E+03  0.91450932326E+03  0.00000000000E+00 0. -1.
         -3   -1    0    0    0  501 -0.00000000000E+00 -0.00000000000E+00 -0.20757143233E+02  0.20757143233E+02  0.00000000000E+00 0. -1.
         35    2    1    2    0    0  0.00000000000E+00  0.00000000000E+00  0.89375218003E+03  0.93526646650E+03  0.27555472060E+03 0.  0.
         25    1    3    3    0    0 -0.34873253626E+02  0.54769057536E+02  0.38187111006E+03  0.40551367201E+03  0.12000000000E+03 0.  0.
         25    1    3    3    0    0  0.34873253626E+02 -0.54769057536E+02  0.51188106996E+03  0.52975279449E+03  0.12000000000E+03 0.  0.
<mgrwt>
<rscale>  0 0.27555472E+03</rscale>
<asrwt>0</asrwt>
<pdfrwt beam="1">  1        3 0.14069371E+00 0.27555472E+03</pdfrwt>
<pdfrwt beam="2">  1       -3 0.31934074E-02 0.27555472E+03</pdfrwt>
<totfact> 0.47227480E+02</totfact>
</mgrwt>
</event>
<event>
 5    1  0.1100736E+001  0.2749072E+03  0.7818608E-02  0.1098503E+00
         -1   -1    0    0    0  501 -0.00000000000E+00  0.00000000000E+00  0.14511907537E+02  0.14511907537E+02  0.00000000000E+00 0. -1.
          1   -1    0    0  501    0  0.00000000000E+00 -0.00000000000E+00 -0.13019301920E+04  0.13019301920E+04  0.00000000000E+00 0. -1.
         35    2    1    2    0    0  0.00000000000E+00  0.00000000000E+00 -0.12874182844E+04  0.13164420995E+04  0.27490718845E+03 0.  0.
         25    1    3    3    0    0  0.60025251054E+02 -0.28176128278E+02 -0.59665185562E+03  0.61220124288E+03  0.12000000000E+03 0.  0.
         25    1    3    3    0    0 -0.60025251054E+02  0.28176128278E+02 -0.69076642882E+03  0.70424085664E+03  0.12000000000E+03 0.  0.
<mgrwt>
<rscale>  0 0.27490719E+03</rscale>
<asrwt>0</asrwt>
<pdfrwt beam="1">  1        1 0.20029696E+00 0.27490719E+03</pdfrwt>
<pdfrwt beam="2">  1       -1 0.22326011E-02 0.27490719E+03</pdfrwt>
<totfact> 0.56759522E+03</totfact>
</mgrwt>
</event>
<event>
 5    1  0.1100736E+001  0.2758826E+03  0.7818608E-02  0.1097959E+00
         -2   -1    0    0    0  501 -0.00000000000E+00  0.00000000000E+00  0.75708378243E+02  0.75708378243E+02  0.00000000000E+00 0.  1.
          2   -1    0    0  501    0  0.00000000000E+00 -0.00000000000E+00 -0.25133020766E+03  0.25133020766E+03  0.00000000000E+00 0.  1.
         35    2    1    2    0    0  0.00000000000E+00  0.00000000000E+00 -0.17562182942E+03  0.32703858591E+03  0.27588260131E+03 0.  0.
         25    1    3    3    0    0  0.41276172634E+02  0.31055170615E+02 -0.14028738874E+03  0.19169949788E+03  0.12000000000E+03 0.  0.
         25    1    3    3    0    0 -0.41276172634E+02 -0.31055170615E+02 -0.35334440684E+02  0.13533908803E+03  0.12000000000E+03 0.  0.
<mgrwt>
<rscale>  0 0.27588260E+03</rscale>
<asrwt>0</asrwt>
<pdfrwt beam="1">  1        2 0.38666186E-01 0.27588260E+03</pdfrwt>
<pdfrwt beam="2">  1       -2 0.11647443E-01 0.27588260E+03</pdfrwt>
<totfact> 0.68301918E+03</totfact>
</mgrwt>
</event>
<event>
 5    1  0.1100736E+001  0.2738542E+03  0.7818608E-02  0.1099094E+00
          2   -1    0    0  501    0  0.00000000000E+00  0.00000000000E+00  0.14404283202E+03  0.14404283202E+03  0.00000000000E+00 0. -1.
         -2   -1    0    0    0  501 -0.00000000000E+00 -0.00000000000E+00 -0.13016287402E+03  0.13016287402E+03  0.00000000000E+00 0. -1.
         35    2    1    2    0    0  0.00000000000E+00  0.00000000000E+00  0.13879957994E+02  0.27420570604E+03  0.27385418746E+03 0.  0.
         25    1    3    3    0    0 -0.82763322478E+01 -0.64989670896E+02  0.14491144448E+02  0.13748508379E+03  0.12000000000E+03 0.  0.
         25    1    3    3    0    0  0.82763322478E+01  0.64989670896E+02 -0.61118645381E+00  0.13672062225E+03  0.12000000000E+03 0.  0.
<mgrwt>
<rscale>  0 0.27385419E+03</rscale>
<asrwt>0</asrwt>
<pdfrwt beam="1">  1        2 0.22160436E-01 0.27385419E+03</pdfrwt>
<pdfrwt beam="2">  1       -2 0.20025058E-01 0.27385419E+03</pdfrwt>
<totfact> 0.51382469E+03</totfact>
</mgrwt>
</event>
<event>
 5    1  0.1100736E+001  0.2750911E+03  0.7818608E-02  0.1098401E+00
          1   -1    0    0  501    0  0.00000000000E+00  0.00000000000E+00  0.94983742674E+02  0.94983742674E+02  0.00000000000E+00 0.  1.
         -1   -1    0    0    0  501 -0.00000000000E+00 -0.00000000000E+00 -0.19917916253E+03  0.19917916253E+03  0.00000000000E+00 0.  1.
         35    2    1    2    0    0  0.00000000000E+00  0.00000000000E+00 -0.10419541985E+03  0.29416290520E+03  0.27509112904E+03 0.  0.
         25    1    3    3    0    0 -0.33885761110E+02 -0.27373251401E+02  0.26498705614E+01  0.12768931636E+03  0.12000000000E+03 0.  0.
         25    1    3    3    0    0  0.33885761110E+02  0.27373251401E+02 -0.10684529042E+03  0.16647358884E+03  0.12000000000E+03 0.  0.
<mgrwt>
<rscale>  0 0.27509113E+03</rscale>
<asrwt>0</asrwt>
<pdfrwt beam="1">  1        1 0.14612883E-01 0.27509113E+03</pdfrwt>
<pdfrwt beam="2">  1       -1 0.30642948E-01 0.27509113E+03</pdfrwt>
<totfact> 0.37802604E+03</totfact>
</mgrwt>
</event>
<event>
 5    1  0.1100736E+001  0.2754107E+03  0.7818608E-02  0.1098222E+00
         -1   -1    0    0    0  501 -0.00000000000E+00  0.00000000000E+00  0.32800597330E+03  0.32800597330E+03  0.00000000000E+00 0. -1.
          1   -1    0    0  501    0  0.00000000000E+00 -0.00000000000E+00 -0.57812267007E+02  0.57812267007E+02  0.00000000000E+00 0. -1.
         35    2    1    2    0    0  0.00000000000E+00  0.00000000000E+00  0.27019370630E+03  0.38581824031E+03  0.27541073987E+03 0.  0.
         25    1    3    3    0    0  0.54636291709E+02 -0.26240280149E+02  0.17686789355E+03  0.22216194193E+03  0.12000000000E+03 0.  0.
         25    1    3    3    0    0 -0.54636291709E+02  0.26240280149E+02  0.93325812747E+02  0.16365629838E+03  0.12000000000E+03 0.  0.
<mgrwt>
<rscale>  0 0.27541074E+03</rscale>
<asrwt>0</asrwt>
<pdfrwt beam="1">  1        1 0.88941951E-02 0.27541074E+03</pdfrwt>
<pdfrwt beam="2">  1       -1 0.50462456E-01 0.27541074E+03</pdfrwt>
<totfact> 0.30271775E+03</totfact>
</mgrwt>
</event>
<event>
 5    1  0.1100736E+001  0.2751384E+03  0.7818608E-02  0.1098374E+00
         -1   -1    0    0    0  501 -0.00000000000E+00  0.00000000000E+00  0.25596970737E+02  0.25596970737E+02  0.00000000000E+00 0.  1.
          1   -1    0    0  501    0  0.00000000000E+00 -0.00000000000E+00 -0.73935627505E+03  0.73935627505E+03  0.00000000000E+00 0.  1.
         35    2    1    2    0    0  0.00000000000E+00  0.00000000000E+00 -0.71375930431E+03  0.76495324578E+03  0.27513837200E+03 0.  0.
         25    1    3    3    0    0 -0.20033076444E+02 -0.63142114783E+02 -0.32433409157E+03  0.35210915035E+03  0.12000000000E+03 0.  0.
         25    1    3    3    0    0  0.20033076444E+02  0.63142114783E+02 -0.38942521274E+03  0.41284409543E+03  0.12000000000E+03 0.  0.
<mgrwt>
<rscale>  0 0.27513837E+03</rscale>
<asrwt>0</asrwt>
<pdfrwt beam="1">  1        1 0.11374714E+00 0.27513837E+03</pdfrwt>
<pdfrwt beam="2">  1       -1 0.39379949E-02 0.27513837E+03</pdfrwt>
<totfact> 0.65263229E+03</totfact>
</mgrwt>
</event>
<event>
 5    1  0.1100736E+001  0.2757473E+03  0.7818608E-02  0.1098035E+00
         -2   -1    0    0    0  501 -0.00000000000E+00  0.00000000000E+00  0.84294497076E+01  0.84294497076E+01  0.00000000000E+00 0.  1.
          2   -1    0    0  501    0  0.00000000000E+00 -0.00000000000E+00 -0.22550878204E+04  0.22550878204E+04  0.00000000000E+00 0.  1.
         35    2    1    2    0    0  0.00000000000E+00  0.00000000000E+00 -0.22466583707E+04  0.22635172701E+04  0.27574734355E+03 0.  0.
         25    1    3    3    0    0  0.13860234551E+02 -0.23018110264E+02 -0.16351188005E+04  0.16397363908E+04  0.12000000000E+03 0.  0.
         25    1    3    3    0    0 -0.13860234551E+02  0.23018110264E+02 -0.61153957015E+03  0.62378087929E+03  0.12000000000E+03 0.  0.
<mgrwt>
<rscale>  0 0.27574734E+03</rscale>
<asrwt>0</asrwt>
<pdfrwt beam="1">  1        2 0.34693651E+00 0.27574734E+03</pdfrwt>
<pdfrwt beam="2">  1       -2 0.12968387E-02 0.27574734E+03</pdfrwt>
<totfact> 0.79436274E+03</totfact>
</mgrwt>
</event>
<event>
 5    1  0.1100736E+001  0.2751411E+03  0.7818608E-02  0.1098373E+00
         -1   -1    0    0    0  501 -0.00000000000E+00  0.00000000000E+00  0.58758042351E+02  0.58758042351E+02  0.00000000000E+00 0. -1.
          1   -1    0    0  501    0  0.00000000000E+00 -0.00000000000E+00 -0.32209482671E+03  0.32209482671E+03  0.00000000000E+00 0. -1.
         35    2    1    2    0    0  0.00000000000E+00  0.00000000000E+00 -0.26333678436E+03  0.38085286906E+03  0.27514113810E+03 0.  0.
         25    1    3    3    0    0  0.38017432464E+02 -0.45128788986E+02 -0.86949038770E+02  0.15950569930E+03  0.12000000000E+03 0.  0.
         25    1    3    3    0    0 -0.38017432464E+02  0.45128788986E+02 -0.17638774559E+03  0.22134716976E+03  0.12000000000E+03 0.  0.
<mgrwt>
<rscale>  0 0.27514114E+03</rscale>
<asrwt>0</asrwt>
<pdfrwt beam="1">  1        1 0.49553051E-01 0.27514114E+03</pdfrwt>
<pdfrwt beam="2">  1       -1 0.90396986E-02 0.27514114E+03</pdfrwt>
<totfact> 0.56702074E+03</totfact>
</mgrwt>
</event>
<event>
 5    1  0.1100736E+001  0.2752499E+03  0.7818608E-02  0.1098312E+00
         -1   -1    0    0    0  501 -0.00000000000E+00  0.00000000000E+00  0.35338360508E+02  0.35338360508E+02  0.00000000000E+00 0. -1.
          1   -1    0    0  501    0  0.00000000000E+00 -0.00000000000E+00 -0.53597919008E+03  0.53597919008E+03  0.00000000000E+00 0. -1.
         35    2    1    2    0    0  0.00000000000E+00  0.00000000000E+00 -0.50064082957E+03  0.57131755059E+03  0.27524989260E+03 0.  0.
         25    1    3    3    0    0 -0.27520156013E+02 -0.13769121223E+02 -0.37474895252E+03  0.39469447057E+03  0.12000000000E+03 0.  0.
         25    1    3    3    0    0  0.27520156013E+02  0.13769121223E+02 -0.12589187705E+03  0.17662308002E+03  0.12000000000E+03 0.  0.
<mgrwt>
<rscale>  0 0.27524989E+03</rscale>
<asrwt>0</asrwt>
<pdfrwt beam="1">  1        1 0.82458332E-01 0.27524989E+03</pdfrwt>
<pdfrwt beam="2">  1       -1 0.54366712E-02 0.27524989E+03</pdfrwt>
<totfact> 0.63487846E+03</totfact>
</mgrwt>
</event>
<event>
 5    1  0.1100736E+001  0.2751470E+03  0.7818608E-02  0.1098369E+00
         -2   -1    0    0    0  501 -0.00000000000E+00  0.00000000000E+00  0.84922361677E+02  0.84922361677E+02  0.00000000000E+00 0.  1.
          2   -1    0    0  501    0  0.00000000000E+00 -0.00000000000E+00 -0.22286785284E+03  0.22286785284E+03  0.00000000000E+00 0.  1.
         35    2    1    2    0    0  0.00000000000E+00  0.00000000000E+00 -0.13794549116E+03  0.30779021452E+03  0.27514697458E+03 0.  0.
         25    1    3    3    0    0 -0.36401999982E+02 -0.47705248429E+02 -0.10300527665E+03  0.16914781508E+03  0.12000000000E+03 0.  0.
         25    1    3    3    0    0  0.36401999982E+02  0.47705248429E+02 -0.34940214515E+02  0.13864239943E+03  0.12000000000E+03 0.  0.
<mgrwt>
<rscale>  0 0.27514697E+03</rscale>
<asrwt>0</asrwt>
<pdfrwt beam="1">  1        2 0.34287362E-01 0.27514697E+03</pdfrwt>
<pdfrwt beam="2">  1       -2 0.13064979E-01 0.27514697E+03</pdfrwt>
<totfact> 0.64595078E+03</totfact>
</mgrwt>
</event>
<event>
 5    1  0.1100736E+001  0.2763263E+03  0.7818608E-02  0.1097713E+00
          2   -1    0    0  501    0  0.00000000000E+00  0.00000000000E+00  0.77622712143E+03  0.77622712143E+03  0.00000000000E+00 0. -1.
         -2   -1    0    0    0  501 -0.00000000000E+00 -0.00000000000E+00 -0.24592099513E+02  0.24592099513E+02  0.00000000000E+00 0. -1.
         35    2    1    2    0    0  0.00000000000E+00  0.00000000000E+00  0.75163502192E+03  0.80081922095E+03  0.27632628985E+03 0.  0.
         25    1    3    3    0    0  0.29790069196E+02 -0.55393947672E+02  0.29734836716E+03  0.32675983400E+03  0.12000000000E+03 0.  0.
         25    1    3    3    0    0 -0.29790069196E+02  0.55393947672E+02  0.45428665476E+03  0.47405938695E+03  0.12000000000E+03 0.  0.
<mgrwt>
<rscale>  0 0.27632629E+03</rscale>
<asrwt>0</asrwt>
<pdfrwt beam="1">  1        2 0.11941954E+00 0.27632629E+03</pdfrwt>
<pdfrwt beam="2">  1       -2 0.37834005E-02 0.27632629E+03</pdfrwt>
<totfact> 0.10985405E+04</totfact>
</mgrwt>
</event>
<event>
 5    1  0.1100736E+001  0.2751497E+03  0.7818608E-02  0.1098368E+00
         -1   -1    0    0    0  501 -0.00000000000E+00  0.00000000000E+00  0.32633732118E+03  0.32633732118E+03  0.00000000000E+00 0. -1.
          1   -1    0    0  501    0  0.00000000000E+00 -0.00000000000E+00 -0.57997770159E+02  0.57997770159E+02  0.00000000000E+00 0. -1.
         35    2    1    2    0    0  0.00000000000E+00  0.00000000000E+00  0.26833955102E+03  0.38433509134E+03  0.27514968252E+03 0.  0.
         25    1    3    3    0    0  0.34217074545E+01 -0.66058972178E+02  0.11698596757E+03  0.18016995447E+03  0.12000000000E+03 0.  0.
         25    1    3    3    0    0 -0.34217074545E+01  0.66058972178E+02  0.15135358345E+03  0.20416513687E+03  0.12000000000E+03 0.  0.
<mgrwt>
<rscale>  0 0.27514968E+03</rscale>
<asrwt>0</asrwt>
<pdfrwt beam="1">  1        1 0.89227340E-02 0.27514968E+03</pdfrwt>
<pdfrwt beam="2">  1       -1 0.50205741E-01 0.27514968E+03</pdfrwt>
<totfact> 0.30426110E+03</totfact>
</mgrwt>
</event>
<event>
 5    1  0.1100736E+001  0.2736785E+03  0.7818608E-02  0.1099193E+00
          4   -1    0    0  501    0  0.00000000000E+00  0.00000000000E+00  0.30961556454E+02  0.30961556454E+02  0.00000000000E+00 0.  1.
         -4   -1    0    0    0  501 -0.00000000000E+00 -0.00000000000E+00 -0.60478175322E+03  0.60478175322E+03  0.00000000000E+00 0.  1.
         35    2    1    2    0    0  0.00000000000E+00  0.00000000000E+00 -0.57382019676E+03  0.63574330967E+03  0.27367852963E+03 0.  0.
         25    1    3    3    0    0  0.84507981572E+01  0.11545757514E+02 -0.13780119142E+03  0.18328635755E+03  0.12000000000E+03 0.  0.
         25    1    3    3    0    0 -0.84507981572E+01 -0.11545757514E+02 -0.43601900534E+03  0.45245695212E+03  0.12000000000E+03 0.  0.
<mgrwt>
<rscale>  0 0.27367853E+03</rscale>
<asrwt>0</asrwt>
<pdfrwt beam="1">  1        4 0.47633164E-02 0.27367853E+03</pdfrwt>
<pdfrwt beam="2">  1       -4 0.93043346E-01 0.27367853E+03</pdfrwt>
<totfact> 0.48785082E+02</totfact>
</mgrwt>
</event>
<event>
 5    1  0.1100736E+001  0.2756781E+03  0.7818608E-02  0.1098073E+00
          2   -1    0    0  501    0  0.00000000000E+00  0.00000000000E+00  0.23744699524E+03  0.23744699524E+03  0.00000000000E+00 0.  1.
         -2   -1    0    0    0  501 -0.00000000000E+00 -0.00000000000E+00 -0.80016203840E+02  0.80016203840E+02  0.00000000000E+00 0.  1.
         35    2    1    2    0    0  0.00000000000E+00  0.00000000000E+00  0.15743079140E+03  0.31746319908E+03  0.27567812516E+03 0.  0.
         25    1    3    3    0    0 -0.48423782906E+02  0.34857843157E+02  0.11584667585E+03  0.17714509388E+03  0.12000000000E+03 0.  0.
         25    1    3    3    0    0  0.48423782906E+02 -0.34857843157E+02  0.41584115547E+02  0.14031810520E+03  0.12000000000E+03 0.  0.
<mgrwt>
<rscale>  0 0.27567813E+03</rscale>
<asrwt>0</asrwt>
<pdfrwt beam="1">  1        2 0.36530307E-01 0.27567813E+03</pdfrwt>
<pdfrwt beam="2">  1       -2 0.12310185E-01 0.27567813E+03</pdfrwt>
<totfact> 0.66423304E+03</totfact>
</mgrwt>
</event>
<event>
 5    1  0.1100736E+001  0.2755421E+03  0.7818608E-02  0.1098149E+00
          2   -1    0    0  501    0  0.00000000000E+00  0.00000000000E+00  0.18716602235E+03  0.18716602235E+03  0.00000000000E+00 0.  1.
         -2   -1    0    0    0  501 -0.00000000000E+00 -0.00000000000E+00 -0.10141187587E+03  0.10141187587E+03  0.00000000000E+00 0.  1.
         35    2    1    2    0    0  0.00000000000E+00  0.00000000000E+00  0.85754146484E+02  0.28857789822E+03  0.27554206521E+03 0.  0.
         25    1    3    3    0    0 -0.21807648261E+02 -0.47428784957E+02 -0.22399118377E+01  0.13088193294E+03  0.12000000000E+03 0.  0.
         25    1    3    3    0    0  0.21807648261E+02  0.47428784957E+02  0.87994058322E+02  0.15769596528E+03  0.12000000000E+03 0.  0.
<mgrwt>
<rscale>  0 0.27554207E+03</rscale>
<asrwt>0</asrwt>
<pdfrwt beam="1">  1        2 0.28794773E-01 0.27554207E+03</pdfrwt>
<pdfrwt beam="2">  1       -2 0.15601827E-01 0.27554207E+03</pdfrwt>
<totfact> 0.58409841E+03</totfact>
</mgrwt>
</event>
<event>
 5    1  0.1100736E+001  0.2730533E+03  0.7818608E-02  0.1099545E+00
         -2   -1    0    0    0  501 -0.00000000000E+00  0.00000000000E+00  0.12175620343E+03  0.12175620343E+03  0.00000000000E+00 0.  1.
          2   -1    0    0  501    0  0.00000000000E+00 -0.00000000000E+00 -0.15308888133E+03  0.15308888133E+03  0.00000000000E+00 0.  1.
         35    2    1    2    0    0  0.00000000000E+00  0.00000000000E+00 -0.31332677906E+02  0.27484508476E+03  0.27305326205E+03 0.  0.
         25    1    3    3    0    0  0.37340727033E+02 -0.52708633583E+01  0.37761248090E+02  0.13133173171E+03  0.12000000000E+03 0.  0.
         25    1    3    3    0    0 -0.37340727033E+02  0.52708633583E+01 -0.69093925995E+02  0.14351335306E+03  0.12000000000E+03 0.  0.
<mgrwt>
<rscale>  0 0.27305326E+03</rscale>
<asrwt>0</asrwt>
<pdfrwt beam="1">  1        2 0.23552135E-01 0.27305326E+03</pdfrwt>
<pdfrwt beam="2">  1       -2 0.18731724E-01 0.27305326E+03</pdfrwt>
<totfact> 0.53743124E+03</totfact>
</mgrwt>
</event>
<event>
 5    1  0.1100736E+001  0.2745018E+03  0.7818608E-02  0.1098730E+00
          2   -1    0    0  501    0  0.00000000000E+00  0.00000000000E+00  0.32947853488E+02  0.32947853488E+02  0.00000000000E+00 0. -1.
         -2   -1    0    0    0  501 -0.00000000000E+00 -0.00000000000E+00 -0.57174608067E+03  0.57174608067E+03  0.00000000000E+00 0. -1.
         35    2    1    2    0    0  0.00000000000E+00  0.00000000000E+00 -0.53879822718E+03  0.60469393416E+03  0.27450177485E+03 0.  0.
         25    1    3    3    0    0 -0.34691560670E+00  0.10531520825E+02 -0.41430048692E+03  0.43145790842E+03  0.12000000000E+03 0.  0.
         25    1    3    3    0    0  0.34691560670E+00 -0.10531520825E+02 -0.12449774026E+03  0.17323602573E+03  0.12000000000E+03 0.  0.
<mgrwt>
<rscale>  0 0.27450177E+03</rscale>
<asrwt>0</asrwt>
<pdfrwt beam="1">  1        2 0.50689007E-02 0.27450177E+03</pdfrwt>
<pdfrwt beam="2">  1       -2 0.87960932E-01 0.27450177E+03</pdfrwt>
<totfact> 0.17751128E+03</totfact>
</mgrwt>
</event>
<event>
 5    1  0.1100736E+001  0.2759881E+03  0.7818608E-02  0.1097901E+00
          2   -1    0    0  501    0  0.00000000000E+00  0.00000000000E+00  0.15205502910E+04  0.15205502910E+04  0.00000000000E+00 0.  1.
         -2   -1    0    0    0  501 -0.00000000000E+00 -0.00000000000E+00 -0.12523336798E+02  0.12523336798E+02  0.00000000000E+00 0.  1.
         35    2    1    2    0    0  0.00000000000E+00  0.00000000000E+00  0.15080269542E+04  0.15330736278E+04  0.27598814042E+03 0.  0.
         25    1    3    3    0    0 -0.40023219185E+02 -0.55114577707E+02  0.76345454425E+03  0.77582363710E+03  0.12000000000E+03 0.  0.
         25    1    3    3    0    0  0.40023219185E+02  0.55114577707E+02  0.74457240998E+03  0.75724999073E+03  0.12000000000E+03 0.  0.
<mgrwt>
<rscale>  0 0.27598814E+03</rscale>
<asrwt>0</asrwt>
<pdfrwt beam="1">  1        2 0.23393067E+00 0.27598814E+03</pdfrwt>
<pdfrwt beam="2">  1       -2 0.19266684E-02 0.27598814E+03</pdfrwt>
<totfact> 0.10866446E+04</totfact>
</mgrwt>
</event>
<event>
 5    1  0.1100736E+001  0.2751325E+03  0.7818608E-02  0.1098378E+00
          1   -1    0    0  501    0  0.00000000000E+00  0.00000000000E+00  0.50675221790E+02  0.50675221790E+02  0.00000000000E+00 0. -1.
         -1   -1    0    0    0  501 -0.00000000000E+00 -0.00000000000E+00 -0.37344636286E+03  0.37344636286E+03  0.00000000000E+00 0. -1.
         35    2    1    2    0    0  0.00000000000E+00  0.00000000000E+00 -0.32277114107E+03  0.42412158465E+03  0.27513252999E+03 0.  0.
         25    1    3    3    0    0  0.55712733162E+01 -0.39937388445E+02 -0.24437653838E+03  0.27521977871E+03  0.12000000000E+03 0.  0.
         25    1    3    3    0    0 -0.55712733162E+01  0.39937388445E+02 -0.78394602693E+02  0.14890180594E+03  0.12000000000E+03 0.  0.
<mgrwt>
<rscale>  0 0.27513253E+03</rscale>
<asrwt>0</asrwt>
<pdfrwt beam="1">  1        1 0.77961878E-02 0.27513253E+03</pdfrwt>
<pdfrwt beam="2">  1       -1 0.57453288E-01 0.27513253E+03</pdfrwt>
<totfact> 0.28371774E+03</totfact>
</mgrwt>
</event>
<event>
 5    1  0.1100736E+001  0.2752402E+03  0.7818608E-02  0.1098317E+00
          2   -1    0    0  501    0  0.00000000000E+00  0.00000000000E+00  0.24931501437E+03  0.24931501437E+03  0.00000000000E+00 0. -1.
         -2   -1    0    0    0  501 -0.00000000000E+00 -0.00000000000E+00 -0.75965331834E+02  0.75965331834E+02  0.00000000000E+00 0. -1.
         35    2    1    2    0    0  0.00000000000E+00  0.00000000000E+00  0.17334968253E+03  0.32528034620E+03  0.27524024268E+03 0.  0.
         25    1    3    3    0    0  0.39329464205E+02 -0.18790930433E+02  0.25959584290E+02  0.13028355935E+03  0.12000000000E+03 0.  0.
         25    1    3    3    0    0 -0.39329464205E+02  0.18790930433E+02  0.14739009824E+03  0.19499678685E+03  0.12000000000E+03 0.  0.
<mgrwt>
<rscale>  0 0.27524024E+03</rscale>
<asrwt>0</asrwt>
<pdfrwt beam="1">  1        2 0.38356156E-01 0.27524024E+03</pdfrwt>
<pdfrwt beam="2">  1       -2 0.11686974E-01 0.27524024E+03</pdfrwt>
<totfact> 0.68517903E+03</totfact>
</mgrwt>
</event>
<event>
 5    1  0.1100736E+001  0.2757998E+03  0.7818608E-02  0.1098005E+00
          1   -1    0    0  501    0  0.00000000000E+00  0.00000000000E+00  0.32764454777E+03  0.32764454777E+03  0.00000000000E+00 0. -1.
         -1   -1    0    0    0  501 -0.00000000000E+00 -0.00000000000E+00 -0.58039664096E+02  0.58039664096E+02  0.00000000000E+00 0. -1.
         35    2    1    2    0    0  0.00000000000E+00  0.00000000000E+00  0.26960488367E+03  0.38568421186E+03  0.27579977879E+03 0.  0.
         25    1    3    3    0    0 -0.44797831843E+02 -0.32512421774E+02  0.79702591210E+02  0.15432565034E+03  0.12000000000E+03 0.  0.
         25    1    3    3    0    0  0.44797831843E+02  0.32512421774E+02  0.18990229246E+03  0.23135856152E+03  0.12000000000E+03 0.  0.
<mgrwt>
<rscale>  0 0.27579978E+03</rscale>
<asrwt>0</asrwt>
<pdfrwt beam="1">  1        1 0.50406853E-01 0.27579978E+03</pdfrwt>
<pdfrwt beam="2">  1       -1 0.89291793E-02 0.27579978E+03</pdfrwt>
<totfact> 0.56555849E+03</totfact>
</mgrwt>
</event>
<event>
 5    1  0.1100736E+001  0.2752373E+03  0.7818608E-02  0.1098319E+00
         -1   -1    0    0    0  501 -0.00000000000E+00  0.00000000000E+00  0.92543530190E+03  0.92543530190E+03  0.00000000000E+00 0.  1.
          1   -1    0    0  501    0  0.00000000000E+00 -0.00000000000E+00 -0.20464841238E+02  0.20464841238E+02  0.00000000000E+00 0.  1.
         35    2    1    2    0    0  0.00000000000E+00  0.00000000000E+00  0.90497046066E+03  0.94590014313E+03  0.27523725423E+03 0.  0.
         25    1    3    3    0    0 -0.62905187727E+02  0.54697203048E+00  0.53535996679E+03  0.55223876707E+03  0.12000000000E+03 0.  0.
         25    1    3    3    0    0  0.62905187727E+02 -0.54697203048E+00  0.36961049387E+03  0.39366137606E+03  0.12000000000E+03 0.  0.
<mgrwt>
<rscale>  0 0.27523725E+03</rscale>
<asrwt>0</asrwt>
<pdfrwt beam="1">  1        1 0.31484378E-02 0.27523725E+03</pdfrwt>
<pdfrwt beam="2">  1       -1 0.14237463E+00 0.27523725E+03</pdfrwt>
<totfact> 0.13782078E+03</totfact>
</mgrwt>
</event>
<event>
 5    1  0.1100736E+001  0.2796697E+03  0.7818608E-02  0.1095869E+00
          2   -1    0    0  501    0  0.00000000000E+00  0.00000000000E+00  0.14062781395E+03  0.14062781395E+03  0.00000000000E+00 0. -1.
         -2   -1    0    0    0  501 -0.00000000000E+00 -0.00000000000E+00 -0.13904634038E+03  0.13904634038E+03  0.00000000000E+00 0. -1.
         35    2    1    2    0    0  0.00000000000E+00  0.00000000000E+00  0.15814735767E+01  0.27967415433E+03  0.27966968292E+03 0.  0.
         25    1    3    3    0    0  0.30634164597E+02  0.27777874172E+00  0.65716759876E+02  0.14020421438E+03  0.12000000000E+03 0.  0.
         25    1    3    3    0    0 -0.30634164597E+02 -0.27777874172E+00 -0.64135286299E+02  0.13946993995E+03  0.12000000000E+03 0.  0.
<mgrwt>
<rscale>  0 0.27966968E+03</rscale>
<asrwt>0</asrwt>
<pdfrwt beam="1">  1        2 0.21635048E-01 0.27966968E+03</pdfrwt>
<pdfrwt beam="2">  1       -2 0.21391745E-01 0.27966968E+03</pdfrwt>
<totfact> 0.47169873E+03</totfact>
</mgrwt>
</event>
<event>
 5    1  0.1100736E+001  0.2735408E+03  0.7818608E-02  0.1099270E+00
          1   -1    0    0  501    0  0.00000000000E+00  0.00000000000E+00  0.16918928373E+03  0.16918928373E+03  0.00000000000E+00 0. -1.
         -1   -1    0    0    0  501 -0.00000000000E+00 -0.00000000000E+00 -0.11056340573E+03  0.11056340573E+03  0.00000000000E+00 0. -1.
         35    2    1    2    0    0  0.00000000000E+00  0.00000000000E+00  0.58625877997E+02  0.27975268946E+03  0.27354080809E+03 0.  0.
         25    1    3    3    0    0  0.25180682493E+02  0.42267169584E+02  0.73722110567E+02  0.14918287429E+03  0.12000000000E+03 0.  0.
         25    1    3    3    0    0 -0.25180682493E+02 -0.42267169584E+02 -0.15096232570E+02  0.13056981517E+03  0.12000000000E+03 0.  0.
<mgrwt>
<rscale>  0 0.27354081E+03</rscale>
<asrwt>0</asrwt>
<pdfrwt beam="1">  1        1 0.26029120E-01 0.27354081E+03</pdfrwt>
<pdfrwt beam="2">  1       -1 0.17009755E-01 0.27354081E+03</pdfrwt>
<totfact> 0.47354243E+03</totfact>
</mgrwt>
</event>
<event>
 5    1  0.1100736E+001  0.2782546E+03  0.7818608E-02  0.1096646E+00
         -1   -1    0    0    0  501 -0.00000000000E+00  0.00000000000E+00  0.14432796230E+02  0.14432796230E+02  0.00000000000E+00 0.  1.
          1   -1    0    0  501    0  0.00000000000E+00 -0.00000000000E+00 -0.13411404114E+04  0.13411404114E+04  0.00000000000E+00 0.  1.
         35    2    1    2    0    0  0.00000000000E+00  0.00000000000E+00 -0.13267076152E+04  0.13555732076E+04  0.27825460480E+03 0.  0.
         25    1    3    3    0    0  0.15922338151E+01 -0.66802403477E+02 -0.55537005937E+03  0.57210226285E+03  0.12000000000E+03 0.  0.
         25    1    3    3    0    0 -0.15922338151E+01  0.66802403477E+02 -0.77133755580E+03  0.78347094477E+03  0.12000000000E+03 0.  0.
<mgrwt>
<rscale>  0 0.27825460E+03</rscale>
<asrwt>0</asrwt>
<pdfrwt beam="1">  1        1 0.20632929E+00 0.27825460E+03</pdfrwt>
<pdfrwt beam="2">  1       -1 0.22204302E-02 0.27825460E+03</pdfrwt>
<totfact> 0.53812153E+03</totfact>
</mgrwt>
</event>
<event>
 5    1  0.1100736E+001  0.2750593E+03  0.7818608E-02  0.1098418E+00
         -2   -1    0    0    0  501 -0.00000000000E+00  0.00000000000E+00  0.41127553989E+02  0.41127553989E+02  0.00000000000E+00 0.  1.
          2   -1    0    0  501    0  0.00000000000E+00 -0.00000000000E+00 -0.45989624618E+03  0.45989624618E+03  0.00000000000E+00 0.  1.
         35    2    1    2    0    0  0.00000000000E+00  0.00000000000E+00 -0.41876869219E+03  0.50102380017E+03  0.27505932229E+03 0.  0.
         25    1    3    3    0    0  0.22748934665E+02  0.38291230314E+00 -0.32454001419E+03  0.34676199541E+03  0.12000000000E+03 0.  0.
         25    1    3    3    0    0 -0.22748934665E+02 -0.38291230314E+00 -0.94228678003E+02  0.15426180476E+03  0.12000000000E+03 0.  0.
<mgrwt>
<rscale>  0 0.27505932E+03</rscale>
<asrwt>0</asrwt>
<pdfrwt beam="1">  1        2 0.70753269E-01 0.27505932E+03</pdfrwt>
<pdfrwt beam="2">  1       -2 0.63273159E-02 0.27505932E+03</pdfrwt>
<totfact> 0.92671858E+03</totfact>
</mgrwt>
</event>
<event>
 5    1  0.1100736E+001  0.2754542E+03  0.7818608E-02  0.1098198E+00
          2   -1    0    0  501    0  0.00000000000E+00  0.00000000000E+00  0.79285575959E+03  0.79285575959E+03  0.00000000000E+00 0. -1.
         -2   -1    0    0    0  501 -0.00000000000E+00 -0.00000000000E+00 -0.23924596824E+02  0.23924596824E+02  0.00000000000E+00 0. -1.
         35    2    1    2    0    0  0.00000000000E+00  0.00000000000E+00  0.76893116276E+03  0.81678035641E+03  0.27545420227E+03 0.  0.
         25    1    3    3    0    0 -0.59740324011E+02 -0.26354906545E+01  0.29103067978E+03  0.32042894485E+03  0.12000000000E+03 0.  0.
         25    1    3    3    0    0  0.59740324011E+02  0.26354906545E+01  0.47790048298E+03  0.49635141156E+03  0.12000000000E+03 0.  0.
<mgrwt>
<rscale>  0 0.27545420E+03</rscale>
<asrwt>0</asrwt>
<pdfrwt beam="1">  1        2 0.12197779E+00 0.27545420E+03</pdfrwt>
<pdfrwt beam="2">  1       -2 0.36807078E-02 0.27545420E+03</pdfrwt>
<totfact> 0.11144613E+04</totfact>
</mgrwt>
</event>
<event>
 5    1  0.1100736E+001  0.2743925E+03  0.7818608E-02  0.1098792E+00
         -2   -1    0    0    0  501 -0.00000000000E+00  0.00000000000E+00  0.84990610131E+02  0.84990610131E+02  0.00000000000E+00 0. -1.
          2   -1    0    0  501    0  0.00000000000E+00 -0.00000000000E+00 -0.22146923999E+03  0.22146923999E+03  0.00000000000E+00 0. -1.
         35    2    1    2    0    0  0.00000000000E+00  0.00000000000E+00 -0.13647862986E+03  0.30645985012E+03  0.27439246223E+03 0.  0.
         25    1    3    3    0    0 -0.61987350385E+02  0.13770782888E+02 -0.90316576953E+02  0.16306179854E+03  0.12000000000E+03 0.  0.
         25    1    3    3    0    0  0.61987350385E+02 -0.13770782888E+02 -0.46162052902E+02  0.14339805158E+03  0.12000000000E+03 0.  0.
<mgrwt>
<rscale>  0 0.27439246E+03</rscale>
<asrwt>0</asrwt>
<pdfrwt beam="1">  1        2 0.34072190E-01 0.27439246E+03</pdfrwt>
<pdfrwt beam="2">  1       -2 0.13075479E-01 0.27439246E+03</pdfrwt>
<totfact> 0.64947112E+03</totfact>
</mgrwt>
</event>
<event>
 5    1  0.1100736E+001  0.2745985E+03  0.7818608E-02  0.1098676E+00
         -1   -1    0    0    0  501 -0.00000000000E+00  0.00000000000E+00  0.11338251245E+04  0.11338251245E+04  0.00000000000E+00 0.  1.
          1   -1    0    0  501    0  0.00000000000E+00 -0.00000000000E+00 -0.16626090960E+02  0.16626090960E+02  0.00000000000E+00 0.  1.
         35    2    1    2    0    0  0.00000000000E+00  0.00000000000E+00  0.11171990335E+04  0.11504512155E+04  0.27459846797E+03 0.  0.
         25    1    3    3    0    0 -0.20497458681E+02  0.63479757502E+02  0.56329152108E+03  0.57978199623E+03  0.12000000000E+03 0.  0.
         25    1    3    3    0    0  0.20497458681E+02 -0.63479757502E+02  0.55390751246E+03  0.57066921923E+03  0.12000000000E+03 0.  0.
<mgrwt>
<rscale>  0 0.27459847E+03</rscale>
<asrwt>0</asrwt>
<pdfrwt beam="1">  1        1 0.25578610E-02 0.27459847E+03</pdfrwt>
<pdfrwt beam="2">  1       -1 0.17443457E+00 0.27459847E+03</pdfrwt>
<totfact> 0.10683177E+03</totfact>
</mgrwt>
</event>
<event>
 5    1  0.1100736E+001  0.2753186E+03  0.7818608E-02  0.1098274E+00
         -3   -1    0    0    0  501 -0.00000000000E+00  0.00000000000E+00  0.20528671059E+03  0.20528671059E+03  0.00000000000E+00 0.  1.
          3   -1    0    0  501    0  0.00000000000E+00 -0.00000000000E+00 -0.92310334551E+02  0.92310334551E+02  0.00000000000E+00 0.  1.
         35    2    1    2    0    0  0.00000000000E+00  0.00000000000E+00  0.11297637604E+03  0.29759704514E+03  0.27531861494E+03 0.  0.
         25    1    3    3    0    0  0.58118697071E+01 -0.13243922723E+02 -0.14728735732E+02  0.12176253519E+03  0.12000000000E+03 0.  0.
         25    1    3    3    0    0 -0.58118697071E+01  0.13243922723E+02  0.12770511177E+03  0.17583450996E+03  0.12000000000E+03 0.  0.
<mgrwt>
<rscale>  0 0.27531861E+03</rscale>
<asrwt>0</asrwt>
<pdfrwt beam="1">  1        3 0.14201590E-01 0.27531861E+03</pdfrwt>
<pdfrwt beam="2">  1       -3 0.31582571E-01 0.27531861E+03</pdfrwt>
<totfact> 0.10114136E+03</totfact>
</mgrwt>
</event>
<event>
 5    1  0.1100736E+001  0.2766814E+03  0.7818608E-02  0.1097515E+00
          1   -1    0    0  501    0  0.00000000000E+00  0.00000000000E+00  0.16655213865E+04  0.16655213865E+04  0.00000000000E+00 0. -1.
         -1   -1    0    0    0  501 -0.00000000000E+00 -0.00000000000E+00 -0.11490785147E+02  0.11490785147E+02  0.00000000000E+00 0. -1.
         35    2    1    2    0    0  0.00000000000E+00  0.00000000000E+00  0.16540306013E+04  0.16770121716E+04  0.27668139373E+03 0.  0.
         25    1    3    3    0    0  0.37177860261E+01  0.60872319571E+02  0.63354277088E+03  0.64768487998E+03  0.12000000000E+03 0.  0.
         25    1    3    3    0    0 -0.37177860261E+01 -0.60872319571E+02  0.10204878304E+04  0.10293272916E+04  0.12000000000E+03 0.  0.
<mgrwt>
<rscale>  0 0.27668139E+03</rscale>
<asrwt>0</asrwt>
<pdfrwt beam="1">  1        1 0.25623387E+00 0.27668139E+03</pdfrwt>
<pdfrwt beam="2">  1       -1 0.17678144E-02 0.27668139E+03</pdfrwt>
<totfact> 0.45735462E+03</totfact>
</mgrwt>
</event>
<event>
 4    1  0.1100736E+001  0.3071495E+03  0.7818608E-02  0.1081720E+00
         -2   -1    0    0    0  501 -0.00000000000E+00  0.00000000000E+00  0.15430118947E+03  0.15430118947E+03  0.00000000000E+00 0. -1.
          2   -1    0    0  501    0  0.00000000000E+00 -0.00000000000E+00 -0.15285172199E+03  0.15285172199E+03  0.00000000000E+00 0. -1.
         25    1    1    2    0    0  0.11696747043E+02  0.91385481361E+02  0.27127346216E+02  0.15370105077E+03  0.12000000000E+03 0.  0.
         25    1    1    2    0    0 -0.11696747043E+02 -0.91385481361E+02 -0.25677878737E+02  0.15345186070E+03  0.12000000000E+03 0.  0.
<mgrwt>
<rscale>  0 0.30714949E+03</rscale>
<asrwt>0</asrwt>
<pdfrwt beam="1">  1        2 0.23515650E-01 0.30714949E+03</pdfrwt>
<pdfrwt beam="2">  1       -2 0.23738645E-01 0.30714949E+03</pdfrwt>
<totfact> 0.35903468E+03</totfact>
</mgrwt>
</event>
<event>
 5    1  0.1100736E+001  0.2748688E+03  0.7818608E-02  0.1098525E+00
          2   -1    0    0  501    0  0.00000000000E+00  0.00000000000E+00  0.10180145448E+04  0.10180145448E+04  0.00000000000E+00 0. -1.
         -2   -1    0    0    0  501 -0.00000000000E+00 -0.00000000000E+00 -0.18553976387E+02  0.18553976387E+02  0.00000000000E+00 0. -1.
         35    2    1    2    0    0  0.00000000000E+00  0.00000000000E+00  0.99946056844E+03  0.10365685212E+04  0.27486882563E+03 0.  0.
         25    1    3    3    0    0  0.41066263709E+02  0.48228077279E+02  0.58199233307E+03  0.59760142336E+03  0.12000000000E+03 0.  0.
         25    1    3    3    0    0 -0.41066263709E+02 -0.48228077279E+02  0.41746823537E+03  0.43896709785E+03  0.12000000000E+03 0.  0.
<mgrwt>
<rscale>  0 0.27486883E+03</rscale>
<asrwt>0</asrwt>
<pdfrwt beam="1">  1        2 0.15661758E+00 0.27486883E+03</pdfrwt>
<pdfrwt beam="2">  1       -2 0.28544587E-02 0.27486883E+03</pdfrwt>
<totfact> 0.11648618E+04</totfact>
</mgrwt>
</event>
<event>
 5    1  0.1100736E+001  0.2760467E+03  0.7818608E-02  0.1097868E+00
          2   -1    0    0  501    0  0.00000000000E+00  0.00000000000E+00  0.74563932443E+02  0.74563932443E+02  0.00000000000E+00 0. -1.
         -2   -1    0    0    0  501 -0.00000000000E+00 -0.00000000000E+00 -0.25549148258E+03  0.25549148258E+03  0.00000000000E+00 0. -1.
         35    2    1    2    0    0  0.00000000000E+00  0.00000000000E+00 -0.18092755014E+03  0.33005541502E+03  0.27604673261E+03 0.  0.
         25    1    3    3    0    0  0.43231281373E+00 -0.51064125022E+01 -0.17176965602E+03  0.20959741667E+03  0.12000000000E+03 0.  0.
         25    1    3    3    0    0 -0.43231281373E+00  0.51064125022E+01 -0.91578941125E+01  0.12045799835E+03  0.12000000000E+03 0.  0.
<mgrwt>
<rscale>  0 0.27604673E+03</rscale>
<asrwt>0</asrwt>
<pdfrwt beam="1">  1        2 0.11471374E-01 0.27604673E+03</pdfrwt>
<pdfrwt beam="2">  1       -2 0.39306381E-01 0.27604673E+03</pdfrwt>
<totfact> 0.33138230E+03</totfact>
</mgrwt>
</event>
<event>
 5    1  0.1100736E+001  0.2883961E+03  0.7818608E-02  0.1091190E+00
         -2   -1    0    0    0  501 -0.00000000000E+00  0.00000000000E+00  0.52671880494E+02  0.52671880494E+02  0.00000000000E+00 0.  1.
          2   -1    0    0  501    0  0.00000000000E+00 -0.00000000000E+00 -0.39476605824E+03  0.39476605824E+03  0.00000000000E+00 0.  1.
         35    2    1    2    0    0  0.00000000000E+00  0.00000000000E+00 -0.34209417774E+03  0.44743793873E+03  0.28839605158E+03 0.  0.
         25    1    3    3    0    0 -0.18039894735E+02 -0.66019036461E+02 -0.10690697435E+03  0.17467985614E+03  0.12000000000E+03 0.  0.
         25    1    3    3    0    0  0.18039894735E+02  0.66019036461E+02 -0.23518720339E+03  0.27275808259E+03  0.12000000000E+03 0.  0.
<mgrwt>
<rscale>  0 0.28839605E+03</rscale>
<asrwt>0</asrwt>
<pdfrwt beam="1">  1        2 0.60733241E-01 0.28839605E+03</pdfrwt>
<pdfrwt beam="2">  1       -2 0.81033661E-02 0.28839605E+03</pdfrwt>
<totfact> 0.74742083E+03</totfact>
</mgrwt>
</event>
<event>
 5    1  0.1100736E+001  0.2748926E+03  0.7818608E-02  0.1098512E+00
          1   -1    0    0  501    0  0.00000000000E+00  0.00000000000E+00  0.27494090120E+03  0.27494090120E+03  0.00000000000E+00 0.  1.
         -1   -1    0    0    0  501 -0.00000000000E+00 -0.00000000000E+00 -0.68711100021E+02  0.68711100021E+02  0.00000000000E+00 0.  1.
         35    2    1    2    0    0  0.00000000000E+00  0.00000000000E+00  0.20622980118E+03  0.34365200122E+03  0.27489264641E+03 0.  0.
         25    1    3    3    0    0 -0.43444941926E+02 -0.45319431543E+02  0.13243782825E+03  0.18942305088E+03  0.12000000000E+03 0.  0.
         25    1    3    3    0    0  0.43444941926E+02  0.45319431543E+02  0.73791972933E+02  0.15422895034E+03  0.12000000000E+03 0.  0.
<mgrwt>
<rscale>  0 0.27489265E+03</rscale>
<asrwt>0</asrwt>
<pdfrwt beam="1">  1        1 0.42298600E-01 0.27489265E+03</pdfrwt>
<pdfrwt beam="2">  1       -1 0.10570939E-01 0.27489265E+03</pdfrwt>
<totfact> 0.54342617E+03</totfact>
</mgrwt>
</event>
<event>
 5    1  0.1100736E+001  0.2745650E+03  0.7818608E-02  0.1098695E+00
          2   -1    0    0  501    0  0.00000000000E+00  0.00000000000E+00  0.71652393751E+03  0.71652393751E+03  0.00000000000E+00 0. -1.
         -2   -1    0    0    0  501 -0.00000000000E+00 -0.00000000000E+00 -0.26302651684E+02  0.26302651684E+02  0.00000000000E+00 0. -1.
         35    2    1    2    0    0  0.00000000000E+00  0.00000000000E+00  0.69022128583E+03  0.74282658920E+03  0.27456496172E+03 0.  0.
         25    1    3    3    0    0 -0.36204605317E+02 -0.12873250777E+02  0.49255205862E+03  0.50841324184E+03  0.12000000000E+03 0.  0.
         25    1    3    3    0    0  0.36204605317E+02  0.12873250777E+02  0.19766922721E+03  0.23441334735E+03  0.12000000000E+03 0.  0.
<mgrwt>
<rscale>  0 0.27456496E+03</rscale>
<asrwt>0</asrwt>
<pdfrwt beam="1">  1        2 0.11023444E+00 0.27456496E+03</pdfrwt>
<pdfrwt beam="2">  1       -2 0.40465623E-02 0.27456496E+03</pdfrwt>
<totfact> 0.10962953E+04</totfact>
</mgrwt>
</event>
<event>
 5    1  0.1100736E+001  0.2743363E+03  0.7818608E-02  0.1098823E+00
         -1   -1    0    0    0  501 -0.00000000000E+00  0.00000000000E+00  0.10129362442E+02  0.10129362442E+02  0.00000000000E+00 0. -1.
          1   -1    0    0  501    0  0.00000000000E+00 -0.00000000000E+00 -0.18574816552E+04  0.18574816552E+04  0.00000000000E+00 0. -1.
         35    2    1    2    0    0  0.00000000000E+00  0.00000000000E+00 -0.18473522927E+04  0.18676110176E+04  0.27433632581E+03 0.  0.
         25    1    3    3    0    0 -0.29739365818E+02 -0.19427334886E+02 -0.54139527605E+03  0.55567139223E+03  0.12000000000E+03 0.  0.
         25    1    3    3    0    0  0.29739365818E+02  0.19427334886E+02 -0.13059570167E+04  0.13119396254E+04  0.12000000000E+03 0.  0.
<mgrwt>
<rscale>  0 0.27433633E+03</rscale>
<asrwt>0</asrwt>
<pdfrwt beam="1">  1        1 0.28576590E+00 0.27433633E+03</pdfrwt>
<pdfrwt beam="2">  1       -1 0.15583662E-02 0.27433633E+03</pdfrwt>
<totfact> 0.41219087E+03</totfact>
</mgrwt>
</event>
<event>
 5    1  0.1100736E+001  0.2752009E+03  0.7818608E-02  0.1098339E+00
         -1   -1    0    0    0  501 -0.00000000000E+00  0.00000000000E+00  0.48655606414E+02  0.48655606414E+02  0.00000000000E+00 0. -1.
          1   -1    0    0  501    0  0.00000000000E+00 -0.00000000000E+00 -0.38914070950E+03  0.38914070950E+03  0.00000000000E+00 0. -1.
         35    2    1    2    0    0  0.00000000000E+00  0.00000000000E+00 -0.34048510308E+03  0.43779631591E+03  0.27520085175E+03 0.  0.
         25    1    3    3    0    0 -0.56233812874E+02  0.35124309748E+02 -0.15156012155E+03  0.20436836665E+03  0.12000000000E+03 0.  0.
         25    1    3    3    0    0  0.56233812874E+02 -0.35124309748E+02 -0.18892498153E+03  0.23342794926E+03  0.12000000000E+03 0.  0.
<mgrwt>
<rscale>  0 0.27520085E+03</rscale>
<asrwt>0</asrwt>
<pdfrwt beam="1">  1        1 0.59867800E-01 0.27520085E+03</pdfrwt>
<pdfrwt beam="2">  1       -1 0.74854781E-02 0.27520085E+03</pdfrwt>
<totfact> 0.59521449E+03</totfact>
</mgrwt>
</event>
<event>
 5    1  0.1100736E+001  0.2752190E+03  0.7818608E-02  0.1098329E+00
         -2   -1    0    0    0  501 -0.00000000000E+00  0.00000000000E+00  0.10346007678E+02  0.10346007678E+02  0.00000000000E+00 0. -1.
          2   -1    0    0  501    0  0.00000000000E+00 -0.00000000000E+00 -0.18303079960E+04  0.18303079960E+04  0.00000000000E+00 0. -1.
         35    2    1    2    0    0  0.00000000000E+00  0.00000000000E+00 -0.18199619883E+04  0.18406540037E+04  0.27521904425E+03 0.  0.
         25    1    3    3    0    0 -0.53692585095E+02  0.23272171036E+02 -0.11329914184E+04  0.11408304176E+04  0.12000000000E+03 0.  0.
         25    1    3    3    0    0  0.53692585095E+02 -0.23272171036E+02 -0.68697056995E+03  0.69982358607E+03  0.12000000000E+03 0.  0.
<mgrwt>
<rscale>  0 0.27521904E+03</rscale>
<asrwt>0</asrwt>
<pdfrwt beam="1">  1        2 0.28158554E+00 0.27521904E+03</pdfrwt>
<pdfrwt beam="2">  1       -2 0.15916952E-02 0.27521904E+03</pdfrwt>
<totfact> 0.98672731E+03</totfact>
</mgrwt>
</event>
<event>
 5    1  0.1100736E+001  0.2750013E+03  0.7818608E-02  0.1098451E+00
          2   -1    0    0  501    0  0.00000000000E+00  0.00000000000E+00  0.27552876892E+03  0.27552876892E+03  0.00000000000E+00 0.  1.
         -2   -1    0    0    0  501 -0.00000000000E+00 -0.00000000000E+00 -0.68618709356E+02  0.68618709356E+02  0.00000000000E+00 0.  1.
         35    2    1    2    0    0  0.00000000000E+00  0.00000000000E+00  0.20691005956E+03  0.34414747827E+03  0.27500129828E+03 0.  0.
         25    1    3    3    0    0  0.65991091828E+02  0.10019122176E+02  0.94498577642E+02  0.16668889641E+03  0.12000000000E+03 0.  0.
         25    1    3    3    0    0 -0.65991091828E+02 -0.10019122176E+02  0.11241148192E+03  0.17745858186E+03  0.12000000000E+03 0.  0.
<mgrwt>
<rscale>  0 0.27500130E+03</rscale>
<asrwt>0</asrwt>
<pdfrwt beam="1">  1        2 0.42389041E-01 0.27500130E+03</pdfrwt>
<pdfrwt beam="2">  1       -2 0.10556725E-01 0.27500130E+03</pdfrwt>
<totfact> 0.72414204E+03</totfact>
</mgrwt>
</event>
<event>
 5    1  0.1100736E+001  0.2753976E+03  0.7818608E-02  0.1098230E+00
         -2   -1    0    0    0  501 -0.00000000000E+00  0.00000000000E+00  0.88344649945E+02  0.88344649945E+02  0.00000000000E+00 0. -1.
          2   -1    0    0  501    0  0.00000000000E+00 -0.00000000000E+00 -0.21462480773E+03  0.21462480773E+03  0.00000000000E+00 0. -1.
         35    2    1    2    0    0  0.00000000000E+00  0.00000000000E+00 -0.12628015779E+03  0.30296945768E+03  0.27539755633E+03 0.  0.
         25    1    3    3    0    0 -0.34110573839E+02  0.48305269071E+02 -0.99025192397E+02  0.16644193882E+03  0.12000000000E+03 0.  0.
         25    1    3    3    0    0  0.34110573839E+02 -0.48305269071E+02 -0.27254965388E+02  0.13652751886E+03  0.12000000000E+03 0.  0.
<mgrwt>
<rscale>  0 0.27539756E+03</rscale>
<asrwt>0</asrwt>
<pdfrwt beam="1">  1        2 0.33019201E-01 0.27539756E+03</pdfrwt>
<pdfrwt beam="2">  1       -2 0.13591485E-01 0.27539756E+03</pdfrwt>
<totfact> 0.63099985E+03</totfact>
</mgrwt>
</event>
<event>
 5    1  0.1100736E+001  0.2757693E+03  0.7818608E-02  0.1098022E+00
         -1   -1    0    0    0  501 -0.00000000000E+00  0.00000000000E+00  0.53852234796E+03  0.53852234796E+03  0.00000000000E+00 0.  1.
          1   -1    0    0  501    0  0.00000000000E+00 -0.00000000000E+00 -0.35304329748E+02  0.35304329748E+02  0.00000000000E+00 0.  1.
         35    2    1    2    0    0  0.00000000000E+00  0.00000000000E+00  0.50321801821E+03  0.57382667771E+03  0.27576925535E+03 0.  0.
         25    1    3    3    0    0  0.62203020635E+02  0.25906361365E+02  0.26924269570E+03  0.30237722223E+03  0.12000000000E+03 0.  0.
         25    1    3    3    0    0 -0.62203020635E+02 -0.25906361365E+02  0.23397532251E+03  0.27144945548E+03  0.12000000000E+03 0.  0.
<mgrwt>
<rscale>  0 0.27576926E+03</rscale>
<asrwt>0</asrwt>
<pdfrwt beam="1">  1        1 0.54314357E-02 0.27576926E+03</pdfrwt>
<pdfrwt beam="2">  1       -1 0.82849586E-01 0.27576926E+03</pdfrwt>
<totfact> 0.22452176E+03</totfact>
</mgrwt>
</event>
<event>
 5    1  0.1100736E+001  0.2690671E+03  0.7818608E-02  0.1101815E+00
          2   -1    0    0  501    0  0.00000000000E+00  0.00000000000E+00  0.26520838322E+03  0.26520838322E+03  0.00000000000E+00 0. -1.
         -2   -1    0    0    0  501 -0.00000000000E+00 -0.00000000000E+00 -0.68245507377E+02  0.68245507377E+02  0.00000000000E+00 0. -1.
         35    2    1    2    0    0  0.00000000000E+00  0.00000000000E+00  0.19696287584E+03  0.33345389059E+03  0.26906713418E+03 0.  0.
         25    1    3    3    0    0  0.50913117542E+02  0.33223673065E+02  0.96222420257E+02  0.16539260005E+03  0.12000000000E+03 0.  0.
         25    1    3    3    0    0 -0.50913117542E+02 -0.33223673065E+02  0.10074045558E+03  0.16806129055E+03  0.12000000000E+03 0.  0.
<mgrwt>
<rscale>  0 0.26906713E+03</rscale>
<asrwt>0</asrwt>
<pdfrwt beam="1">  1        2 0.40801289E-01 0.26906713E+03</pdfrwt>
<pdfrwt beam="2">  1       -2 0.10499309E-01 0.26906713E+03</pdfrwt>
<totfact> 0.76046356E+03</totfact>
</mgrwt>
</event>
<event>
 5    1  0.1100736E+001  0.2750679E+03  0.7818608E-02  0.1098414E+00
         -2   -1    0    0    0  501 -0.00000000000E+00  0.00000000000E+00  0.16781276365E+03  0.16781276365E+03  0.00000000000E+00 0.  1.
          2   -1    0    0  501    0  0.00000000000E+00 -0.00000000000E+00 -0.11271843708E+03  0.11271843708E+03  0.00000000000E+00 0.  1.
         35    2    1    2    0    0  0.00000000000E+00  0.00000000000E+00  0.55094326576E+02  0.28053120073E+03  0.27506793663E+03 0.  0.
         25    1    3    3    0    0  0.56129682945E+02  0.35830928542E+02  0.36736997922E+02  0.14207041833E+03  0.12000000000E+03 0.  0.
         25    1    3    3    0    0 -0.56129682945E+02 -0.35830928542E+02  0.18357328655E+02  0.13846078240E+03  0.12000000000E+03 0.  0.
<mgrwt>
<rscale>  0 0.27506794E+03</rscale>
<asrwt>0</asrwt>
<pdfrwt beam="1">  1        2 0.17341298E-01 0.27506794E+03</pdfrwt>
<pdfrwt beam="2">  1       -2 0.25817348E-01 0.27506794E+03</pdfrwt>
<totfact> 0.43757618E+03</totfact>
</mgrwt>
</event>
<event>
 5    1  0.1100736E+001  0.2750804E+03  0.7818608E-02  0.1098407E+00
         -1   -1    0    0    0  501 -0.00000000000E+00  0.00000000000E+00  0.67813424806E+02  0.67813424806E+02  0.00000000000E+00 0. -1.
          1   -1    0    0  501    0  0.00000000000E+00 -0.00000000000E+00 -0.27896117988E+03  0.27896117988E+03  0.00000000000E+00 0. -1.
         35    2    1    2    0    0  0.00000000000E+00  0.00000000000E+00 -0.21114775508E+03  0.34677460469E+03  0.27508044638E+03 0.  0.
         25    1    3    3    0    0  0.22892775988E+02 -0.63165235001E+02 -0.10325387667E+03  0.17197467591E+03  0.12000000000E+03 0.  0.
         25    1    3    3    0    0 -0.22892775988E+02  0.63165235001E+02 -0.10789387840E+03  0.17479992878E+03  0.12000000000E+03 0.  0.
<mgrwt>
<rscale>  0 0.27508045E+03</rscale>
<asrwt>0</asrwt>
<pdfrwt beam="1">  1        1 0.42917104E-01 0.27508045E+03</pdfrwt>
<pdfrwt beam="2">  1       -1 0.10432835E-01 0.27508045E+03</pdfrwt>
<totfact> 0.54461364E+03</totfact>
</mgrwt>
</event>
<event>
 5    1  0.1100736E+001  0.2732834E+03  0.7818608E-02  0.1099415E+00
         -2   -1    0    0    0  501 -0.00000000000E+00  0.00000000000E+00  0.12712811804E+04  0.12712811804E+04  0.00000000000E+00 0. -1.
          2   -1    0    0  501    0  0.00000000000E+00 -0.00000000000E+00 -0.14686725455E+02  0.14686725455E+02  0.00000000000E+00 0. -1.
         35    2    1    2    0    0  0.00000000000E+00  0.00000000000E+00  0.12565944549E+04  0.12859679058E+04  0.27328342556E+03 0.  0.
         25    1    3    3    0    0 -0.38877400556E+02  0.41205861268E+02  0.78161542004E+03  0.79280012621E+03  0.12000000000E+03 0.  0.
         25    1    3    3    0    0  0.38877400556E+02 -0.41205861268E+02  0.47497903486E+03  0.49316777959E+03  0.12000000000E+03 0.  0.
<mgrwt>
<rscale>  0 0.27328343E+03</rscale>
<asrwt>0</asrwt>
<pdfrwt beam="1">  1        2 0.22594972E-02 0.27328343E+03</pdfrwt>
<pdfrwt beam="2">  1       -2 0.19558163E+00 0.27328343E+03</pdfrwt>
<totfact> 0.71174363E+02</totfact>
</mgrwt>
</event>
<event>
 5    1  0.1100736E+001  0.2750926E+03  0.7818608E-02  0.1098400E+00
         -1   -1    0    0    0  501 -0.00000000000E+00  0.00000000000E+00  0.23229703749E+03  0.23229703749E+03  0.00000000000E+00 0. -1.
          1   -1    0    0  501    0  0.00000000000E+00 -0.00000000000E+00 -0.81443098643E+02  0.81443098643E+02  0.00000000000E+00 0. -1.
         35    2    1    2    0    0  0.00000000000E+00  0.00000000000E+00  0.15085393884E+03  0.31374013613E+03  0.27509264286E+03 0.  0.
         25    1    3    3    0    0  0.40837831607E+02 -0.13682421564E+02  0.13429270387E+03  0.18517415442E+03  0.12000000000E+03 0.  0.
         25    1    3    3    0    0 -0.40837831607E+02  0.13682421564E+02  0.16561234970E+02  0.12856598171E+03  0.12000000000E+03 0.  0.
<mgrwt>
<rscale>  0 0.27509264E+03</rscale>
<asrwt>0</asrwt>
<pdfrwt beam="1">  1        1 0.12529708E-01 0.27509264E+03</pdfrwt>
<pdfrwt beam="2">  1       -1 0.35738006E-01 0.27509264E+03</pdfrwt>
<totfact> 0.35526669E+03</totfact>
</mgrwt>
</event>
<event>
 5    1  0.1100736E+001  0.2754232E+03  0.7818608E-02  0.1098215E+00
         -1   -1    0    0    0  501 -0.00000000000E+00  0.00000000000E+00  0.14034143176E+03  0.14034143176E+03  0.00000000000E+00 0. -1.
          1   -1    0    0  501    0  0.00000000000E+00 -0.00000000000E+00 -0.13513109639E+03  0.13513109639E+03  0.00000000000E+00 0. -1.
         35    2    1    2    0    0  0.00000000000E+00  0.00000000000E+00  0.52103353638E+01  0.27547252815E+03  0.27542324915E+03 0.  0.
         25    1    3    3    0    0  0.38817764527E+02  0.51386925674E+02  0.23030784516E+02  0.13812259775E+03  0.12000000000E+03 0.  0.
         25    1    3    3    0    0 -0.38817764527E+02 -0.51386925674E+02 -0.17820449153E+02  0.13734993040E+03  0.12000000000E+03 0.  0.
<mgrwt>
<rscale>  0 0.27542325E+03</rscale>
<asrwt>0</asrwt>
<pdfrwt beam="1">  1        1 0.20789400E-01 0.27542325E+03</pdfrwt>
<pdfrwt beam="2">  1       -1 0.21590989E-01 0.27542325E+03</pdfrwt>
<totfact> 0.42897997E+03</totfact>
</mgrwt>
</event>
<event>
 5    1  0.1100736E+001  0.2752493E+03  0.7818608E-02  0.1098312E+00
          4   -1    0    0  501    0  0.00000000000E+00  0.00000000000E+00  0.21165517953E+03  0.21165517953E+03  0.00000000000E+00 0. -1.
         -4   -1    0    0    0  501 -0.00000000000E+00 -0.00000000000E+00 -0.89487725980E+02  0.89487725980E+02  0.00000000000E+00 0. -1.
         35    2    1    2    0    0  0.00000000000E+00  0.00000000000E+00  0.12216745355E+03  0.30114290551E+03  0.27524927399E+03 0.  0.
         25    1    3    3    0    0  0.29980444909E+02 -0.24250032033E+02  0.12154204374E+03  0.17509814256E+03  0.12000000000E+03 0.  0.
         25    1    3    3    0    0 -0.29980444909E+02  0.24250032033E+02  0.62540981062E+00  0.12604476295E+03  0.12000000000E+03 0.  0.
<mgrwt>
<rscale>  0 0.27524927E+03</rscale>
<asrwt>0</asrwt>
<pdfrwt beam="1">  1        4 0.32562335E-01 0.27524927E+03</pdfrwt>
<pdfrwt beam="2">  1       -4 0.13767343E-01 0.27524927E+03</pdfrwt>
<totfact> 0.74658127E+02</totfact>
</mgrwt>
</event>
<event>
 5    1  0.1100736E+001  0.2775227E+03  0.7818608E-02  0.1097050E+00
         -1   -1    0    0    0  501 -0.00000000000E+00  0.00000000000E+00  0.13726320329E+03  0.13726320329E+03  0.00000000000E+00 0. -1.
          1   -1    0    0  501    0  0.00000000000E+00 -0.00000000000E+00 -0.14027585529E+03  0.14027585529E+03  0.00000000000E+00 0. -1.
         35    2    1    2    0    0  0.00000000000E+00  0.00000000000E+00 -0.30126519912E+01  0.27753905858E+03  0.27752270712E+03 0.  0.
         25    1    3    3    0    0 -0.19799663810E+02 -0.54596065277E+02  0.36992126540E+02  0.13835163337E+03  0.12000000000E+03 0.  0.
         25    1    3    3    0    0  0.19799663810E+02  0.54596065277E+02 -0.40004778531E+02  0.13918742521E+03  0.12000000000E+03 0.  0.
<mgrwt>
<rscale>  0 0.27752271E+03</rscale>
<asrwt>0</asrwt>
<pdfrwt beam="1">  1        1 0.21580901E-01 0.27752271E+03</pdfrwt>
<pdfrwt beam="2">  1       -1 0.21117416E-01 0.27752271E+03</pdfrwt>
<totfact> 0.42408584E+03</totfact>
</mgrwt>
</event>
<event>
 5    1  0.1100736E+001  0.2741085E+03  0.7818608E-02  0.1098951E+00
          2   -1    0    0  501    0  0.00000000000E+00  0.00000000000E+00  0.17050304559E+03  0.17050304559E+03  0.00000000000E+00 0.  1.
         -2   -1    0    0    0  501 -0.00000000000E+00 -0.00000000000E+00 -0.11016730637E+03  0.11016730637E+03  0.00000000000E+00 0.  1.
         35    2    1    2    0    0  0.00000000000E+00  0.00000000000E+00  0.60335739216E+02  0.28067035196E+03  0.27410845489E+03 0.  0.
         25    1    3    3    0    0  0.25166117132E+02 -0.33380783270E+02 -0.22405703701E+02  0.12903342862E+03  0.12000000000E+03 0.  0.
         25    1    3    3    0    0 -0.25166117132E+02  0.33380783270E+02  0.82741442917E+02  0.15163692334E+03  0.12000000000E+03 0.  0.
<mgrwt>
<rscale>  0 0.27410845E+03</rscale>
<asrwt>0</asrwt>
<pdfrwt beam="1">  1        2 0.26231238E-01 0.27410845E+03</pdfrwt>
<pdfrwt beam="2">  1       -2 0.16948816E-01 0.27410845E+03</pdfrwt>
<totfact> 0.56397374E+03</totfact>
</mgrwt>
</event>
<event>
 5    1  0.1100736E+001  0.2720265E+03  0.7818608E-02  0.1100125E+00
         -4   -1    0    0    0  501 -0.00000000000E+00  0.00000000000E+00  0.55587213608E+03  0.55587213608E+03  0.00000000000E+00 0.  1.
          4   -1    0    0  501    0  0.00000000000E+00 -0.00000000000E+00 -0.33280317277E+02  0.33280317277E+02  0.00000000000E+00 0.  1.
         35    2    1    2    0    0  0.00000000000E+00  0.00000000000E+00  0.52259181881E+03  0.58915245336E+03  0.27202647705E+03 0.  0.
         25    1    3    3    0    0 -0.61648912558E+02 -0.15248787271E+02  0.27895568896E+03  0.31024085858E+03  0.12000000000E+03 0.  0.
         25    1    3    3    0    0  0.61648912558E+02  0.15248787271E+02  0.24363612985E+03  0.27891159478E+03  0.12000000000E+03 0.  0.
<mgrwt>
<rscale>  0 0.27202648E+03</rscale>
<asrwt>0</asrwt>
<pdfrwt beam="1">  1        4 0.51200492E-02 0.27202648E+03</pdfrwt>
<pdfrwt beam="2">  1       -4 0.85518784E-01 0.27202648E+03</pdfrwt>
<totfact> 0.52568170E+02</totfact>
</mgrwt>
</event>
<event>
 5    1  0.1100736E+001  0.2782568E+03  0.7818608E-02  0.1096645E+00
         -1   -1    0    0    0  501 -0.00000000000E+00  0.00000000000E+00  0.24136212504E+02  0.24136212504E+02  0.00000000000E+00 0. -1.
          1   -1    0    0  501    0  0.00000000000E+00 -0.00000000000E+00 -0.80197779803E+03  0.80197779803E+03  0.00000000000E+00 0. -1.
         35    2    1    2    0    0  0.00000000000E+00  0.00000000000E+00 -0.77784158552E+03  0.82611401053E+03  0.27825676313E+03 0.  0.
         25    1    3    3    0    0  0.58323522765E+02  0.31786477329E+02 -0.31963085057E+03  0.34781589107E+03  0.12000000000E+03 0.  0.
         25    1    3    3    0    0 -0.58323522765E+02 -0.31786477329E+02 -0.45821073496E+03  0.47829811946E+03  0.12000000000E+03 0.  0.
<mgrwt>
<rscale>  0 0.27825676E+03</rscale>
<asrwt>0</asrwt>
<pdfrwt beam="1">  1        1 0.12338118E+00 0.27825676E+03</pdfrwt>
<pdfrwt beam="2">  1       -1 0.37132642E-02 0.27825676E+03</pdfrwt>
<totfact> 0.62979403E+03</totfact>
</mgrwt>
</event>
<event>
 5    1  0.1100736E+001  0.2722694E+03  0.7818608E-02  0.1099988E+00
          2   -1    0    0  501    0  0.00000000000E+00  0.00000000000E+00  0.12372459979E+04  0.12372459979E+04  0.00000000000E+00 0. -1.
         -2   -1    0    0    0  501 -0.00000000000E+00 -0.00000000000E+00 -0.14978955662E+02  0.14978955662E+02  0.00000000000E+00 0. -1.
         35    2    1    2    0    0  0.00000000000E+00  0.00000000000E+00  0.12222670423E+04  0.12522249536E+04  0.27226937357E+03 0.  0.
         25    1    3    3    0    0 -0.22232942090E+02  0.60217021553E+02  0.62723703977E+03  0.64183073895E+03  0.12000000000E+03 0.  0.
         25    1    3    3    0    0  0.22232942090E+02 -0.60217021553E+02  0.59503000251E+03  0.61039421466E+03  0.12000000000E+03 0.  0.
<mgrwt>
<rscale>  0 0.27226937E+03</rscale>
<asrwt>0</asrwt>
<pdfrwt beam="1">  1        2 0.19034546E+00 0.27226937E+03</pdfrwt>
<pdfrwt beam="2">  1       -2 0.23044557E-02 0.27226937E+03</pdfrwt>
<totfact> 0.11914873E+04</totfact>
</mgrwt>
</event>
<event>
 5    1  0.1100736E+001  0.2741402E+03  0.7818608E-02  0.1098933E+00
          2   -1    0    0  501    0  0.00000000000E+00  0.00000000000E+00  0.12685726026E+04  0.12685726026E+04  0.00000000000E+00 0.  1.
         -2   -1    0    0    0  501 -0.00000000000E+00 -0.00000000000E+00 -0.14810510901E+02  0.14810510901E+02  0.00000000000E+00 0.  1.
         35    2    1    2    0    0  0.00000000000E+00  0.00000000000E+00  0.12537620917E+04  0.12833831135E+04  0.27414017116E+03 0.  0.
         25    1    3    3    0    0 -0.37774667229E+02 -0.37165754557E+02  0.44079631001E+03  0.45990173484E+03  0.12000000000E+03 0.  0.
         25    1    3    3    0    0  0.37774667229E+02  0.37165754557E+02  0.81296578172E+03  0.82348137869E+03  0.12000000000E+03 0.  0.
<mgrwt>
<rscale>  0 0.27414017E+03</rscale>
<asrwt>0</asrwt>
<pdfrwt beam="1">  1        2 0.19516493E+00 0.27414017E+03</pdfrwt>
<pdfrwt beam="2">  1       -2 0.22785411E-02 0.27414017E+03</pdfrwt>
<totfact> 0.11637984E+04</totfact>
</mgrwt>
</event>
<event>
 5    1  0.1100736E+001  0.2745685E+03  0.7818608E-02  0.1098693E+00
         -2   -1    0    0    0  501 -0.00000000000E+00  0.00000000000E+00  0.14032629151E+02  0.14032629151E+02  0.00000000000E+00 0. -1.
          2   -1    0    0  501    0  0.00000000000E+00 -0.00000000000E+00 -0.13430815317E+04  0.13430815317E+04  0.00000000000E+00 0. -1.
         35    2    1    2    0    0  0.00000000000E+00  0.00000000000E+00 -0.13290489025E+04  0.13571141608E+04  0.27456849822E+03 0.  0.
         25    1    3    3    0    0 -0.50393528404E+02  0.42911299826E+02 -0.70470289584E+03  0.71790463069E+03  0.12000000000E+03 0.  0.
         25    1    3    3    0    0  0.50393528404E+02 -0.42911299826E+02 -0.62434600667E+03  0.63920953013E+03  0.12000000000E+03 0.  0.
<mgrwt>
<rscale>  0 0.27456850E+03</rscale>
<asrwt>0</asrwt>
<pdfrwt beam="1">  1        2 0.20662799E+00 0.27456850E+03</pdfrwt>
<pdfrwt beam="2">  1       -2 0.21588653E-02 0.27456850E+03</pdfrwt>
<totfact> 0.11461564E+04</totfact>
</mgrwt>
</event>
<event>
 5    1  0.1100736E+001  0.2758941E+03  0.7818608E-02  0.1097953E+00
          4   -1    0    0  501    0  0.00000000000E+00  0.00000000000E+00  0.20904970849E+03  0.20904970849E+03  0.00000000000E+00 0.  1.
         -4   -1    0    0    0  501 -0.00000000000E+00 -0.00000000000E+00 -0.91028046590E+02  0.91028046590E+02  0.00000000000E+00 0.  1.
         35    2    1    2    0    0  0.00000000000E+00  0.00000000000E+00  0.11802166190E+03  0.30007775508E+03  0.27589408551E+03 0.  0.
         25    1    3    3    0    0 -0.59712064190E+02  0.76775746123E+01  0.24531789951E+02  0.13647814653E+03  0.12000000000E+03 0.  0.
         25    1    3    3    0    0  0.59712064190E+02 -0.76775746123E+01  0.93489871952E+02  0.16359960855E+03  0.12000000000E+03 0.  0.
<mgrwt>
<rscale>  0 0.27589409E+03</rscale>
<asrwt>0</asrwt>
<pdfrwt beam="1">  1        4 0.32161493E-01 0.27589409E+03</pdfrwt>
<pdfrwt beam="2">  1       -4 0.14004315E-01 0.27589409E+03</pdfrwt>
<totfact> 0.74237443E+02</totfact>
</mgrwt>
</event>
<event>
 5    1  0.1100736E+001  0.2757047E+03  0.7818608E-02  0.1098058E+00
          2   -1    0    0  501    0  0.00000000000E+00  0.00000000000E+00  0.61557612038E+03  0.61557612038E+03  0.00000000000E+00 0.  1.
         -2   -1    0    0    0  501 -0.00000000000E+00 -0.00000000000E+00 -0.30870712792E+02  0.30870712792E+02  0.00000000000E+00 0.  1.
         35    2    1    2    0    0  0.00000000000E+00  0.00000000000E+00  0.58470540759E+03  0.64644683318E+03  0.27570472331E+03 0.  0.
         25    1    3    3    0    0  0.49576933403E+02  0.37559806507E+02  0.35590517761E+03  0.38070606357E+03  0.12000000000E+03 0.  0.
         25    1    3    3    0    0 -0.49576933403E+02 -0.37559806507E+02  0.22880022998E+03  0.26574076960E+03  0.12000000000E+03 0.  0.
<mgrwt>
<rscale>  0 0.27570472E+03</rscale>
<asrwt>0</asrwt>
<pdfrwt beam="1">  1        2 0.94704010E-01 0.27570472E+03</pdfrwt>
<pdfrwt beam="2">  1       -2 0.47493409E-02 0.27570472E+03</pdfrwt>
<totfact> 0.10321490E+04</totfact>
</mgrwt>
</event>
<event>
 5    1  0.1100736E+001  0.2762175E+03  0.7818608E-02  0.1097773E+00
         -1   -1    0    0    0  501 -0.00000000000E+00  0.00000000000E+00  0.12639759332E+02  0.12639759332E+02  0.00000000000E+00 0. -1.
          1   -1    0    0  501    0  0.00000000000E+00 -0.00000000000E+00 -0.15090499651E+04  0.15090499651E+04  0.00000000000E+00 0. -1.
         35    2    1    2    0    0  0.00000000000E+00  0.00000000000E+00 -0.14964102058E+04  0.15216897244E+04  0.27621751124E+03 0.  0.
         25    1    3    3    0    0 -0.84639755955E+01  0.37769248522E+02 -0.10586657000E+04  0.10661478412E+04  0.12000000000E+03 0.  0.
         25    1    3    3    0    0  0.84639755955E+01 -0.37769248522E+02 -0.43774450581E+03  0.45554188324E+03  0.12000000000E+03 0.  0.
<mgrwt>
<rscale>  0 0.27621751E+03</rscale>
<asrwt>0</asrwt>
<pdfrwt beam="1">  1        1 0.23216152E+00 0.27621751E+03</pdfrwt>
<pdfrwt beam="2">  1       -1 0.19445785E-02 0.27621751E+03</pdfrwt>
<totfact> 0.50432713E+03</totfact>
</mgrwt>
</event>
<event>
 5    1  0.1100736E+001  0.2750207E+03  0.7818608E-02  0.1098440E+00
         -2   -1    0    0    0  501 -0.00000000000E+00  0.00000000000E+00  0.27201826089E+02  0.27201826089E+02  0.00000000000E+00 0. -1.
          2   -1    0    0  501    0  0.00000000000E+00 -0.00000000000E+00 -0.69514053935E+03  0.69514053935E+03  0.00000000000E+00 0. -1.
         35    2    1    2    0    0  0.00000000000E+00  0.00000000000E+00 -0.66793871326E+03  0.72234236544E+03  0.27502066874E+03 0.  0.
         25    1    3    3    0    0 -0.32751006258E+02  0.13778445710E+01 -0.18004277124E+03  0.21883767122E+03  0.12000000000E+03 0.  0.
         25    1    3    3    0    0  0.32751006258E+02 -0.13778445710E+01 -0.48789594202E+03  0.50350469423E+03  0.12000000000E+03 0.  0.
<mgrwt>
<rscale>  0 0.27502067E+03</rscale>
<asrwt>0</asrwt>
<pdfrwt beam="1">  1        2 0.10694469E+00 0.27502067E+03</pdfrwt>
<pdfrwt beam="2">  1       -2 0.41848965E-02 0.27502067E+03</pdfrwt>
<totfact> 0.10813826E+04</totfact>
</mgrwt>
</event>
<event>
 5    1  0.1100736E+001  0.2748499E+03  0.7818608E-02  0.1098536E+00
          4   -1    0    0  501    0  0.00000000000E+00  0.00000000000E+00  0.14108992289E+02  0.14108992289E+02  0.00000000000E+00 0. -1.
         -4   -1    0    0    0  501 -0.00000000000E+00 -0.00000000000E+00 -0.13385517610E+04  0.13385517610E+04  0.00000000000E+00 0. -1.
         35    2    1    2    0    0  0.00000000000E+00  0.00000000000E+00 -0.13244427687E+04  0.13526607533E+04  0.27484989703E+03 0.  0.
         25    1    3    3    0    0 -0.51090809383E+02  0.24295612381E+02 -0.48579785102E+03  0.50358723141E+03  0.12000000000E+03 0.  0.
         25    1    3    3    0    0  0.51090809383E+02 -0.24295612381E+02 -0.83864491772E+03  0.84907352190E+03  0.12000000000E+03 0.  0.
<mgrwt>
<rscale>  0 0.27484990E+03</rscale>
<asrwt>0</asrwt>
<pdfrwt beam="1">  1        4 0.21706144E-02 0.27484990E+03</pdfrwt>
<pdfrwt beam="2">  1       -4 0.20593102E+00 0.27484990E+03</pdfrwt>
<totfact> 0.22108493E+02</totfact>
</mgrwt>
</event>
<event>
 5    1  0.1100736E+001  0.2761802E+03  0.7818608E-02  0.1097794E+00
         -2   -1    0    0    0  501 -0.00000000000E+00  0.00000000000E+00  0.18235334152E+03  0.18235334152E+03  0.00000000000E+00 0. -1.
          2   -1    0    0  501    0  0.00000000000E+00 -0.00000000000E+00 -0.10457104731E+03  0.10457104731E+03  0.00000000000E+00 0. -1.
         35    2    1    2    0    0  0.00000000000E+00  0.00000000000E+00  0.77782294216E+02  0.28692438883E+03  0.27618023030E+03 0.  0.
         25    1    3    3    0    0 -0.63380239684E+02  0.25496468728E+02  0.40267527614E+02  0.14383531722E+03  0.12000000000E+03 0.  0.
         25    1    3    3    0    0  0.63380239684E+02 -0.25496468728E+02  0.37514766602E+02  0.14308907161E+03  0.12000000000E+03 0.  0.
<mgrwt>
<rscale>  0 0.27618023E+03</rscale>
<asrwt>0</asrwt>
<pdfrwt beam="1">  1        2 0.16087854E-01 0.27618023E+03</pdfrwt>
<pdfrwt beam="2">  1       -2 0.28054360E-01 0.27618023E+03</pdfrwt>
<totfact> 0.41194850E+03</totfact>
</mgrwt>
</event>
<event>
 5    1  0.1100736E+001  0.2745815E+03  0.7818608E-02  0.1098686E+00
         -1   -1    0    0    0  501 -0.00000000000E+00  0.00000000000E+00  0.25579041191E+03  0.25579041191E+03  0.00000000000E+00 0. -1.
          1   -1    0    0  501    0  0.00000000000E+00 -0.00000000000E+00 -0.73688246077E+02  0.73688246077E+02  0.00000000000E+00 0. -1.
         35    2    1    2    0    0  0.00000000000E+00  0.00000000000E+00  0.18210216584E+03  0.32947865799E+03  0.27458147656E+03 0.  0.
         25    1    3    3    0    0  0.45714836430E+02 -0.41625213456E+02  0.12107913777E+03  0.18133577217E+03  0.12000000000E+03 0.  0.
         25    1    3    3    0    0 -0.45714836430E+02  0.41625213456E+02  0.61023028067E+02  0.14814288582E+03  0.12000000000E+03 0.  0.
<mgrwt>
<rscale>  0 0.27458148E+03</rscale>
<asrwt>0</asrwt>
<pdfrwt beam="1">  1        1 0.11336653E-01 0.27458148E+03</pdfrwt>
<pdfrwt beam="2">  1       -1 0.39352371E-01 0.27458148E+03</pdfrwt>
<totfact> 0.34267151E+03</totfact>
</mgrwt>
</event>
<event>
 5    1  0.1100736E+001  0.2763630E+03  0.7818608E-02  0.1097692E+00
         -1   -1    0    0    0  501 -0.00000000000E+00  0.00000000000E+00  0.11513512062E+03  0.11513512062E+03  0.00000000000E+00 0.  1.
          1   -1    0    0  501    0  0.00000000000E+00 -0.00000000000E+00 -0.16584098219E+03  0.16584098219E+03  0.00000000000E+00 0.  1.
         35    2    1    2    0    0  0.00000000000E+00  0.00000000000E+00 -0.50705861569E+02  0.28097610281E+03  0.27636296053E+03 0.  0.
         25    1    3    3    0    0 -0.37232508623E+02 -0.75843887570E+01  0.32610471126E+02  0.13002778733E+03  0.12000000000E+03 0.  0.
         25    1    3    3    0    0  0.37232508623E+02  0.75843887570E+01 -0.83316332695E+02  0.15094831548E+03  0.12000000000E+03 0.  0.
<mgrwt>
<rscale>  0 0.27636296E+03</rscale>
<asrwt>0</asrwt>
<pdfrwt beam="1">  1        1 0.25513997E-01 0.27636296E+03</pdfrwt>
<pdfrwt beam="2">  1       -1 0.17713096E-01 0.27636296E+03</pdfrwt>
<totfact> 0.45529089E+03</totfact>
</mgrwt>
</event>
<event>
 5    1  0.1100736E+001  0.2748549E+03  0.7818608E-02  0.1098533E+00
          1   -1    0    0  501    0  0.00000000000E+00  0.00000000000E+00  0.18891327235E+02  0.18891327235E+02  0.00000000000E+00 0. -1.
         -1   -1    0    0    0  501 -0.00000000000E+00 -0.00000000000E+00 -0.99973443853E+03  0.99973443853E+03  0.00000000000E+00 0. -1.
         35    2    1    2    0    0  0.00000000000E+00  0.00000000000E+00 -0.98084311130E+03  0.10186257658E+04  0.27485494666E+03 0.  0.
         25    1    3    3    0    0 -0.27486512058E+02 -0.48631484257E+02 -0.35345907776E+03  0.37743058866E+03  0.12000000000E+03 0.  0.
         25    1    3    3    0    0  0.27486512058E+02  0.48631484257E+02 -0.62738403354E+03  0.64119517711E+03  0.12000000000E+03 0.  0.
<mgrwt>
<rscale>  0 0.27485495E+03</rscale>
<asrwt>0</asrwt>
<pdfrwt beam="1">  1        1 0.29063574E-02 0.27485495E+03</pdfrwt>
<pdfrwt beam="2">  1       -1 0.15380533E+00 0.27485495E+03</pdfrwt>
<totfact> 0.12608273E+03</totfact>
</mgrwt>
</event>
<event>
 5    1  0.1100736E+001  0.2743121E+03  0.7818608E-02  0.1098837E+00
         -4   -1    0    0    0  501 -0.00000000000E+00  0.00000000000E+00  0.57045019854E+02  0.57045019854E+02  0.00000000000E+00 0. -1.
          4   -1    0    0  501    0  0.00000000000E+00 -0.00000000000E+00 -0.32977077751E+03  0.32977077751E+03  0.00000000000E+00 0. -1.
         35    2    1    2    0    0  0.00000000000E+00  0.00000000000E+00 -0.27272575766E+03  0.38681579737E+03  0.27431208906E+03 0.  0.
         25    1    3    3    0    0 -0.39964060320E+02 -0.43321549579E+02 -0.17954828489E+03  0.22385591210E+03  0.12000000000E+03 0.  0.
         25    1    3    3    0    0  0.39964060320E+02  0.43321549579E+02 -0.93177472775E+02  0.16295988527E+03  0.12000000000E+03 0.  0.
<mgrwt>
<rscale>  0 0.27431209E+03</rscale>
<asrwt>0</asrwt>
<pdfrwt beam="1">  1        4 0.50733965E-01 0.27431209E+03</pdfrwt>
<pdfrwt beam="2">  1       -4 0.87761571E-02 0.27431209E+03</pdfrwt>
<totfact> 0.66711879E+02</totfact>
</mgrwt>
</event>
<event>
 5    1  0.1100736E+001  0.2712824E+03  0.7818608E-02  0.1100548E+00
         -1   -1    0    0    0  501 -0.00000000000E+00  0.00000000000E+00  0.28931841754E+03  0.28931841754E+03  0.00000000000E+00 0. -1.
          1   -1    0    0  501    0  0.00000000000E+00 -0.00000000000E+00 -0.63592673548E+02  0.63592673548E+02  0.00000000000E+00 0. -1.
         35    2    1    2    0    0  0.00000000000E+00  0.00000000000E+00  0.22572574400E+03  0.35291109109E+03  0.27128237450E+03 0.  0.
         25    1    3    3    0    0  0.45150511844E+02  0.32528195779E+02  0.15193058350E+03  0.20144367561E+03  0.12000000000E+03 0.  0.
         25    1    3    3    0    0 -0.45150511844E+02 -0.32528195779E+02  0.73795160496E+02  0.15146741548E+03  0.12000000000E+03 0.  0.
<mgrwt>
<rscale>  0 0.27128237E+03</rscale>
<asrwt>0</asrwt>
<pdfrwt beam="1">  1        1 0.97834884E-02 0.27128237E+03</pdfrwt>
<pdfrwt beam="2">  1       -1 0.44510525E-01 0.27128237E+03</pdfrwt>
<totfact> 0.33478865E+03</totfact>
</mgrwt>
</event>
<event>
 5    1  0.1100736E+001  0.2753535E+03  0.7818608E-02  0.1098254E+00
         -2   -1    0    0    0  501 -0.00000000000E+00  0.00000000000E+00  0.12079981731E+02  0.12079981731E+02  0.00000000000E+00 0.  1.
          2   -1    0    0  501    0  0.00000000000E+00 -0.00000000000E+00 -0.15691151920E+04  0.15691151920E+04  0.00000000000E+00 0.  1.
         35    2    1    2    0    0  0.00000000000E+00  0.00000000000E+00 -0.15570352103E+04  0.15811951737E+04  0.27535346631E+03 0.  0.
         25    1    3    3    0    0  0.58107333387E+00 -0.56177286732E+02 -0.99327624582E+03  0.10020748104E+04  0.12000000000E+03 0.  0.
         25    1    3    3    0    0 -0.58107333387E+00  0.56177286732E+02 -0.56375896445E+03  0.57912036330E+03  0.12000000000E+03 0.  0.
<mgrwt>
<rscale>  0 0.27535347E+03</rscale>
<asrwt>0</asrwt>
<pdfrwt beam="1">  1        2 0.24140224E+00 0.27535347E+03</pdfrwt>
<pdfrwt beam="2">  1       -2 0.18584594E-02 0.27535347E+03</pdfrwt>
<totfact> 0.10794436E+04</totfact>
</mgrwt>
</event>
<event>
 5    1  0.1100736E+001  0.2762066E+03  0.7818608E-02  0.1097779E+00
          2   -1    0    0  501    0  0.00000000000E+00  0.00000000000E+00  0.49541892421E+03  0.49541892421E+03  0.00000000000E+00 0. -1.
         -2   -1    0    0    0  501 -0.00000000000E+00 -0.00000000000E+00 -0.38497778357E+02  0.38497778357E+02  0.00000000000E+00 0. -1.
         35    2    1    2    0    0  0.00000000000E+00  0.00000000000E+00  0.45692114585E+03  0.53391670257E+03  0.27620664683E+03 0.  0.
         25    1    3    3    0    0 -0.28781194614E+02 -0.23986407493E+02  0.33897909947E+03  0.36153911930E+03  0.12000000000E+03 0.  0.
         25    1    3    3    0    0  0.28781194614E+02  0.23986407493E+02  0.11794204638E+03  0.17237758327E+03  0.12000000000E+03 0.  0.
<mgrwt>
<rscale>  0 0.27620665E+03</rscale>
<asrwt>0</asrwt>
<pdfrwt beam="1">  1        2 0.76218291E-01 0.27620665E+03</pdfrwt>
<pdfrwt beam="2">  1       -2 0.59227355E-02 0.27620665E+03</pdfrwt>
<totfact> 0.94452418E+03</totfact>
</mgrwt>
</event>
<event>
 5    1  0.1100736E+001  0.2751324E+03  0.7818608E-02  0.1098378E+00
          2   -1    0    0  501    0  0.00000000000E+00  0.00000000000E+00  0.34013510385E+04  0.34013510385E+04  0.00000000000E+00 0.  1.
         -2   -1    0    0    0  501 -0.00000000000E+00 -0.00000000000E+00 -0.55638058482E+01  0.55638058482E+01  0.00000000000E+00 0.  1.
         35    2    1    2    0    0  0.00000000000E+00  0.00000000000E+00  0.33957872327E+04  0.34069148444E+04  0.27513238123E+03 0.  0.
         25    1    3    3    0    0 -0.10611532628E+02 -0.62448498638E+02  0.14176922003E+04  0.14241711956E+04  0.12000000000E+03 0.  0.
         25    1    3    3    0    0  0.10611532628E+02  0.62448498638E+02  0.19780950323E+04  0.19827436487E+04  0.12000000000E+03 0.  0.
<mgrwt>
<rscale>  0 0.27513238E+03</rscale>
<asrwt>0</asrwt>
<pdfrwt beam="1">  1        2 0.52328311E+00 0.27513238E+03</pdfrwt>
<pdfrwt beam="2">  1       -2 0.85597285E-03 0.27513238E+03</pdfrwt>
<totfact> 0.31442920E+03</totfact>
</mgrwt>
</event>
<event>
 5    1  0.1100736E+001  0.2753122E+03  0.7818608E-02  0.1098277E+00
          2   -1    0    0  501    0  0.00000000000E+00  0.00000000000E+00  0.21565157659E+03  0.21565157659E+03  0.00000000000E+00 0.  1.
         -2   -1    0    0    0  501 -0.00000000000E+00 -0.00000000000E+00 -0.87869538379E+02  0.87869538379E+02  0.00000000000E+00 0.  1.
         35    2    1    2    0    0  0.00000000000E+00  0.00000000000E+00  0.12778203822E+03  0.30352111497E+03  0.27531221902E+03 0.  0.
         25    1    3    3    0    0  0.71977170602E+01  0.33906751955E+02  0.10307523049E+00  0.12490590692E+03  0.12000000000E+03 0.  0.
         25    1    3    3    0    0 -0.71977170602E+01 -0.33906751955E+02  0.12767896298E+03  0.17861520805E+03  0.12000000000E+03 0.  0.
<mgrwt>
<rscale>  0 0.27531222E+03</rscale>
<asrwt>0</asrwt>
<pdfrwt beam="1">  1        2 0.33177165E-01 0.27531222E+03</pdfrwt>
<pdfrwt beam="2">  1       -2 0.13518391E-01 0.27531222E+03</pdfrwt>
<totfact> 0.63327764E+03</totfact>
</mgrwt>
</event>
<event>
 5    1  0.1100736E+001  0.2763937E+03  0.7818608E-02  0.1097675E+00
          2   -1    0    0  501    0  0.00000000000E+00  0.00000000000E+00  0.47492079501E+03  0.47492079501E+03  0.00000000000E+00 0. -1.
         -2   -1    0    0    0  501 -0.00000000000E+00 -0.00000000000E+00 -0.40213808182E+02  0.40213808182E+02  0.00000000000E+00 0. -1.
         35    2    1    2    0    0  0.00000000000E+00  0.00000000000E+00  0.43470698682E+03  0.51513460319E+03  0.27639373185E+03 0.  0.
         25    1    3    3    0    0  0.14764824241E+02 -0.42603857862E+02  0.12113371274E+03  0.17637025005E+03  0.12000000000E+03 0.  0.
         25    1    3    3    0    0 -0.14764824241E+02  0.42603857862E+02  0.31357327408E+03  0.33876435314E+03  0.12000000000E+03 0.  0.
<mgrwt>
<rscale>  0 0.27639373E+03</rscale>
<asrwt>0</asrwt>
<pdfrwt beam="1">  1        2 0.73064734E-01 0.27639373E+03</pdfrwt>
<pdfrwt beam="2">  1       -2 0.61867400E-02 0.27639373E+03</pdfrwt>
<totfact> 0.92593998E+03</totfact>
</mgrwt>
</event>
<event>
 5    1  0.1100736E+001  0.2745020E+03  0.7818608E-02  0.1098730E+00
          2   -1    0    0  501    0  0.00000000000E+00  0.00000000000E+00  0.50106881455E+03  0.50106881455E+03  0.00000000000E+00 0. -1.
         -2   -1    0    0    0  501 -0.00000000000E+00 -0.00000000000E+00 -0.37595299780E+02  0.37595299780E+02  0.00000000000E+00 0. -1.
         35    2    1    2    0    0  0.00000000000E+00  0.00000000000E+00  0.46347351477E+03  0.53866411433E+03  0.27450196570E+03 0.  0.
         25    1    3    3    0    0  0.56762966381E+02 -0.62269903363E+01  0.29905999195E+03  0.32725783191E+03  0.12000000000E+03 0.  0.
         25    1    3    3    0    0 -0.56762966381E+02  0.62269903363E+01  0.16441352282E+03  0.21140628242E+03  0.12000000000E+03 0.  0.
<mgrwt>
<rscale>  0 0.27450197E+03</rscale>
<asrwt>0</asrwt>
<pdfrwt beam="1">  1        2 0.77087505E-01 0.27450197E+03</pdfrwt>
<pdfrwt beam="2">  1       -2 0.57838926E-02 0.27450197E+03</pdfrwt>
<totfact> 0.96691052E+03</totfact>
</mgrwt>
</event>
<event>
 5    1  0.1100736E+001  0.2757211E+03  0.7818608E-02  0.1098049E+00
         -2   -1    0    0    0  501 -0.00000000000E+00  0.00000000000E+00  0.29456349686E+02  0.29456349686E+02  0.00000000000E+00 0.  1.
          2   -1    0    0  501    0  0.00000000000E+00 -0.00000000000E+00 -0.64520978233E+03  0.64520978233E+03  0.00000000000E+00 0.  1.
         35    2    1    2    0    0  0.00000000000E+00  0.00000000000E+00 -0.61575343265E+03  0.67466613202E+03  0.27572105447E+03 0.  0.
         25    1    3    3    0    0 -0.27730609552E+02 -0.43384905470E+02 -0.41604832489E+03  0.43605899299E+03  0.12000000000E+03 0.  0.
         25    1    3    3    0    0  0.27730609552E+02  0.43384905470E+02 -0.19970510776E+03  0.23860713902E+03  0.12000000000E+03 0.  0.
<mgrwt>
<rscale>  0 0.27572105E+03</rscale>
<asrwt>0</asrwt>
<pdfrwt beam="1">  1        2 0.99263046E-01 0.27572105E+03</pdfrwt>
<pdfrwt beam="2">  1       -2 0.45317460E-02 0.27572105E+03</pdfrwt>
<totfact> 0.10484832E+04</totfact>
</mgrwt>
</event>
<event>
 5    1  0.1100736E+001  0.2765264E+03  0.7818608E-02  0.1097601E+00
          2   -1    0    0  501    0  0.00000000000E+00  0.00000000000E+00  0.35481012067E+04  0.35481012067E+04  0.00000000000E+00 0. -1.
         -2   -1    0    0    0  501 -0.00000000000E+00 -0.00000000000E+00 -0.53878697142E+01  0.53878697142E+01  0.00000000000E+00 0. -1.
         35    2    1    2    0    0  0.00000000000E+00  0.00000000000E+00  0.35427133370E+04  0.35534890764E+04  0.27652636066E+03 0.  0.
         25    1    3    3    0    0  0.21969578615E+02 -0.49442729114E+02  0.23149568442E+04  0.23186962794E+04  0.12000000000E+03 0.  0.
         25    1    3    3    0    0 -0.21969578615E+02  0.49442729114E+02  0.12277564928E+04  0.12347927970E+04  0.12000000000E+03 0.  0.
<mgrwt>
<rscale>  0 0.27652636E+03</rscale>
<asrwt>0</asrwt>
<pdfrwt beam="1">  1        2 0.54585986E+00 0.27652636E+03</pdfrwt>
<pdfrwt beam="2">  1       -2 0.82890587E-03 0.27652636E+03</pdfrwt>
<totfact> 0.26365451E+03</totfact>
</mgrwt>
</event>
<event>
 5    1  0.1100736E+001  0.2732758E+03  0.7818608E-02  0.1099419E+00
          1   -1    0    0  501    0  0.00000000000E+00  0.00000000000E+00  0.17789464605E+04  0.17789464605E+04  0.00000000000E+00 0. -1.
         -1   -1    0    0    0  501 -0.00000000000E+00 -0.00000000000E+00 -0.10494928781E+02  0.10494928781E+02  0.00000000000E+00 0. -1.
         35    2    1    2    0    0  0.00000000000E+00  0.00000000000E+00  0.17684515317E+04  0.17894413892E+04  0.27327580505E+03 0.  0.
         25    1    3    3    0    0 -0.46260301733E+02 -0.38305033547E+02  0.10527841274E+04  0.10613018940E+04  0.12000000000E+03 0.  0.
         25    1    3    3    0    0  0.46260301733E+02  0.38305033547E+02  0.71566740423E+03  0.72813949528E+03  0.12000000000E+03 0.  0.
<mgrwt>
<rscale>  0 0.27327581E+03</rscale>
<asrwt>0</asrwt>
<pdfrwt beam="1">  1        1 0.27368383E+00 0.27327581E+03</pdfrwt>
<pdfrwt beam="2">  1       -1 0.16146058E-02 0.27327581E+03</pdfrwt>
<totfact> 0.44024819E+03</totfact>
</mgrwt>
</event>
<event>
 5    1  0.1100736E+001  0.2743687E+03  0.7818608E-02  0.1098805E+00
         -3   -1    0    0    0  501 -0.00000000000E+00  0.00000000000E+00  0.50320901391E+03  0.50320901391E+03  0.00000000000E+00 0.  1.
          3   -1    0    0  501    0  0.00000000000E+00 -0.00000000000E+00 -0.37399065925E+02  0.37399065925E+02  0.00000000000E+00 0.  1.
         35    2    1    2    0    0  0.00000000000E+00  0.00000000000E+00  0.46580994799E+03  0.54060807984E+03  0.27436870875E+03 0.  0.
         25    1    3    3    0    0 -0.38776029315E+02  0.46036990090E+02  0.17729434669E+03  0.22238765765E+03  0.12000000000E+03 0.  0.
         25    1    3    3    0    0  0.38776029315E+02 -0.46036990090E+02  0.28851560130E+03  0.31822042219E+03  0.12000000000E+03 0.  0.
<mgrwt>
<rscale>  0 0.27436871E+03</rscale>
<asrwt>0</asrwt>
<pdfrwt beam="1">  1        3 0.57537028E-02 0.27436871E+03</pdfrwt>
<pdfrwt beam="2">  1       -3 0.77416766E-01 0.27436871E+03</pdfrwt>
<totfact> 0.74060552E+02</totfact>
</mgrwt>
</event>
<event>
 5    1  0.1100736E+001  0.2739707E+03  0.7818608E-02  0.1099028E+00
         -2   -1    0    0    0  501 -0.00000000000E+00  0.00000000000E+00  0.11240678005E+03  0.11240678005E+03  0.00000000000E+00 0.  1.
          2   -1    0    0  501    0  0.00000000000E+00 -0.00000000000E+00 -0.16693824516E+03  0.16693824516E+03  0.00000000000E+00 0.  1.
         35    2    1    2    0    0  0.00000000000E+00  0.00000000000E+00 -0.54531465115E+02  0.27934502521E+03  0.27397073278E+03 0.  0.
         25    1    3    3    0    0  0.47340884207E+02  0.43079241532E+02 -0.43957889586E+02  0.14293101982E+03  0.12000000000E+03 0.  0.
         25    1    3    3    0    0 -0.47340884207E+02 -0.43079241532E+02 -0.10573575529E+02  0.13641400540E+03  0.12000000000E+03 0.  0.
<mgrwt>
<rscale>  0 0.27397073E+03</rscale>
<asrwt>0</asrwt>
<pdfrwt beam="1">  1        2 0.25682807E-01 0.27397073E+03</pdfrwt>
<pdfrwt beam="2">  1       -2 0.17293351E-01 0.27397073E+03</pdfrwt>
<totfact> 0.55822719E+03</totfact>
</mgrwt>
</event>
<event>
 5    1  0.1100736E+001  0.2747723E+03  0.7818608E-02  0.1098579E+00
          2   -1    0    0  501    0  0.00000000000E+00  0.00000000000E+00  0.30063776276E+04  0.30063776276E+04  0.00000000000E+00 0. -1.
         -2   -1    0    0    0  501 -0.00000000000E+00 -0.00000000000E+00 -0.62783034160E+01  0.62783034160E+01  0.00000000000E+00 0. -1.
         35    2    1    2    0    0  0.00000000000E+00  0.00000000000E+00  0.30000993241E+04  0.30126559310E+04  0.27477227610E+03 0.  0.
         25    1    3    3    0    0  0.42557724671E+02 -0.25463190161E+02  0.10078298657E+04  0.10161597179E+04  0.12000000000E+03 0.  0.
         25    1    3    3    0    0 -0.42557724671E+02  0.25463190161E+02  0.19922694584E+04  0.19964962131E+04  0.12000000000E+03 0.  0.
<mgrwt>
<rscale>  0 0.27477228E+03</rscale>
<asrwt>0</asrwt>
<pdfrwt beam="1">  1        2 0.46251849E+00 0.27477228E+03</pdfrwt>
<pdfrwt beam="2">  1       -2 0.96589523E-03 0.27477228E+03</pdfrwt>
<totfact> 0.46317863E+03</totfact>
</mgrwt>
</event>
<event>
 5    1  0.1100736E+001  0.2750873E+03  0.7818608E-02  0.1098403E+00
         -1   -1    0    0    0  501 -0.00000000000E+00  0.00000000000E+00  0.10120447794E+03  0.10120447794E+03  0.00000000000E+00 0. -1.
          1   -1    0    0  501    0  0.00000000000E+00 -0.00000000000E+00 -0.18693104013E+03  0.18693104013E+03  0.00000000000E+00 0. -1.
         35    2    1    2    0    0  0.00000000000E+00  0.00000000000E+00 -0.85726562196E+02  0.28813551807E+03  0.27508731942E+03 0.  0.
         25    1    3    3    0    0 -0.53548805728E+02 -0.39983560092E+02 -0.35302973281E+02  0.14181840358E+03  0.12000000000E+03 0.  0.
         25    1    3    3    0    0  0.53548805728E+02  0.39983560092E+02 -0.50423588914E+02  0.14631711449E+03  0.12000000000E+03 0.  0.
<mgrwt>
<rscale>  0 0.27508732E+03</rscale>
<asrwt>0</asrwt>
<pdfrwt beam="1">  1        1 0.28758622E-01 0.27508732E+03</pdfrwt>
<pdfrwt beam="2">  1       -1 0.15569920E-01 0.27508732E+03</pdfrwt>
<totfact> 0.48073026E+03</totfact>
</mgrwt>
</event>
<event>
 5    1  0.1100736E+001  0.2750538E+03  0.7818608E-02  0.1098422E+00
          1   -1    0    0  501    0  0.00000000000E+00  0.00000000000E+00  0.44405555614E+03  0.44405555614E+03  0.00000000000E+00 0.  1.
         -1   -1    0    0    0  501 -0.00000000000E+00 -0.00000000000E+00 -0.42592976289E+02  0.42592976289E+02  0.00000000000E+00 0.  1.
         35    2    1    2    0    0  0.00000000000E+00  0.00000000000E+00  0.40146257985E+03  0.48664853243E+03  0.27505379673E+03 0.  0.
         25    1    3    3    0    0  0.61384590752E+02 -0.19807192198E+02  0.16747744332E+03  0.21589137747E+03  0.12000000000E+03 0.  0.
         25    1    3    3    0    0 -0.61384590752E+02  0.19807192198E+02  0.23398513653E+03  0.27075715496E+03  0.12000000000E+03 0.  0.
<mgrwt>
<rscale>  0 0.27505380E+03</rscale>
<asrwt>0</asrwt>
<pdfrwt beam="1">  1        1 0.68316236E-01 0.27505380E+03</pdfrwt>
<pdfrwt beam="2">  1       -1 0.65527659E-02 0.27505380E+03</pdfrwt>
<totfact> 0.61446883E+03</totfact>
</mgrwt>
</event>
<event>
 5    1  0.1100736E+001  0.2705119E+03  0.7818608E-02  0.1100987E+00
          2   -1    0    0  501    0  0.00000000000E+00  0.00000000000E+00  0.10666544909E+03  0.10666544909E+03  0.00000000000E+00 0. -1.
         -2   -1    0    0    0  501 -0.00000000000E+00 -0.00000000000E+00 -0.17150982630E+03  0.17150982630E+03  0.00000000000E+00 0. -1.
         35    2    1    2    0    0  0.00000000000E+00  0.00000000000E+00 -0.64844377208E+02  0.27817527538E+03  0.27051190469E+03 0.  0.
         25    1    3    3    0    0 -0.57667156899E+02 -0.18988068120E+02 -0.47257415593E+02  0.14254582086E+03  0.12000000000E+03 0.  0.
         25    1    3    3    0    0  0.57667156899E+02  0.18988068120E+02 -0.17586961615E+02  0.13562945452E+03  0.12000000000E+03 0.  0.
<mgrwt>
<rscale>  0 0.27051190E+03</rscale>
<asrwt>0</asrwt>
<pdfrwt beam="1">  1        2 0.16410069E-01 0.27051190E+03</pdfrwt>
<pdfrwt beam="2">  1       -2 0.26386127E-01 0.27051190E+03</pdfrwt>
<totfact> 0.44876740E+03</totfact>
</mgrwt>
</event>
<event>
 5    1  0.1100736E+001  0.2752044E+03  0.7818608E-02  0.1098337E+00
          1   -1    0    0  501    0  0.00000000000E+00  0.00000000000E+00  0.11776118170E+04  0.11776118170E+04  0.00000000000E+00 0. -1.
         -1   -1    0    0    0  501 -0.00000000000E+00 -0.00000000000E+00 -0.16078609854E+02  0.16078609854E+02  0.00000000000E+00 0. -1.
         35    2    1    2    0    0  0.00000000000E+00  0.00000000000E+00  0.11615332071E+04  0.11936904268E+04  0.27520436744E+03 0.  0.
         25    1    3    3    0    0 -0.40503338977E+02 -0.23403917436E+02  0.79085854027E+03  0.80127741421E+03  0.12000000000E+03 0.  0.
         25    1    3    3    0    0  0.40503338977E+02  0.23403917436E+02  0.37067466685E+03  0.39241301261E+03  0.12000000000E+03 0.  0.
<mgrwt>
<rscale>  0 0.27520437E+03</rscale>
<asrwt>0</asrwt>
<pdfrwt beam="1">  1        1 0.18117098E+00 0.27520437E+03</pdfrwt>
<pdfrwt beam="2">  1       -1 0.24736332E-02 0.27520437E+03</pdfrwt>
<totfact> 0.59551233E+03</totfact>
</mgrwt>
</event>
<event>
 5    1  0.1100736E+001  0.2744690E+03  0.7818608E-02  0.1098749E+00
          2   -1    0    0  501    0  0.00000000000E+00  0.00000000000E+00  0.10608124459E+03  0.10608124459E+03  0.00000000000E+00 0. -1.
         -2   -1    0    0    0  501 -0.00000000000E+00 -0.00000000000E+00 -0.17753659445E+03  0.17753659445E+03  0.00000000000E+00 0. -1.
         35    2    1    2    0    0  0.00000000000E+00  0.00000000000E+00 -0.71455349859E+02  0.28361783903E+03  0.27446896290E+03 0.  0.
         25    1    3    3    0    0 -0.45633101928E+02  0.12912961774E+02 -0.84020693162E+02  0.15397597687E+03  0.12000000000E+03 0.  0.
         25    1    3    3    0    0  0.45633101928E+02 -0.12912961774E+02  0.12565343303E+02  0.12964186217E+03  0.12000000000E+03 0.  0.
<mgrwt>
<rscale>  0 0.27446896E+03</rscale>
<asrwt>0</asrwt>
<pdfrwt beam="1">  1        2 0.16320192E-01 0.27446896E+03</pdfrwt>
<pdfrwt beam="2">  1       -2 0.27313322E-01 0.27446896E+03</pdfrwt>
<totfact> 0.42489765E+03</totfact>
</mgrwt>
</event>
<event>
 5    1  0.1100736E+001  0.2750050E+03  0.7818608E-02  0.1098449E+00
          2   -1    0    0  501    0  0.00000000000E+00  0.00000000000E+00  0.37763046065E+03  0.37763046065E+03  0.00000000000E+00 0. -1.
         -2   -1    0    0    0  501 -0.00000000000E+00 -0.00000000000E+00 -0.50067286769E+02  0.50067286769E+02  0.00000000000E+00 0. -1.
         35    2    1    2    0    0  0.00000000000E+00  0.00000000000E+00  0.32756317388E+03  0.42769774742E+03  0.27500496407E+03 0.  0.
         25    1    3    3    0    0 -0.17982707515E+02 -0.46899100737E+02  0.94507556899E+02  0.16079359978E+03  0.12000000000E+03 0.  0.
         25    1    3    3    0    0  0.17982707515E+02  0.46899100737E+02  0.23305561698E+03  0.26690414764E+03  0.12000000000E+03 0.  0.
<mgrwt>
<rscale>  0 0.27500496E+03</rscale>
<asrwt>0</asrwt>
<pdfrwt beam="1">  1        2 0.58096992E-01 0.27500496E+03</pdfrwt>
<pdfrwt beam="2">  1       -2 0.77026597E-02 0.27500496E+03</pdfrwt>
<totfact> 0.84748942E+03</totfact>
</mgrwt>
</event>
<event>
 5    1  0.1100736E+001  0.2747279E+03  0.7818608E-02  0.1098604E+00
          1   -1    0    0  501    0  0.00000000000E+00  0.00000000000E+00  0.12311374195E+04  0.12311374195E+04  0.00000000000E+00 0.  1.
         -1   -1    0    0    0  501 -0.00000000000E+00 -0.00000000000E+00 -0.15326356505E+02  0.15326356505E+02  0.00000000000E+00 0.  1.
         35    2    1    2    0    0  0.00000000000E+00  0.00000000000E+00  0.12158110630E+04  0.12464637760E+04  0.27472787262E+03 0.  0.
         25    1    3    3    0    0 -0.10721883874E+02 -0.31893267723E+02  0.34582408364E+03  0.36759547895E+03  0.12000000000E+03 0.  0.
         25    1    3    3    0    0  0.10721883874E+02  0.31893267723E+02  0.86998697932E+03  0.87886829702E+03  0.12000000000E+03 0.  0.
<mgrwt>
<rscale>  0 0.27472787E+03</rscale>
<asrwt>0</asrwt>
<pdfrwt beam="1">  1        1 0.18940568E+00 0.27472787E+03</pdfrwt>
<pdfrwt beam="2">  1       -1 0.23579020E-02 0.27472787E+03</pdfrwt>
<totfact> 0.58615602E+03</totfact>
</mgrwt>
</event>
<event>
 5    1  0.1100736E+001  0.2746852E+03  0.7818608E-02  0.1098628E+00
          2   -1    0    0  501    0  0.00000000000E+00  0.00000000000E+00  0.20699337838E+03  0.20699337838E+03  0.00000000000E+00 0. -1.
         -2   -1    0    0    0  501 -0.00000000000E+00 -0.00000000000E+00 -0.91128443416E+02  0.91128443416E+02  0.00000000000E+00 0. -1.
         35    2    1    2    0    0  0.00000000000E+00  0.00000000000E+00  0.11586493497E+03  0.29812182180E+03  0.27468516064E+03 0.  0.
         25    1    3    3    0    0 -0.68136958058E+00  0.55915389633E+02  0.18262663050E+02  0.13364325619E+03  0.12000000000E+03 0.  0.
         25    1    3    3    0    0  0.68136958058E+00 -0.55915389633E+02  0.97602271915E+02  0.16447856561E+03  0.12000000000E+03 0.  0.
<mgrwt>
<rscale>  0 0.27468516E+03</rscale>
<asrwt>0</asrwt>
<pdfrwt beam="1">  1        2 0.31845135E-01 0.27468516E+03</pdfrwt>
<pdfrwt beam="2">  1       -2 0.14019761E-01 0.27468516E+03</pdfrwt>
<totfact> 0.62384678E+03</totfact>
</mgrwt>
</event>
<event>
 5    1  0.1100736E+001  0.2746833E+03  0.7818608E-02  0.1098629E+00
          2   -1    0    0  501    0  0.00000000000E+00  0.00000000000E+00  0.83691710517E+03  0.83691710517E+03  0.00000000000E+00 0.  1.
         -2   -1    0    0    0  501 -0.00000000000E+00 -0.00000000000E+00 -0.22538351689E+02  0.22538351689E+02  0.00000000000E+00 0.  1.
         35    2    1    2    0    0  0.00000000000E+00  0.00000000000E+00  0.81437875349E+03  0.85945545686E+03  0.27468332349E+03 0.  0.
         25    1    3    3    0    0  0.49090227218E+02 -0.31719083990E+02  0.30595708497E+03  0.33380486597E+03  0.12000000000E+03 0.  0.
         25    1    3    3    0    0 -0.49090227218E+02  0.31719083990E+02  0.50842166851E+03  0.52565059090E+03  0.12000000000E+03 0.  0.
<mgrwt>
<rscale>  0 0.27468332E+03</rscale>
<asrwt>0</asrwt>
<pdfrwt beam="1">  1        2 0.12875645E+00 0.27468332E+03</pdfrwt>
<pdfrwt beam="2">  1       -2 0.34674394E-02 0.27468332E+03</pdfrwt>
<totfact> 0.11369039E+04</totfact>
</mgrwt>
</event>
<event>
 5    1  0.1100736E+001  0.2758500E+03  0.7818608E-02  0.1097977E+00
          1   -1    0    0  501    0  0.00000000000E+00  0.00000000000E+00  0.30324302748E+02  0.30324302748E+02  0.00000000000E+00 0.  1.
         -1   -1    0    0    0  501 -0.00000000000E+00 -0.00000000000E+00 -0.62732890561E+03  0.62732890561E+03  0.00000000000E+00 0.  1.
         35    2    1    2    0    0  0.00000000000E+00  0.00000000000E+00 -0.59700460286E+03  0.65765320836E+03  0.27585004373E+03 0.  0.
         25    1    3    3    0    0 -0.12781331429E+01  0.48128433959E+02 -0.18403258321E+03  0.22491325320E+03  0.12000000000E+03 0.  0.
         25    1    3    3    0    0  0.12781331429E+01 -0.48128433959E+02 -0.41297201965E+03  0.43273995516E+03  0.12000000000E+03 0.  0.
<mgrwt>
<rscale>  0 0.27585004E+03</rscale>
<asrwt>0</asrwt>
<pdfrwt beam="1">  1        1 0.46652776E-02 0.27585004E+03</pdfrwt>
<pdfrwt beam="2">  1       -1 0.96512134E-01 0.27585004E+03</pdfrwt>
<totfact> 0.19976480E+03</totfact>
</mgrwt>
</event>
<event>
 5    1  0.1100736E+001  0.2776847E+03  0.7818608E-02  0.1096960E+00
         -1   -1    0    0    0  501 -0.00000000000E+00  0.00000000000E+00  0.11720182409E+02  0.11720182409E+02  0.00000000000E+00 0.  1.
          1   -1    0    0  501    0  0.00000000000E+00 -0.00000000000E+00 -0.16447862102E+04  0.16447862102E+04  0.00000000000E+00 0.  1.
         35    2    1    2    0    0  0.00000000000E+00  0.00000000000E+00 -0.16330660278E+04  0.16565063926E+04  0.27768467303E+03 0.  0.
         25    1    3    3    0    0 -0.15218401342E+01 -0.22313401986E+02 -0.12111983733E+04  0.12173338504E+04  0.12000000000E+03 0.  0.
         25    1    3    3    0    0  0.15218401342E+01  0.22313401986E+02 -0.42186765456E+03  0.43917254225E+03  0.12000000000E+03 0.  0.
<mgrwt>
<rscale>  0 0.27768467E+03</rscale>
<asrwt>0</asrwt>
<pdfrwt beam="1">  1        1 0.25304416E+00 0.27768467E+03</pdfrwt>
<pdfrwt beam="2">  1       -1 0.18031041E-02 0.27768467E+03</pdfrwt>
<totfact> 0.45845370E+03</totfact>
</mgrwt>
</event>
<event>
 5    1  0.1100736E+001  0.2829255E+03  0.7818608E-02  0.1094102E+00
          2   -1    0    0  501    0  0.00000000000E+00  0.00000000000E+00  0.77441223746E+02  0.77441223746E+02  0.00000000000E+00 0.  1.
         -2   -1    0    0    0  501 -0.00000000000E+00 -0.00000000000E+00 -0.25841166991E+03  0.25841166991E+03  0.00000000000E+00 0.  1.
         35    2    1    2    0    0  0.00000000000E+00  0.00000000000E+00 -0.18097044617E+03  0.33585289366E+03  0.28292554461E+03 0.  0.
         25    1    3    3    0    0 -0.41190077627E+02 -0.42490114647E+02 -0.14500895809E+03  0.19730593064E+03  0.12000000000E+03 0.  0.
         25    1    3    3    0    0  0.41190077627E+02  0.42490114647E+02 -0.35961488073E+02  0.13854696302E+03  0.12000000000E+03 0.  0.
<mgrwt>
<rscale>  0 0.28292554E+03</rscale>
<asrwt>0</asrwt>
<pdfrwt beam="1">  1        2 0.11914034E-01 0.28292554E+03</pdfrwt>
<pdfrwt beam="2">  1       -2 0.39755642E-01 0.28292554E+03</pdfrwt>
<totfact> 0.30984598E+03</totfact>
</mgrwt>
</event>
<event>
 5    1  0.1100736E+001  0.2746229E+03  0.7818608E-02  0.1098663E+00
          2   -1    0    0  501    0  0.00000000000E+00  0.00000000000E+00  0.26871544047E+04  0.26871544047E+04  0.00000000000E+00 0.  1.
         -2   -1    0    0    0  501 -0.00000000000E+00 -0.00000000000E+00 -0.70165032415E+01  0.70165032415E+01  0.00000000000E+00 0.  1.
         35    2    1    2    0    0  0.00000000000E+00  0.00000000000E+00  0.26801379014E+04  0.26941709079E+04  0.27462285113E+03 0.  0.
         25    1    3    3    0    0  0.24741938807E+02  0.32267770497E+02  0.18592864152E+04  0.18635984939E+04  0.12000000000E+03 0.  0.
         25    1    3    3    0    0 -0.24741938807E+02 -0.32267770497E+02  0.82085148620E+03  0.83057241403E+03  0.12000000000E+03 0.  0.
<mgrwt>
<rscale>  0 0.27462285E+03</rscale>
<asrwt>0</asrwt>
<pdfrwt beam="1">  1        2 0.41340755E+00 0.27462285E+03</pdfrwt>
<pdfrwt beam="2">  1       -2 0.10794642E-02 0.27462285E+03</pdfrwt>
<totfact> 0.60229963E+03</totfact>
</mgrwt>
</event>
<event>
 5    1  0.1100736E+001  0.2745576E+03  0.7818608E-02  0.1098699E+00
          2   -1    0    0  501    0  0.00000000000E+00  0.00000000000E+00  0.25692131591E+03  0.25692131591E+03  0.00000000000E+00 0.  1.
         -2   -1    0    0    0  501 -0.00000000000E+00 -0.00000000000E+00 -0.73351144168E+02  0.73351144168E+02  0.00000000000E+00 0.  1.
         35    2    1    2    0    0  0.00000000000E+00  0.00000000000E+00  0.18357017174E+03  0.33027246008E+03  0.27455762589E+03 0.  0.
         25    1    3    3    0    0 -0.47262733111E+02  0.35887480270E+02  0.12834681486E+03  0.18545776356E+03  0.12000000000E+03 0.  0.
         25    1    3    3    0    0  0.47262733111E+02 -0.35887480270E+02  0.55223356882E+02  0.14481469651E+03  0.12000000000E+03 0.  0.
<mgrwt>
<rscale>  0 0.27455763E+03</rscale>
<asrwt>0</asrwt>
<pdfrwt beam="1">  1        2 0.39526356E-01 0.27455763E+03</pdfrwt>
<pdfrwt beam="2">  1       -2 0.11284791E-01 0.27455763E+03</pdfrwt>
<totfact> 0.70165561E+03</totfact>
</mgrwt>
</event>
<event>
 5    1  0.1100736E+001  0.2749781E+03  0.7818608E-02  0.1098464E+00
         -2   -1    0    0    0  501 -0.00000000000E+00  0.00000000000E+00  0.14385882723E+03  0.14385882723E+03  0.00000000000E+00 0. -1.
          2   -1    0    0  501    0  0.00000000000E+00 -0.00000000000E+00 -0.13140136016E+03  0.13140136016E+03  0.00000000000E+00 0. -1.
         35    2    1    2    0    0  0.00000000000E+00  0.00000000000E+00  0.12457467069E+02  0.27526018740E+03  0.27497814873E+03 0.  0.
         25    1    3    3    0    0 -0.74124909559E-01 -0.31793415920E+02  0.65386037721E+02  0.14030737942E+03  0.12000000000E+03 0.  0.
         25    1    3    3    0    0  0.74124909559E-01  0.31793415920E+02 -0.52928570652E+02  0.13495280798E+03  0.12000000000E+03 0.  0.
<mgrwt>
<rscale>  0 0.27497815E+03</rscale>
<asrwt>0</asrwt>
<pdfrwt beam="1">  1        2 0.20215594E-01 0.27497815E+03</pdfrwt>
<pdfrwt beam="2">  1       -2 0.22132127E-01 0.27497815E+03</pdfrwt>
<totfact> 0.48020686E+03</totfact>
</mgrwt>
</event>
<event>
 5    1  0.1100736E+001  0.2748015E+03  0.7818608E-02  0.1098563E+00
          2   -1    0    0  501    0  0.00000000000E+00  0.00000000000E+00  0.85179766241E+03  0.85179766241E+03  0.00000000000E+00 0. -1.
         -2   -1    0    0    0  501 -0.00000000000E+00 -0.00000000000E+00 -0.22163668575E+02  0.22163668575E+02  0.00000000000E+00 0. -1.
         35    2    1    2    0    0  0.00000000000E+00  0.00000000000E+00  0.82963399383E+03  0.87396133098E+03  0.27480146348E+03 0.  0.
         25    1    3    3    0    0 -0.24265993156E+02  0.57383119075E+02  0.33709041958E+03  0.36319638180E+03  0.12000000000E+03 0.  0.
         25    1    3    3    0    0  0.24265993156E+02 -0.57383119075E+02  0.49254357425E+03  0.51076494919E+03  0.12000000000E+03 0.  0.
<mgrwt>
<rscale>  0 0.27480146E+03</rscale>
<asrwt>0</asrwt>
<pdfrwt beam="1">  1        2 0.13104577E+00 0.27480146E+03</pdfrwt>
<pdfrwt beam="2">  1       -2 0.34097958E-02 0.27480146E+03</pdfrwt>
<totfact> 0.11393498E+04</totfact>
</mgrwt>
</event>
<event>
 5    1  0.1100736E+001  0.2743973E+03  0.7818608E-02  0.1098789E+00
         -4   -1    0    0    0  501 -0.00000000000E+00  0.00000000000E+00  0.20898081056E+02  0.20898081056E+02  0.00000000000E+00 0. -1.
          4   -1    0    0  501    0  0.00000000000E+00 -0.00000000000E+00 -0.90072695687E+03  0.90072695687E+03  0.00000000000E+00 0. -1.
         35    2    1    2    0    0  0.00000000000E+00  0.00000000000E+00 -0.87982887582E+03  0.92162503793E+03  0.27439726641E+03 0.  0.
         25    1    3    3    0    0 -0.29977933291E+02  0.21791857625E+02 -0.25442570819E+03  0.28373579706E+03  0.12000000000E+03 0.  0.
         25    1    3    3    0    0  0.29977933291E+02 -0.21791857625E+02 -0.62540316763E+03  0.63788924087E+03  0.12000000000E+03 0.  0.
<mgrwt>
<rscale>  0 0.27439727E+03</rscale>
<asrwt>0</asrwt>
<pdfrwt beam="1">  1        4 0.13857334E+00 0.27439727E+03</pdfrwt>
<pdfrwt beam="2">  1       -4 0.32150903E-02 0.27439727E+03</pdfrwt>
<totfact> 0.35052486E+02</totfact>
</mgrwt>
</event>
<event>
 5    1  0.1100736E+001  0.2773065E+03  0.7818608E-02  0.1097169E+00
         -2   -1    0    0    0  501 -0.00000000000E+00  0.00000000000E+00  0.30756429928E+02  0.30756429928E+02  0.00000000000E+00 0.  1.
          2   -1    0    0  501    0  0.00000000000E+00 -0.00000000000E+00 -0.62506372166E+03  0.62506372166E+03  0.00000000000E+00 0.  1.
         35    2    1    2    0    0  0.00000000000E+00  0.00000000000E+00 -0.59430729173E+03  0.65582015158E+03  0.27730653476E+03 0.  0.
         25    1    3    3    0    0 -0.33265431504E+02  0.43586472466E+02 -0.19630629986E+03  0.23652173871E+03  0.12000000000E+03 0.  0.
         25    1    3    3    0    0  0.33265431504E+02 -0.43586472466E+02 -0.39800099186E+03  0.41929841288E+03  0.12000000000E+03 0.  0.
<mgrwt>
<rscale>  0 0.27730653E+03</rscale>
<asrwt>0</asrwt>
<pdfrwt beam="1">  1        2 0.96163636E-01 0.27730653E+03</pdfrwt>
<pdfrwt beam="2">  1       -2 0.47317591E-02 0.27730653E+03</pdfrwt>
<totfact> 0.10197517E+04</totfact>
</mgrwt>
</event>
<event>
 5    1  0.1100736E+001  0.2743339E+03  0.7818608E-02  0.1098825E+00
         -3   -1    0    0    0  501 -0.00000000000E+00  0.00000000000E+00  0.13555918305E+03  0.13555918305E+03  0.00000000000E+00 0.  1.
          3   -1    0    0  501    0  0.00000000000E+00 -0.00000000000E+00 -0.13879377729E+03  0.13879377729E+03  0.00000000000E+00 0.  1.
         35    2    1    2    0    0  0.00000000000E+00  0.00000000000E+00 -0.32345942477E+01  0.27435296034E+03  0.27433389190E+03 0.  0.
         25    1    3    3    0    0  0.58383576223E+02 -0.30979922161E+02  0.51929861977E+01  0.13709618760E+03  0.12000000000E+03 0.  0.
         25    1    3    3    0    0 -0.58383576223E+02  0.30979922161E+02 -0.84275804455E+01  0.13725677274E+03  0.12000000000E+03 0.  0.
<mgrwt>
<rscale>  0 0.27433389E+03</rscale>
<asrwt>0</asrwt>
<pdfrwt beam="1">  1        3 0.21352889E-01 0.27433389E+03</pdfrwt>
<pdfrwt beam="2">  1       -3 0.20855259E-01 0.27433389E+03</pdfrwt>
<totfact> 0.10577355E+03</totfact>
</mgrwt>
</event>
<event>
 5    1  0.1100736E+001  0.2744474E+03  0.7818608E-02  0.1098761E+00
          2   -1    0    0  501    0  0.00000000000E+00  0.00000000000E+00  0.23100165544E+03  0.23100165544E+03  0.00000000000E+00 0. -1.
         -2   -1    0    0    0  501 -0.00000000000E+00 -0.00000000000E+00 -0.81516081258E+02  0.81516081258E+02  0.00000000000E+00 0. -1.
         35    2    1    2    0    0  0.00000000000E+00  0.00000000000E+00  0.14948557418E+03  0.31251773670E+03  0.27444744281E+03 0.  0.
         25    1    3    3    0    0 -0.59006323721E+01 -0.20860586779E+01  0.15020093337E+03  0.19235251360E+03  0.12000000000E+03 0.  0.
         25    1    3    3    0    0  0.59006323721E+01  0.20860586779E+01 -0.71535918875E+00  0.12016522310E+03  0.12000000000E+03 0.  0.
<mgrwt>
<rscale>  0 0.27444744E+03</rscale>
<asrwt>0</asrwt>
<pdfrwt beam="1">  1        2 0.35538716E-01 0.27444744E+03</pdfrwt>
<pdfrwt beam="2">  1       -2 0.12540936E-01 0.27444744E+03</pdfrwt>
<totfact> 0.66395629E+03</totfact>
</mgrwt>
</event>
<event>
 5    1  0.1100736E+001  0.2751859E+03  0.7818608E-02  0.1098348E+00
          1   -1    0    0  501    0  0.00000000000E+00  0.00000000000E+00  0.15096297713E+04  0.15096297713E+04  0.00000000000E+00 0.  1.
         -1   -1    0    0    0  501 -0.00000000000E+00 -0.00000000000E+00 -0.12540699373E+02  0.12540699373E+02  0.00000000000E+00 0.  1.
         35    2    1    2    0    0  0.00000000000E+00  0.00000000000E+00  0.14970890719E+04  0.15221704707E+04  0.27518585084E+03 0.  0.
         25    1    3    3    0    0 -0.93272516032E+01 -0.62954266593E+02  0.86993079560E+03  0.88047136605E+03  0.12000000000E+03 0.  0.
         25    1    3    3    0    0  0.93272516032E+01  0.62954266593E+02  0.62715827632E+03  0.64169910461E+03  0.12000000000E+03 0.  0.
<mgrwt>
<rscale>  0 0.27518585E+03</rscale>
<asrwt>0</asrwt>
<pdfrwt beam="1">  1        1 0.23225059E+00 0.27518585E+03</pdfrwt>
<pdfrwt beam="2">  1       -1 0.19293396E-02 0.27518585E+03</pdfrwt>
<totfact> 0.50969404E+03</totfact>
</mgrwt>
</event>
<event>
 5    1  0.1100736E+001  0.2747235E+03  0.7818608E-02  0.1098606E+00
          1   -1    0    0  501    0  0.00000000000E+00  0.00000000000E+00  0.51328214492E+03  0.51328214492E+03  0.00000000000E+00 0. -1.
         -1   -1    0    0    0  501 -0.00000000000E+00 -0.00000000000E+00 -0.36759996855E+02  0.36759996855E+02  0.00000000000E+00 0. -1.
         35    2    1    2    0    0  0.00000000000E+00  0.00000000000E+00  0.47652214807E+03  0.55004214178E+03  0.27472349760E+03 0.  0.
         25    1    3    3    0    0  0.42272473308E+02  0.44891460579E+02  0.28993267036E+03  0.31978611380E+03  0.12000000000E+03 0.  0.
         25    1    3    3    0    0 -0.42272473308E+02 -0.44891460579E+02  0.18658947770E+03  0.23025602798E+03  0.12000000000E+03 0.  0.
<mgrwt>
<rscale>  0 0.27472350E+03</rscale>
<asrwt>0</asrwt>
<pdfrwt beam="1">  1        1 0.78966479E-01 0.27472350E+03</pdfrwt>
<pdfrwt beam="2">  1       -1 0.56553845E-02 0.27472350E+03</pdfrwt>
<totfact> 0.63406130E+03</totfact>
</mgrwt>
</event>
<event>
 5    1  0.1100736E+001  0.2750422E+03  0.7818608E-02  0.1098428E+00
         -2   -1    0    0    0  501 -0.00000000000E+00  0.00000000000E+00  0.24777556060E+02  0.24777556060E+02  0.00000000000E+00 0. -1.
          2   -1    0    0  501    0  0.00000000000E+00 -0.00000000000E+00 -0.76327370490E+03  0.76327370490E+03  0.00000000000E+00 0. -1.
         35    2    1    2    0    0  0.00000000000E+00  0.00000000000E+00 -0.73849614884E+03  0.78805126096E+03  0.27504222957E+03 0.  0.
         25    1    3    3    0    0  0.47648924330E+02  0.21531251883E+02 -0.24843161000E+03  0.28080648077E+03  0.12000000000E+03 0.  0.
         25    1    3    3    0    0 -0.47648924330E+02 -0.21531251883E+02 -0.49006453884E+03  0.50724478019E+03  0.12000000000E+03 0.  0.
<mgrwt>
<rscale>  0 0.27504223E+03</rscale>
<asrwt>0</asrwt>
<pdfrwt beam="1">  1        2 0.11742673E+00 0.27504223E+03</pdfrwt>
<pdfrwt beam="2">  1       -2 0.38119314E-02 0.27504223E+03</pdfrwt>
<totfact> 0.11092094E+04</totfact>
</mgrwt>
</event>
<event>
 5    1  0.1100736E+001  0.2756743E+03  0.7818608E-02  0.1098075E+00
         -2   -1    0    0    0  501 -0.00000000000E+00  0.00000000000E+00  0.19858580015E+02  0.19858580015E+02  0.00000000000E+00 0.  1.
          2   -1    0    0  501    0  0.00000000000E+00 -0.00000000000E+00 -0.95671875127E+03  0.95671875127E+03  0.00000000000E+00 0.  1.
         35    2    1    2    0    0  0.00000000000E+00  0.00000000000E+00 -0.93686017125E+03  0.97657733128E+03  0.27567427064E+03 0.  0.
         25    1    3    3    0    0 -0.28314934898E+02  0.41588994883E+02 -0.62951457761E+03  0.64282189093E+03  0.12000000000E+03 0.  0.
         25    1    3    3    0    0  0.28314934898E+02 -0.41588994883E+02 -0.30734559364E+03  0.33375544035E+03  0.12000000000E+03 0.  0.
<mgrwt>
<rscale>  0 0.27567427E+03</rscale>
<asrwt>0</asrwt>
<pdfrwt beam="1">  1        2 0.14718748E+00 0.27567427E+03</pdfrwt>
<pdfrwt beam="2">  1       -2 0.30551666E-02 0.27567427E+03</pdfrwt>
<totfact> 0.11486834E+04</totfact>
</mgrwt>
</event>
<event>
 5    1  0.1100736E+001  0.2741459E+03  0.7818608E-02  0.1098930E+00
          4   -1    0    0  501    0  0.00000000000E+00  0.00000000000E+00  0.12331911003E+04  0.12331911003E+04  0.00000000000E+00 0. -1.
         -4   -1    0    0    0  501 -0.00000000000E+00 -0.00000000000E+00 -0.15236080064E+02  0.15236080064E+02  0.00000000000E+00 0. -1.
         35    2    1    2    0    0  0.00000000000E+00  0.00000000000E+00  0.12179550202E+04  0.12484271803E+04  0.27414593440E+03 0.  0.
         25    1    3    3    0    0 -0.27076109304E+02 -0.37115715277E+02  0.82634143295E+03  0.83627199871E+03  0.12000000000E+03 0.  0.
         25    1    3    3    0    0  0.27076109304E+02  0.37115715277E+02  0.39161358724E+03  0.41215518161E+03  0.12000000000E+03 0.  0.
<mgrwt>
<rscale>  0 0.27414593E+03</rscale>
<asrwt>0</asrwt>
<pdfrwt beam="1">  1        4 0.18972163E+00 0.27414593E+03</pdfrwt>
<pdfrwt beam="2">  1       -4 0.23440133E-02 0.27414593E+03</pdfrwt>
<totfact> 0.24882350E+02</totfact>
</mgrwt>
</event>
<event>
 5    1  0.1100736E+001  0.2751660E+03  0.7818608E-02  0.1098359E+00
          2   -1    0    0  501    0  0.00000000000E+00  0.00000000000E+00  0.20629125066E+04  0.20629125066E+04  0.00000000000E+00 0.  1.
         -2   -1    0    0    0  501 -0.00000000000E+00 -0.00000000000E+00 -0.91759022668E+01  0.91759022668E+01  0.00000000000E+00 0.  1.
         35    2    1    2    0    0  0.00000000000E+00  0.00000000000E+00  0.20537366043E+04  0.20720884088E+04  0.27516601204E+03 0.  0.
         25    1    3    3    0    0 -0.42752685329E+02  0.35043029541E+02  0.13159068543E+04  0.13225228374E+04  0.12000000000E+03 0.  0.
         25    1    3    3    0    0  0.42752685329E+02 -0.35043029541E+02  0.73782974995E+03  0.74956557147E+03  0.12000000000E+03 0.  0.
<mgrwt>
<rscale>  0 0.27516601E+03</rscale>
<asrwt>0</asrwt>
<pdfrwt beam="1">  1        2 0.31737079E+00 0.27516601E+03</pdfrwt>
<pdfrwt beam="2">  1       -2 0.14116789E-02 0.27516601E+03</pdfrwt>
<totfact> 0.88752504E+03</totfact>
</mgrwt>
</event>
<event>
 5    1  0.1100736E+001  0.2800053E+03  0.7818608E-02  0.1095686E+00
          2   -1    0    0  501    0  0.00000000000E+00  0.00000000000E+00  0.27072415267E+04  0.27072415267E+04  0.00000000000E+00 0. -1.
         -2   -1    0    0    0  501 -0.00000000000E+00 -0.00000000000E+00 -0.72401162229E+01  0.72401162229E+01  0.00000000000E+00 0. -1.
         35    2    1    2    0    0  0.00000000000E+00  0.00000000000E+00  0.27000014105E+04  0.27144816429E+04  0.28000530921E+03 0.  0.
         25    1    3    3    0    0  0.37695883200E+02 -0.11188241191E+02  0.19360576169E+04  0.19401714492E+04  0.12000000000E+03 0.  0.
         25    1    3    3    0    0 -0.37695883200E+02  0.11188241191E+02  0.76394379357E+03  0.77431019371E+03  0.12000000000E+03 0.  0.
<mgrwt>
<rscale>  0 0.28000531E+03</rscale>
<asrwt>0</asrwt>
<pdfrwt beam="1">  1        2 0.41649789E+00 0.28000531E+03</pdfrwt>
<pdfrwt beam="2">  1       -2 0.11138662E-02 0.28000531E+03</pdfrwt>
<totfact> 0.56049292E+03</totfact>
</mgrwt>
</event>
<event>
 5    1  0.1100736E+001  0.2748078E+03  0.7818608E-02  0.1098559E+00
          1   -1    0    0  501    0  0.00000000000E+00  0.00000000000E+00  0.78891029622E+03  0.78891029622E+03  0.00000000000E+00 0. -1.
         -1   -1    0    0    0  501 -0.00000000000E+00 -0.00000000000E+00 -0.23931530563E+02  0.23931530563E+02  0.00000000000E+00 0. -1.
         35    2    1    2    0    0  0.00000000000E+00  0.00000000000E+00  0.76497876566E+03  0.81284182679E+03  0.27480779367E+03 0.  0.
         25    1    3    3    0    0 -0.34196897562E+02  0.14036394302E+02  0.21744784882E+03  0.25109762071E+03  0.12000000000E+03 0.  0.
         25    1    3    3    0    0  0.34196897562E+02 -0.14036394302E+02  0.54753091684E+03  0.56174420608E+03  0.12000000000E+03 0.  0.
<mgrwt>
<rscale>  0 0.27480779E+03</rscale>
<asrwt>0</asrwt>
<pdfrwt beam="1">  1        1 0.12137079E+00 0.27480779E+03</pdfrwt>
<pdfrwt beam="2">  1       -1 0.36817745E-02 0.27480779E+03</pdfrwt>
<totfact> 0.65390541E+03</totfact>
</mgrwt>
</event>
<event>
 5    1  0.1100736E+001  0.2771830E+03  0.7818608E-02  0.1097238E+00
         -2   -1    0    0    0  501 -0.00000000000E+00  0.00000000000E+00  0.12826204270E+03  0.12826204270E+03  0.00000000000E+00 0.  1.
          2   -1    0    0  501    0  0.00000000000E+00 -0.00000000000E+00 -0.14975282902E+03  0.14975282902E+03  0.00000000000E+00 0.  1.
         35    2    1    2    0    0  0.00000000000E+00  0.00000000000E+00 -0.21490786316E+02  0.27801487172E+03  0.27718299912E+03 0.  0.
         25    1    3    3    0    0 -0.66336593105E+02  0.77003404592E+01  0.79590302818E+01  0.13756156800E+03  0.12000000000E+03 0.  0.
         25    1    3    3    0    0  0.66336593105E+02 -0.77003404592E+01 -0.29449816598E+02  0.14045330372E+03  0.12000000000E+03 0.  0.
<mgrwt>
<rscale>  0 0.27718300E+03</rscale>
<asrwt>0</asrwt>
<pdfrwt beam="1">  1        2 0.23038897E-01 0.27718300E+03</pdfrwt>
<pdfrwt beam="2">  1       -2 0.19732622E-01 0.27718300E+03</pdfrwt>
<totfact> 0.50448544E+03</totfact>
</mgrwt>
</event>
<event>
 5    1  0.1100736E+001  0.2747642E+03  0.7818608E-02  0.1098583E+00
          2   -1    0    0  501    0  0.00000000000E+00  0.00000000000E+00  0.14762724738E+04  0.14762724738E+04  0.00000000000E+00 0.  1.
         -2   -1    0    0    0  501 -0.00000000000E+00 -0.00000000000E+00 -0.12784796392E+02  0.12784796392E+02  0.00000000000E+00 0.  1.
         35    2    1    2    0    0  0.00000000000E+00  0.00000000000E+00  0.14634876774E+04  0.14890572701E+04  0.27476421162E+03 0.  0.
         25    1    3    3    0    0  0.40017603758E+02  0.40079318574E+02  0.92457723847E+03  0.93405076430E+03  0.12000000000E+03 0.  0.
         25    1    3    3    0    0 -0.40017603758E+02 -0.40079318574E+02  0.53891043889E+03  0.55500650585E+03  0.12000000000E+03 0.  0.
<mgrwt>
<rscale>  0 0.27476421E+03</rscale>
<asrwt>0</asrwt>
<pdfrwt beam="1">  1        2 0.22711871E+00 0.27476421E+03</pdfrwt>
<pdfrwt beam="2">  1       -2 0.19668929E-02 0.27476421E+03</pdfrwt>
<totfact> 0.11131681E+04</totfact>
</mgrwt>
</event>
<event>
 5    1  0.1100736E+001  0.2762470E+03  0.7818608E-02  0.1097757E+00
          1   -1    0    0  501    0  0.00000000000E+00  0.00000000000E+00  0.24654259762E+03  0.24654259762E+03  0.00000000000E+00 0. -1.
         -1   -1    0    0    0  501 -0.00000000000E+00 -0.00000000000E+00 -0.77382600114E+02  0.77382600114E+02  0.00000000000E+00 0. -1.
         35    2    1    2    0    0  0.00000000000E+00  0.00000000000E+00  0.16915999750E+03  0.32392519773E+03  0.27624704337E+03 0.  0.
         25    1    3    3    0    0  0.14026668070E+02 -0.57014185944E+02  0.43443182196E+02  0.14048015837E+03  0.12000000000E+03 0.  0.
         25    1    3    3    0    0 -0.14026668070E+02  0.57014185944E+02  0.12571681531E+03  0.18344503936E+03  0.12000000000E+03 0.  0.
<mgrwt>
<rscale>  0 0.27624704E+03</rscale>
<asrwt>0</asrwt>
<pdfrwt beam="1">  1        1 0.37929630E-01 0.27624704E+03</pdfrwt>
<pdfrwt beam="2">  1       -1 0.11905015E-01 0.27624704E+03</pdfrwt>
<totfact> 0.51799076E+03</totfact>
</mgrwt>
</event>
<event>
 5    1  0.1100736E+001  0.2789367E+03  0.7818608E-02  0.1096271E+00
          2   -1    0    0  501    0  0.00000000000E+00  0.00000000000E+00  0.12194468613E+04  0.12194468613E+04  0.00000000000E+00 0. -1.
         -2   -1    0    0    0  501 -0.00000000000E+00 -0.00000000000E+00 -0.15951020747E+02  0.15951020747E+02  0.00000000000E+00 0. -1.
         35    2    1    2    0    0  0.00000000000E+00  0.00000000000E+00  0.12034958406E+04  0.12353978821E+04  0.27893671099E+03 0.  0.
         25    1    3    3    0    0  0.45126719179E+01  0.45990126048E+02  0.36258578309E+03  0.38471275778E+03  0.12000000000E+03 0.  0.
         25    1    3    3    0    0 -0.45126719179E+01 -0.45990126048E+02  0.84091005748E+03  0.85068512428E+03  0.12000000000E+03 0.  0.
<mgrwt>
<rscale>  0 0.27893671E+03</rscale>
<asrwt>0</asrwt>
<pdfrwt beam="1">  1        2 0.18760714E+00 0.27893671E+03</pdfrwt>
<pdfrwt beam="2">  1       -2 0.24540041E-02 0.27893671E+03</pdfrwt>
<totfact> 0.11118560E+04</totfact>
</mgrwt>
</event>
<event>
 5    1  0.1100736E+001  0.2747934E+03  0.7818608E-02  0.1098567E+00
          1   -1    0    0  501    0  0.00000000000E+00  0.00000000000E+00  0.27242923786E+03  0.27242923786E+03  0.00000000000E+00 0.  1.
         -1   -1    0    0    0  501 -0.00000000000E+00 -0.00000000000E+00 -0.69294507515E+02  0.69294507515E+02  0.00000000000E+00 0.  1.
         35    2    1    2    0    0  0.00000000000E+00  0.00000000000E+00  0.20313473034E+03  0.34172374537E+03  0.27479337597E+03 0.  0.
         25    1    3    3    0    0 -0.40469979901E+02 -0.21045530955E+02  0.16245280443E+03  0.20705469643E+03  0.12000000000E+03 0.  0.
         25    1    3    3    0    0  0.40469979901E+02  0.21045530955E+02  0.40681925907E+02  0.13466904894E+03  0.12000000000E+03 0.  0.
<mgrwt>
<rscale>  0 0.27479338E+03</rscale>
<asrwt>0</asrwt>
<pdfrwt beam="1">  1        1 0.41912190E-01 0.27479338E+03</pdfrwt>
<pdfrwt beam="2">  1       -1 0.10660694E-01 0.27479338E+03</pdfrwt>
<totfact> 0.54255378E+03</totfact>
</mgrwt>
</event>
<event>
 5    1  0.1100736E+001  0.2765631E+03  0.7818608E-02  0.1097581E+00
         -3   -1    0    0    0  501 -0.00000000000E+00  0.00000000000E+00  0.36114385531E+02  0.36114385531E+02  0.00000000000E+00 0. -1.
          3   -1    0    0  501    0  0.00000000000E+00 -0.00000000000E+00 -0.52947845551E+03  0.52947845551E+03  0.00000000000E+00 0. -1.
         35    2    1    2    0    0  0.00000000000E+00  0.00000000000E+00 -0.49336406998E+03  0.56559284104E+03  0.27656311448E+03 0.  0.
         25    1    3    3    0    0  0.12709540968E+02  0.38841170415E+02 -0.35965509216E+03  0.38134230590E+03  0.12000000000E+03 0.  0.
         25    1    3    3    0    0 -0.12709540968E+02 -0.38841170415E+02 -0.13370897782E+03  0.18425053514E+03  0.12000000000E+03 0.  0.
<mgrwt>
<rscale>  0 0.27656311E+03</rscale>
<asrwt>0</asrwt>
<pdfrwt beam="1">  1        3 0.81458227E-01 0.27656311E+03</pdfrwt>
<pdfrwt beam="2">  1       -3 0.55560591E-02 0.27656311E+03</pdfrwt>
<totfact> 0.70229742E+02</totfact>
</mgrwt>
</event>
<event>
 5    1  0.1100736E+001  0.2746502E+03  0.7818608E-02  0.1098647E+00
         -2   -1    0    0    0  501 -0.00000000000E+00  0.00000000000E+00  0.17267717301E+02  0.17267717301E+02  0.00000000000E+00 0.  1.
          2   -1    0    0  501    0  0.00000000000E+00 -0.00000000000E+00 -0.10921066600E+04  0.10921066600E+04  0.00000000000E+00 0.  1.
         35    2    1    2    0    0  0.00000000000E+00  0.00000000000E+00 -0.10748389427E+04  0.11093743773E+04  0.27465024352E+03 0.  0.
         25    1    3    3    0    0 -0.55268494936E+02  0.37440672162E+02 -0.54280635494E+03  0.55990637559E+03  0.12000000000E+03 0.  0.
         25    1    3    3    0    0  0.55268494936E+02 -0.37440672162E+02 -0.53203258775E+03  0.54946800170E+03  0.12000000000E+03 0.  0.
<mgrwt>
<rscale>  0 0.27465024E+03</rscale>
<asrwt>0</asrwt>
<pdfrwt beam="1">  1        2 0.16801640E+00 0.27465024E+03</pdfrwt>
<pdfrwt beam="2">  1       -2 0.26565720E-02 0.27465024E+03</pdfrwt>
<totfact> 0.11702115E+04</totfact>
</mgrwt>
</event>
<event>
 5    1  0.1100736E+001  0.2743555E+03  0.7818608E-02  0.1098812E+00
         -2   -1    0    0    0  501 -0.00000000000E+00  0.00000000000E+00  0.31262934634E+02  0.31262934634E+02  0.00000000000E+00 0.  1.
          2   -1    0    0  501    0  0.00000000000E+00 -0.00000000000E+00 -0.60191833967E+03  0.60191833967E+03  0.00000000000E+00 0.  1.
         35    2    1    2    0    0  0.00000000000E+00  0.00000000000E+00 -0.57065540503E+03  0.63318127430E+03  0.27435548989E+03 0.  0.
         25    1    3    3    0    0  0.48919937998E+02  0.81763483258E+01 -0.38744275722E+03  0.40862195625E+03  0.12000000000E+03 0.  0.
         25    1    3    3    0    0 -0.48919937998E+02 -0.81763483258E+01 -0.18321264781E+03  0.22455931805E+03  0.12000000000E+03 0.  0.
<mgrwt>
<rscale>  0 0.27435549E+03</rscale>
<asrwt>0</asrwt>
<pdfrwt beam="1">  1        2 0.92602825E-01 0.27435549E+03</pdfrwt>
<pdfrwt beam="2">  1       -2 0.48096821E-02 0.27435549E+03</pdfrwt>
<totfact> 0.10392196E+04</totfact>
</mgrwt>
</event>
<event>
 5    1  0.1100736E+001  0.2735305E+03  0.7818608E-02  0.1099276E+00
         -2   -1    0    0    0  501 -0.00000000000E+00  0.00000000000E+00  0.10637433695E+02  0.10637433695E+02  0.00000000000E+00 0.  1.
          2   -1    0    0  501    0  0.00000000000E+00 -0.00000000000E+00 -0.17583875485E+04  0.17583875485E+04  0.00000000000E+00 0.  1.
         35    2    1    2    0    0  0.00000000000E+00  0.00000000000E+00 -0.17477501148E+04  0.17690249822E+04  0.27353048062E+03 0.  0.
         25    1    3    3    0    0  0.28151434074E+02  0.59031297349E+02 -0.83993909831E+03  0.85098465684E+03  0.12000000000E+03 0.  0.
         25    1    3    3    0    0 -0.28151434074E+02 -0.59031297349E+02 -0.90781101649E+03  0.91804032535E+03  0.12000000000E+03 0.  0.
<mgrwt>
<rscale>  0 0.27353048E+03</rscale>
<asrwt>0</asrwt>
<pdfrwt beam="1">  1        2 0.27052105E+00 0.27353048E+03</pdfrwt>
<pdfrwt beam="2">  1       -2 0.16365290E-02 0.27353048E+03</pdfrwt>
<totfact> 0.10333630E+04</totfact>
</mgrwt>
</event>
<event>
 5    1  0.1100736E+001  0.2754508E+03  0.7818608E-02  0.1098200E+00
         -2   -1    0    0    0  501 -0.00000000000E+00  0.00000000000E+00  0.12729343250E+02  0.12729343250E+02  0.00000000000E+00 0.  1.
          2   -1    0    0  501    0  0.00000000000E+00 -0.00000000000E+00 -0.14901225467E+04  0.14901225467E+04  0.00000000000E+00 0.  1.
         35    2    1    2    0    0  0.00000000000E+00  0.00000000000E+00 -0.14773932034E+04  0.15028518899E+04  0.27545076788E+03 0.  0.
         25    1    3    3    0    0 -0.48207588338E+02  0.55838517706E-01 -0.99716847857E+03  0.10055192436E+04  0.12000000000E+03 0.  0.
         25    1    3    3    0    0  0.48207588338E+02 -0.55838517706E-01 -0.48022472484E+03  0.49733264627E+03  0.12000000000E+03 0.  0.
<mgrwt>
<rscale>  0 0.27545077E+03</rscale>
<asrwt>0</asrwt>
<pdfrwt beam="1">  1        2 0.22924959E+00 0.27545077E+03</pdfrwt>
<pdfrwt beam="2">  1       -2 0.19583608E-02 0.27545077E+03</pdfrwt>
<totfact> 0.11013624E+04</totfact>
</mgrwt>
</event>
<event>
 5    1  0.1100736E+001  0.2749909E+03  0.7818608E-02  0.1098457E+00
          2   -1    0    0  501    0  0.00000000000E+00  0.00000000000E+00  0.66857011310E+03  0.66857011310E+03  0.00000000000E+00 0. -1.
         -2   -1    0    0    0  501 -0.00000000000E+00 -0.00000000000E+00 -0.28276763390E+02  0.28276763390E+02  0.00000000000E+00 0. -1.
         35    2    1    2    0    0  0.00000000000E+00  0.00000000000E+00  0.64029334971E+03  0.69684687649E+03  0.27499090093E+03 0.  0.
         25    1    3    3    0    0  0.24636775415E+02 -0.51394402526E+02  0.23031591092E+03  0.26588300836E+03  0.12000000000E+03 0.  0.
         25    1    3    3    0    0 -0.24636775415E+02  0.51394402526E+02  0.40997743880E+03  0.43096386813E+03  0.12000000000E+03 0.  0.
<mgrwt>
<rscale>  0 0.27499090E+03</rscale>
<asrwt>0</asrwt>
<pdfrwt beam="1">  1        2 0.10285693E+00 0.27499090E+03</pdfrwt>
<pdfrwt beam="2">  1       -2 0.43502718E-02 0.27499090E+03</pdfrwt>
<totfact> 0.10689510E+04</totfact>
</mgrwt>
</event>
<event>
 5    1  0.1100736E+001  0.2734198E+03  0.7818608E-02  0.1099338E+00
         -2   -1    0    0    0  501 -0.00000000000E+00  0.00000000000E+00  0.25223869887E+03  0.25223869887E+03  0.00000000000E+00 0.  1.
          2   -1    0    0  501    0  0.00000000000E+00 -0.00000000000E+00 -0.74094888380E+02  0.74094888380E+02  0.00000000000E+00 0.  1.
         35    2    1    2    0    0  0.00000000000E+00  0.00000000000E+00  0.17814381049E+03  0.32633358725E+03  0.27341981083E+03 0.  0.
         25    1    3    3    0    0 -0.35160758434E+02  0.33515756941E+02  0.36638030529E+02  0.13454341373E+03  0.12000000000E+03 0.  0.
         25    1    3    3    0    0  0.35160758434E+02 -0.33515756941E+02  0.14150577996E+03  0.19179017352E+03  0.12000000000E+03 0.  0.
<mgrwt>
<rscale>  0 0.27341981E+03</rscale>
<asrwt>0</asrwt>
<pdfrwt beam="1">  1        2 0.11399214E-01 0.27341981E+03</pdfrwt>
<pdfrwt beam="2">  1       -2 0.38805953E-01 0.27341981E+03</pdfrwt>
<totfact> 0.34208624E+03</totfact>
</mgrwt>
</event>
<event>
 5    1  0.1100736E+001  0.2755663E+03  0.7818608E-02  0.1098135E+00
          2   -1    0    0  501    0  0.00000000000E+00  0.00000000000E+00  0.64722561374E+03  0.64722561374E+03  0.00000000000E+00 0. -1.
         -2   -1    0    0    0  501 -0.00000000000E+00 -0.00000000000E+00 -0.29331656381E+02  0.29331656381E+02  0.00000000000E+00 0. -1.
         35    2    1    2    0    0  0.00000000000E+00  0.00000000000E+00  0.61789395736E+03  0.67655727012E+03  0.27556632090E+03 0.  0.
         25    1    3    3    0    0  0.11199587536E+02  0.29763501412E+02  0.45570066236E+03  0.47230751683E+03  0.12000000000E+03 0.  0.
         25    1    3    3    0    0 -0.11199587536E+02 -0.29763501412E+02  0.16219329500E+03  0.20424975329E+03  0.12000000000E+03 0.  0.
<mgrwt>
<rscale>  0 0.27556632E+03</rscale>
<asrwt>0</asrwt>
<pdfrwt beam="1">  1        2 0.99573160E-01 0.27556632E+03</pdfrwt>
<pdfrwt beam="2">  1       -2 0.45125630E-02 0.27556632E+03</pdfrwt>
<totfact> 0.10513178E+04</totfact>
</mgrwt>
</event>
<event>
 5    1  0.1100736E+001  0.2747201E+03  0.7818608E-02  0.1098608E+00
          2   -1    0    0  501    0  0.00000000000E+00  0.00000000000E+00  0.21617005554E+02  0.21617005554E+02  0.00000000000E+00 0. -1.
         -2   -1    0    0    0  501 -0.00000000000E+00 -0.00000000000E+00 -0.87282109552E+03  0.87282109552E+03  0.00000000000E+00 0. -1.
         35    2    1    2    0    0  0.00000000000E+00  0.00000000000E+00 -0.85120408996E+03  0.89443810107E+03  0.27472006457E+03 0.  0.
         25    1    3    3    0    0  0.53402020662E+02  0.67603470400E+01 -0.29658375630E+03  0.32443705492E+03  0.12000000000E+03 0.  0.
         25    1    3    3    0    0 -0.53402020662E+02 -0.67603470400E+01 -0.55462033367E+03  0.57000104616E+03  0.12000000000E+03 0.  0.
<mgrwt>
<rscale>  0 0.27472006E+03</rscale>
<asrwt>0</asrwt>
<pdfrwt beam="1">  1        2 0.33256940E-02 0.27472006E+03</pdfrwt>
<pdfrwt beam="2">  1       -2 0.13428013E+00 0.27472006E+03</pdfrwt>
<totfact> 0.11447890E+03</totfact>
</mgrwt>
</event>
<event>
 5    1  0.1100736E+001  0.2749365E+03  0.7818608E-02  0.1098487E+00
          2   -1    0    0  501    0  0.00000000000E+00  0.00000000000E+00  0.11456840629E+03  0.11456840629E+03  0.00000000000E+00 0.  1.
         -2   -1    0    0    0  501 -0.00000000000E+00 -0.00000000000E+00 -0.16494534206E+03  0.16494534206E+03  0.00000000000E+00 0.  1.
         35    2    1    2    0    0  0.00000000000E+00  0.00000000000E+00 -0.50376935771E+02  0.27951374834E+03  0.27493653787E+03 0.  0.
         25    1    3    3    0    0 -0.45300723436E+02 -0.25222206963E+02 -0.68431403390E+02  0.14755057519E+03  0.12000000000E+03 0.  0.
         25    1    3    3    0    0  0.45300723436E+02  0.25222206963E+02  0.18054467619E+02  0.13196317315E+03  0.12000000000E+03 0.  0.
<mgrwt>
<rscale>  0 0.27493654E+03</rscale>
<asrwt>0</asrwt>
<pdfrwt beam="1">  1        2 0.17625909E-01 0.27493654E+03</pdfrwt>
<pdfrwt beam="2">  1       -2 0.25376206E-01 0.27493654E+03</pdfrwt>
<totfact> 0.44265967E+03</totfact>
</mgrwt>
</event>
<event>
 5    1  0.1100736E+001  0.2744141E+03  0.7818608E-02  0.1098780E+00
         -1   -1    0    0    0  501 -0.00000000000E+00  0.00000000000E+00  0.83596392437E+02  0.83596392437E+02  0.00000000000E+00 0.  1.
          1   -1    0    0  501    0  0.00000000000E+00 -0.00000000000E+00 -0.22519845698E+03  0.22519845698E+03  0.00000000000E+00 0.  1.
         35    2    1    2    0    0  0.00000000000E+00  0.00000000000E+00 -0.14160206454E+03  0.30879484941E+03  0.27441412927E+03 0.  0.
         25    1    3    3    0    0 -0.65586157653E+02  0.11124504143E+02 -0.71580587581E+02  0.15475490036E+03  0.12000000000E+03 0.  0.
         25    1    3    3    0    0  0.65586157653E+02 -0.11124504143E+02 -0.70021476960E+02  0.15403994905E+03  0.12000000000E+03 0.  0.
<mgrwt>
<rscale>  0 0.27441413E+03</rscale>
<asrwt>0</asrwt>
<pdfrwt beam="1">  1        1 0.34645916E-01 0.27441413E+03</pdfrwt>
<pdfrwt beam="2">  1       -1 0.12860984E-01 0.27441413E+03</pdfrwt>
<totfact> 0.51419171E+03</totfact>
</mgrwt>
</event>
<event>
 5    1  0.1100736E+001  0.2753106E+03  0.7818608E-02  0.1098278E+00
          2   -1    0    0  501    0  0.00000000000E+00  0.00000000000E+00  0.67484787832E+03  0.67484787832E+03  0.00000000000E+00 0. -1.
         -2   -1    0    0    0  501 -0.00000000000E+00 -0.00000000000E+00 -0.28078900536E+02  0.28078900536E+02  0.00000000000E+00 0. -1.
         35    2    1    2    0    0  0.00000000000E+00  0.00000000000E+00  0.64676897778E+03  0.70292677886E+03  0.27531063512E+03 0.  0.
         25    1    3    3    0    0 -0.73105727787E+01  0.62455680387E+02  0.26111382160E+03  0.29416761262E+03  0.12000000000E+03 0.  0.
         25    1    3    3    0    0  0.73105727787E+01 -0.62455680387E+02  0.38565515619E+03  0.40875916623E+03  0.12000000000E+03 0.  0.
<mgrwt>
<rscale>  0 0.27531064E+03</rscale>
<asrwt>0</asrwt>
<pdfrwt beam="1">  1        2 0.10382274E+00 0.27531064E+03</pdfrwt>
<pdfrwt beam="2">  1       -2 0.43198314E-02 0.27531064E+03</pdfrwt>
<totfact> 0.10683587E+04</totfact>
</mgrwt>
</event>
<event>
 5    1  0.1100736E+001  0.2747166E+03  0.7818608E-02  0.1098610E+00
          1   -1    0    0  501    0  0.00000000000E+00  0.00000000000E+00  0.33438711036E+02  0.33438711036E+02  0.00000000000E+00 0.  1.
         -1   -1    0    0    0  501 -0.00000000000E+00 -0.00000000000E+00 -0.56423545433E+03  0.56423545433E+03  0.00000000000E+00 0.  1.
         35    2    1    2    0    0  0.00000000000E+00  0.00000000000E+00 -0.53079674329E+03  0.59767416536E+03  0.27471662719E+03 0.  0.
         25    1    3    3    0    0  0.64569209350E+02 -0.68265301539E+00 -0.22786323905E+03  0.26550198591E+03  0.12000000000E+03 0.  0.
         25    1    3    3    0    0 -0.64569209350E+02  0.68265301539E+00 -0.30293350424E+03  0.33217217945E+03  0.12000000000E+03 0.  0.
<mgrwt>
<rscale>  0 0.27471663E+03</rscale>
<asrwt>0</asrwt>
<pdfrwt beam="1">  1        1 0.51444174E-02 0.27471663E+03</pdfrwt>
<pdfrwt beam="2">  1       -1 0.86805449E-01 0.27471663E+03</pdfrwt>
<totfact> 0.21932833E+03</totfact>
</mgrwt>
</event>
<event>
 5    1  0.1100736E+001  0.2752033E+03  0.7818608E-02  0.1098338E+00
          1   -1    0    0  501    0  0.00000000000E+00  0.00000000000E+00  0.12206875444E+03  0.12206875444E+03  0.00000000000E+00 0. -1.
         -1   -1    0    0    0  501 -0.00000000000E+00 -0.00000000000E+00 -0.15511102695E+03  0.15511102695E+03  0.00000000000E+00 0. -1.
         35    2    1    2    0    0  0.00000000000E+00  0.00000000000E+00 -0.33042272506E+02  0.27717978139E+03  0.27520326931E+03 0.  0.
         25    1    3    3    0    0 -0.17182432436E+02  0.51558191265E+02 -0.56565036030E+02  0.14336347642E+03  0.12000000000E+03 0.  0.
         25    1    3    3    0    0  0.17182432436E+02 -0.51558191265E+02  0.23522763524E+02  0.13381630497E+03  0.12000000000E+03 0.  0.
<mgrwt>
<rscale>  0 0.27520327E+03</rscale>
<asrwt>0</asrwt>
<pdfrwt beam="1">  1        1 0.18779809E-01 0.27520327E+03</pdfrwt>
<pdfrwt beam="2">  1       -1 0.23863235E-01 0.27520327E+03</pdfrwt>
<totfact> 0.41478321E+03</totfact>
</mgrwt>
</event>
<event>
 5    1  0.1100736E+001  0.2756709E+03  0.7818608E-02  0.1098077E+00
          1   -1    0    0  501    0  0.00000000000E+00  0.00000000000E+00  0.34368143557E+02  0.34368143557E+02  0.00000000000E+00 0. -1.
         -1   -1    0    0    0  501 -0.00000000000E+00 -0.00000000000E+00 -0.55279713462E+03  0.55279713462E+03  0.00000000000E+00 0. -1.
         35    2    1    2    0    0  0.00000000000E+00  0.00000000000E+00 -0.51842899106E+03  0.58716527817E+03  0.27567090002E+03 0.  0.
         25    1    3    3    0    0 -0.36120635600E+02  0.11074700847E+02 -0.13926856968E+03  0.18767813889E+03  0.12000000000E+03 0.  0.
         25    1    3    3    0    0  0.36120635600E+02 -0.11074700847E+02 -0.37916042138E+03  0.39948713928E+03  0.12000000000E+03 0.  0.
<mgrwt>
<rscale>  0 0.27567090E+03</rscale>
<asrwt>0</asrwt>
<pdfrwt beam="1">  1        1 0.52874071E-02 0.27567090E+03</pdfrwt>
<pdfrwt beam="2">  1       -1 0.85045706E-01 0.27567090E+03</pdfrwt>
<totfact> 0.22054259E+03</totfact>
</mgrwt>
</event>
<event>
 5    1  0.1100736E+001  0.2747782E+03  0.7818608E-02  0.1098576E+00
         -2   -1    0    0    0  501 -0.00000000000E+00  0.00000000000E+00  0.24378857691E+02  0.24378857691E+02  0.00000000000E+00 0. -1.
          2   -1    0    0  501    0  0.00000000000E+00 -0.00000000000E+00 -0.77426804268E+03  0.77426804268E+03  0.00000000000E+00 0. -1.
         35    2    1    2    0    0  0.00000000000E+00  0.00000000000E+00 -0.74988918499E+03  0.79864690037E+03  0.27477824097E+03 0.  0.
         25    1    3    3    0    0  0.19255581867E+02 -0.10659848772E+02 -0.55857007731E+03  0.57173852509E+03  0.12000000000E+03 0.  0.
         25    1    3    3    0    0 -0.19255581867E+02  0.10659848772E+02 -0.19131910768E+03  0.22690837528E+03  0.12000000000E+03 0.  0.
<mgrwt>
<rscale>  0 0.27477824E+03</rscale>
<asrwt>0</asrwt>
<pdfrwt beam="1">  1        2 0.11911816E+00 0.27477824E+03</pdfrwt>
<pdfrwt beam="2">  1       -2 0.37505936E-02 0.27477824E+03</pdfrwt>
<totfact> 0.11163132E+04</totfact>
</mgrwt>
</event>
<event>
 5    1  0.1100736E+001  0.2738278E+03  0.7818608E-02  0.1099109E+00
          2   -1    0    0  501    0  0.00000000000E+00  0.00000000000E+00  0.79293272743E+01  0.79293272743E+01  0.00000000000E+00 0. -1.
         -2   -1    0    0    0  501 -0.00000000000E+00 -0.00000000000E+00 -0.23640609148E+04  0.23640609148E+04  0.00000000000E+00 0. -1.
         35    2    1    2    0    0  0.00000000000E+00  0.00000000000E+00 -0.23561315875E+04  0.23719902420E+04  0.27382777573E+03 0.  0.
         25    1    3    3    0    0  0.40954224516E+02  0.10619112971E+01 -0.16254183068E+04  0.16303567242E+04  0.12000000000E+03 0.  0.
         25    1    3    3    0    0 -0.40954224516E+02 -0.10619112971E+01 -0.73071328073E+03  0.74163351785E+03  0.12000000000E+03 0.  0.
<mgrwt>
<rscale>  0 0.27382778E+03</rscale>
<asrwt>0</asrwt>
<pdfrwt beam="1">  1        2 0.12198968E-02 0.27382778E+03</pdfrwt>
<pdfrwt beam="2">  1       -2 0.36370158E+00 0.27382778E+03</pdfrwt>
<totfact> 0.16621520E+02</totfact>
</mgrwt>
</event>
<event>
 5    1  0.1100736E+001  0.2750943E+03  0.7818608E-02  0.1098399E+00
         -3   -1    0    0    0  501 -0.00000000000E+00  0.00000000000E+00  0.16727661951E+03  0.16727661951E+03  0.00000000000E+00 0.  1.
          3   -1    0    0  501    0  0.00000000000E+00 -0.00000000000E+00 -0.11310141365E+03  0.11310141365E+03  0.00000000000E+00 0.  1.
         35    2    1    2    0    0  0.00000000000E+00  0.00000000000E+00  0.54175205864E+02  0.28037803315E+03  0.27509432663E+03 0.  0.
         25    1    3    3    0    0  0.30926683571E+02 -0.55160250718E+02  0.50331534365E+02  0.14468025562E+03  0.12000000000E+03 0.  0.
         25    1    3    3    0    0 -0.30926683571E+02  0.55160250718E+02  0.38436714983E+01  0.13569777753E+03  0.12000000000E+03 0.  0.
<mgrwt>
<rscale>  0 0.27509433E+03</rscale>
<asrwt>0</asrwt>
<pdfrwt beam="1">  1        3 0.17400218E-01 0.27509433E+03</pdfrwt>
<pdfrwt beam="2">  1       -3 0.25734864E-01 0.27509433E+03</pdfrwt>
<totfact> 0.10395809E+03</totfact>
</mgrwt>
</event>
<event>
 5    1  0.1100736E+001  0.2748661E+03  0.7818608E-02  0.1098526E+00
          1   -1    0    0  501    0  0.00000000000E+00  0.00000000000E+00  0.70597065759E+03  0.70597065759E+03  0.00000000000E+00 0.  1.
         -1   -1    0    0    0  501 -0.00000000000E+00 -0.00000000000E+00 -0.26754422512E+02  0.26754422512E+02  0.00000000000E+00 0.  1.
         35    2    1    2    0    0  0.00000000000E+00  0.00000000000E+00  0.67921623507E+03  0.73272508010E+03  0.27486605650E+03 0.  0.
         25    1    3    3    0    0 -0.64725640889E+02  0.16438766184E+02  0.35376314974E+03  0.37948387020E+03  0.12000000000E+03 0.  0.
         25    1    3    3    0    0  0.64725640889E+02 -0.16438766184E+02  0.32545308533E+03  0.35324120990E+03  0.12000000000E+03 0.  0.
<mgrwt>
<rscale>  0 0.27486606E+03</rscale>
<asrwt>0</asrwt>
<pdfrwt beam="1">  1        1 0.10861086E+00 0.27486606E+03</pdfrwt>
<pdfrwt beam="2">  1       -1 0.41160655E-02 0.27486606E+03</pdfrwt>
<totfact> 0.65421074E+03</totfact>
</mgrwt>
</event>
<event>
 5    1  0.1100736E+001  0.2756224E+03  0.7818608E-02  0.1098104E+00
         -1   -1    0    0    0  501 -0.00000000000E+00  0.00000000000E+00  0.62491384953E+03  0.62491384953E+03  0.00000000000E+00 0.  1.
          1   -1    0    0  501    0  0.00000000000E+00 -0.00000000000E+00 -0.30391264022E+02  0.30391264022E+02  0.00000000000E+00 0.  1.
         35    2    1    2    0    0  0.00000000000E+00  0.00000000000E+00  0.59452258551E+03  0.65530511355E+03  0.27562236333E+03 0.  0.
         25    1    3    3    0    0 -0.60310016791E+02 -0.30113290373E+02  0.28082121143E+03  0.31273736773E+03  0.12000000000E+03 0.  0.
         25    1    3    3    0    0  0.60310016791E+02  0.30113290373E+02  0.31370137407E+03  0.34256774582E+03  0.12000000000E+03 0.  0.
<mgrwt>
<rscale>  0 0.27562236E+03</rscale>
<asrwt>0</asrwt>
<pdfrwt beam="1">  1        1 0.46755796E-02 0.27562236E+03</pdfrwt>
<pdfrwt beam="2">  1       -1 0.96140583E-01 0.27562236E+03</pdfrwt>
<totfact> 0.20084571E+03</totfact>
</mgrwt>
</event>
<event>
 5    1  0.1100736E+001  0.2747666E+03  0.7818608E-02  0.1098582E+00
          2   -1    0    0  501    0  0.00000000000E+00  0.00000000000E+00  0.46981891675E+02  0.46981891675E+02  0.00000000000E+00 0. -1.
         -2   -1    0    0    0  501 -0.00000000000E+00 -0.00000000000E+00 -0.40173278294E+03  0.40173278294E+03  0.00000000000E+00 0. -1.
         35    2    1    2    0    0  0.00000000000E+00  0.00000000000E+00 -0.35475089126E+03  0.44871467461E+03  0.27476656340E+03 0.  0.
         25    1    3    3    0    0 -0.17206527307E+01 -0.66866931123E+02 -0.17715053834E+03  0.22417952707E+03  0.12000000000E+03 0.  0.
         25    1    3    3    0    0  0.17206527307E+01  0.66866931123E+02 -0.17760035293E+03  0.22453514755E+03  0.12000000000E+03 0.  0.
<mgrwt>
<rscale>  0 0.27476656E+03</rscale>
<asrwt>0</asrwt>
<pdfrwt beam="1">  1        2 0.72279830E-02 0.27476656E+03</pdfrwt>
<pdfrwt beam="2">  1       -2 0.61805046E-01 0.27476656E+03</pdfrwt>
<totfact> 0.24019522E+03</totfact>
</mgrwt>
</event>
<event>
 5    1  0.1100736E+001  0.2744934E+03  0.7818608E-02  0.1098735E+00
          1   -1    0    0  501    0  0.00000000000E+00  0.00000000000E+00  0.14403297880E+03  0.14403297880E+03  0.00000000000E+00 0.  1.
         -1   -1    0    0    0  501 -0.00000000000E+00 -0.00000000000E+00 -0.13078017913E+03  0.13078017913E+03  0.00000000000E+00 0.  1.
         35    2    1    2    0    0  0.00000000000E+00  0.00000000000E+00  0.13252799667E+02  0.27481315793E+03  0.27449341535E+03 0.  0.
         25    1    3    3    0    0  0.14880819835E+02 -0.10354778579E+02  0.70794729055E+02  0.14050108149E+03  0.12000000000E+03 0.  0.
         25    1    3    3    0    0 -0.14880819835E+02  0.10354778579E+02 -0.57541929388E+02  0.13431207643E+03  0.12000000000E+03 0.  0.
<mgrwt>
<rscale>  0 0.27449342E+03</rscale>
<asrwt>0</asrwt>
<pdfrwt beam="1">  1        1 0.22158920E-01 0.27449342E+03</pdfrwt>
<pdfrwt beam="2">  1       -1 0.20120028E-01 0.27449342E+03</pdfrwt>
<totfact> 0.44345943E+03</totfact>
</mgrwt>
</event>
<event>
 5    1  0.1100736E+001  0.2743591E+03  0.7818608E-02  0.1098810E+00
          2   -1    0    0  501    0  0.00000000000E+00  0.00000000000E+00  0.16240097237E+03  0.16240097237E+03  0.00000000000E+00 0. -1.
         -2   -1    0    0    0  501 -0.00000000000E+00 -0.00000000000E+00 -0.11587510966E+03  0.11587510966E+03  0.00000000000E+00 0. -1.
         35    2    1    2    0    0  0.00000000000E+00  0.00000000000E+00  0.46525862713E+02  0.27827608203E+03  0.27435911125E+03 0.  0.
         25    1    3    3    0    0  0.60111266383E+02  0.26778633036E+02  0.13760562405E+02  0.13754930974E+03  0.12000000000E+03 0.  0.
         25    1    3    3    0    0 -0.60111266383E+02 -0.26778633036E+02  0.32765300308E+02  0.14072677228E+03  0.12000000000E+03 0.  0.
<mgrwt>
<rscale>  0 0.27435911E+03</rscale>
<asrwt>0</asrwt>
<pdfrwt beam="1">  1        2 0.24984765E-01 0.27435911E+03</pdfrwt>
<pdfrwt beam="2">  1       -2 0.17826940E-01 0.27435911E+03</pdfrwt>
<totfact> 0.54700394E+03</totfact>
</mgrwt>
</event>
<event>
 5    1  0.1100736E+001  0.2774256E+03  0.7818608E-02  0.1097103E+00
          2   -1    0    0  501    0  0.00000000000E+00  0.00000000000E+00  0.64267991983E+02  0.64267991983E+02  0.00000000000E+00 0.  1.
         -2   -1    0    0    0  501 -0.00000000000E+00 -0.00000000000E+00 -0.29939073057E+03  0.29939073057E+03  0.00000000000E+00 0.  1.
         35    2    1    2    0    0  0.00000000000E+00  0.00000000000E+00 -0.23512273859E+03  0.36365872255E+03  0.27742560136E+03 0.  0.
         25    1    3    3    0    0 -0.21273177432E+02 -0.66150745232E+02 -0.11287674014E+03  0.17880052471E+03  0.12000000000E+03 0.  0.
         25    1    3    3    0    0  0.21273177432E+02  0.66150745232E+02 -0.12224599845E+03  0.18485819784E+03  0.12000000000E+03 0.  0.
<mgrwt>
<rscale>  0 0.27742560E+03</rscale>
<asrwt>0</asrwt>
<pdfrwt beam="1">  1        2 0.98873834E-02 0.27742560E+03</pdfrwt>
<pdfrwt beam="2">  1       -2 0.46060112E-01 0.27742560E+03</pdfrwt>
<totfact> 0.29303507E+03</totfact>
</mgrwt>
</event>
<event>
 5    1  0.1100736E+001  0.2748483E+03  0.7818608E-02  0.1098536E+00
         -1   -1    0    0    0  501 -0.00000000000E+00  0.00000000000E+00  0.89535621495E+02  0.89535621495E+02  0.00000000000E+00 0. -1.
          1   -1    0    0  501    0  0.00000000000E+00 -0.00000000000E+00 -0.21092610323E+03  0.21092610323E+03  0.00000000000E+00 0. -1.
         35    2    1    2    0    0  0.00000000000E+00  0.00000000000E+00 -0.12139048173E+03  0.30046172472E+03  0.27484831993E+03 0.  0.
         25    1    3    3    0    0  0.36587380802E+02  0.37794469980E+02 -0.15379322119E+02  0.13192263621E+03  0.12000000000E+03 0.  0.
         25    1    3    3    0    0 -0.36587380802E+02 -0.37794469980E+02 -0.10601115962E+03  0.16853908852E+03  0.12000000000E+03 0.  0.
<mgrwt>
<rscale>  0 0.27484832E+03</rscale>
<asrwt>0</asrwt>
<pdfrwt beam="1">  1        1 0.32450170E-01 0.27484832E+03</pdfrwt>
<pdfrwt beam="2">  1       -1 0.13774711E-01 0.27484832E+03</pdfrwt>
<totfact> 0.50120861E+03</totfact>
</mgrwt>
</event>
<event>
 5    1  0.1100736E+001  0.2754877E+03  0.7818608E-02  0.1098179E+00
          1   -1    0    0  501    0  0.00000000000E+00  0.00000000000E+00  0.17711480931E+03  0.17711480931E+03  0.00000000000E+00 0. -1.
         -1   -1    0    0    0  501 -0.00000000000E+00 -0.00000000000E+00 -0.10712467257E+03  0.10712467257E+03  0.00000000000E+00 0. -1.
         35    2    1    2    0    0  0.00000000000E+00  0.00000000000E+00  0.69990136731E+02  0.28423948188E+03  0.27548768361E+03 0.  0.
         25    1    3    3    0    0 -0.32706725523E+02 -0.10154138202E+02 -0.25171534538E+02  0.12730452690E+03  0.12000000000E+03 0.  0.
         25    1    3    3    0    0  0.32706725523E+02  0.10154138202E+02  0.95161671269E+02  0.15693495498E+03  0.12000000000E+03 0.  0.
<mgrwt>
<rscale>  0 0.27548768E+03</rscale>
<asrwt>0</asrwt>
<pdfrwt beam="1">  1        1 0.27248432E-01 0.27548768E+03</pdfrwt>
<pdfrwt beam="2">  1       -1 0.16480719E-01 0.27548768E+03</pdfrwt>
<totfact> 0.47009769E+03</totfact>
</mgrwt>
</event>
<event>
 5    1  0.1100736E+001  0.2750921E+03  0.7818608E-02  0.1098400E+00
         -1   -1    0    0    0  501 -0.00000000000E+00  0.00000000000E+00  0.16566783852E+03  0.16566783852E+03  0.00000000000E+00 0.  1.
          1   -1    0    0  501    0  0.00000000000E+00 -0.00000000000E+00 -0.11419790717E+03  0.11419790717E+03  0.00000000000E+00 0.  1.
         35    2    1    2    0    0  0.00000000000E+00  0.00000000000E+00  0.51469931343E+02  0.27986574569E+03  0.27509213325E+03 0.  0.
         25    1    3    3    0    0 -0.76574341046E+01 -0.36189316397E+02 -0.31369413869E+02  0.12943084271E+03  0.12000000000E+03 0.  0.
         25    1    3    3    0    0  0.76574341046E+01  0.36189316397E+02  0.82839345212E+02  0.15043490298E+03  0.12000000000E+03 0.  0.
<mgrwt>
<rscale>  0 0.27509213E+03</rscale>
<asrwt>0</asrwt>
<pdfrwt beam="1">  1        1 0.17568909E-01 0.27509213E+03</pdfrwt>
<pdfrwt beam="2">  1       -1 0.25487360E-01 0.27509213E+03</pdfrwt>
<totfact> 0.40537411E+03</totfact>
</mgrwt>
</event>
<event>
 5    1  0.1100736E+001  0.2760196E+03  0.7818608E-02  0.1097883E+00
          2   -1    0    0  501    0  0.00000000000E+00  0.00000000000E+00  0.15880142143E+04  0.15880142143E+04  0.00000000000E+00 0. -1.
         -2   -1    0    0    0  501 -0.00000000000E+00 -0.00000000000E+00 -0.11994036250E+02  0.11994036250E+02  0.00000000000E+00 0. -1.
         35    2    1    2    0    0  0.00000000000E+00  0.00000000000E+00  0.15760201781E+04  0.16000082506E+04  0.27601956491E+03 0.  0.
         25    1    3    3    0    0 -0.59800587702E+01 -0.17325516214E+02  0.40741818014E+03  0.42511822841E+03  0.12000000000E+03 0.  0.
         25    1    3    3    0    0  0.59800587702E+01  0.17325516214E+02  0.11686019979E+04  0.11748900222E+04  0.12000000000E+03 0.  0.
<mgrwt>
<rscale>  0 0.27601956E+03</rscale>
<asrwt>0</asrwt>
<pdfrwt beam="1">  1        2 0.24430971E+00 0.27601956E+03</pdfrwt>
<pdfrwt beam="2">  1       -2 0.18452376E-02 0.27601956E+03</pdfrwt>
<totfact> 0.10659562E+04</totfact>
</mgrwt>
</event>
<event>
 5    1  0.1100736E+001  0.2754572E+03  0.7818608E-02  0.1098196E+00
          2   -1    0    0  501    0  0.00000000000E+00  0.00000000000E+00  0.12671579287E+04  0.12671579287E+04  0.00000000000E+00 0.  1.
         -2   -1    0    0    0  501 -0.00000000000E+00 -0.00000000000E+00 -0.14969850532E+02  0.14969850532E+02  0.00000000000E+00 0.  1.
         35    2    1    2    0    0  0.00000000000E+00  0.00000000000E+00  0.12521880782E+04  0.12821277792E+04  0.27545718210E+03 0.  0.
         25    1    3    3    0    0  0.38259870102E+02  0.47278644530E+02  0.76338945273E+03  0.77515323932E+03  0.12000000000E+03 0.  0.
         25    1    3    3    0    0 -0.38259870102E+02 -0.47278644530E+02  0.48879862544E+03  0.50697453991E+03  0.12000000000E+03 0.  0.
<mgrwt>
<rscale>  0 0.27545718E+03</rscale>
<asrwt>0</asrwt>
<pdfrwt beam="1">  1        2 0.19494729E+00 0.27545718E+03</pdfrwt>
<pdfrwt beam="2">  1       -2 0.23030549E-02 0.27545718E+03</pdfrwt>
<totfact> 0.11477845E+04</totfact>
</mgrwt>
</event>
<event>
 5    1  0.1100736E+001  0.2754286E+03  0.7818608E-02  0.1098212E+00
          2   -1    0    0  501    0  0.00000000000E+00  0.00000000000E+00  0.12540248892E+04  0.12540248892E+04  0.00000000000E+00 0. -1.
         -2   -1    0    0    0  501 -0.00000000000E+00 -0.00000000000E+00 -0.15123491041E+02  0.15123491041E+02  0.00000000000E+00 0. -1.
         35    2    1    2    0    0  0.00000000000E+00  0.00000000000E+00  0.12389013982E+04  0.12691483802E+04  0.27542864177E+03 0.  0.
         25    1    3    3    0    0 -0.49846704988E+02 -0.44402735337E+02  0.66754477111E+03  0.68152206006E+03  0.12000000000E+03 0.  0.
         25    1    3    3    0    0  0.49846704988E+02  0.44402735337E+02  0.57135662705E+03  0.58762632018E+03  0.12000000000E+03 0.  0.
<mgrwt>
<rscale>  0 0.27542864E+03</rscale>
<asrwt>0</asrwt>
<pdfrwt beam="1">  1        2 0.19292683E+00 0.27542864E+03</pdfrwt>
<pdfrwt beam="2">  1       -2 0.23266919E-02 0.27542864E+03</pdfrwt>
<totfact> 0.11498783E+04</totfact>
</mgrwt>
</event>
<event>
 5    1  0.1100736E+001  0.2782471E+03  0.7818608E-02  0.1096650E+00
         -2   -1    0    0    0  501 -0.00000000000E+00  0.00000000000E+00  0.79058540785E+01  0.79058540785E+01  0.00000000000E+00 0. -1.
          2   -1    0    0  501    0  0.00000000000E+00 -0.00000000000E+00 -0.24482312033E+04  0.24482312033E+04  0.00000000000E+00 0. -1.
         35    2    1    2    0    0  0.00000000000E+00  0.00000000000E+00 -0.24403253492E+04  0.24561370574E+04  0.27824707469E+03 0.  0.
         25    1    3    3    0    0 -0.64328036173E+02 -0.26435129039E+02 -0.11240937682E+04  0.11326180786E+04  0.12000000000E+03 0.  0.
         25    1    3    3    0    0  0.64328036173E+02  0.26435129039E+02 -0.13162315810E+04  0.13235189788E+04  0.12000000000E+03 0.  0.
<mgrwt>
<rscale>  0 0.27824707E+03</rscale>
<asrwt>0</asrwt>
<pdfrwt beam="1">  1        2 0.37665112E+00 0.27824707E+03</pdfrwt>
<pdfrwt beam="2">  1       -2 0.12162847E-02 0.27824707E+03</pdfrwt>
<totfact> 0.68621067E+03</totfact>
</mgrwt>
</event>
<event>
 5    1  0.1100736E+001  0.2751955E+03  0.7818608E-02  0.1098342E+00
          1   -1    0    0  501    0  0.00000000000E+00  0.00000000000E+00  0.74485868479E+03  0.74485868479E+03  0.00000000000E+00 0. -1.
         -1   -1    0    0    0  501 -0.00000000000E+00 -0.00000000000E+00 -0.25418434766E+02  0.25418434766E+02  0.00000000000E+00 0. -1.
         35    2    1    2    0    0  0.00000000000E+00  0.00000000000E+00  0.71944025002E+03  0.77027711955E+03  0.27519550788E+03 0.  0.
         25    1    3    3    0    0  0.45596204705E+02  0.30466888668E+02  0.46905739457E+03  0.48725977116E+03  0.12000000000E+03 0.  0.
         25    1    3    3    0    0 -0.45596204705E+02 -0.30466888668E+02  0.25038285546E+03  0.28301734840E+03  0.12000000000E+03 0.  0.
<mgrwt>
<rscale>  0 0.27519551E+03</rscale>
<asrwt>0</asrwt>
<pdfrwt beam="1">  1        1 0.11459363E+00 0.27519551E+03</pdfrwt>
<pdfrwt beam="2">  1       -1 0.39105290E-02 0.27519551E+03</pdfrwt>
<totfact> 0.65220760E+03</totfact>
</mgrwt>
</event>
<event>
 5    1  0.1100736E+001  0.2749249E+03  0.7818608E-02  0.1098494E+00
          2   -1    0    0  501    0  0.00000000000E+00  0.00000000000E+00  0.74622449003E+03  0.74622449003E+03  0.00000000000E+00 0. -1.
         -2   -1    0    0    0  501 -0.00000000000E+00 -0.00000000000E+00 -0.25322042955E+02  0.25322042955E+02  0.00000000000E+00 0. -1.
         35    2    1    2    0    0  0.00000000000E+00  0.00000000000E+00  0.72090244707E+03  0.77154653299E+03  0.27492492496E+03 0.  0.
         25    1    3    3    0    0 -0.29923687664E+02  0.39227262750E+02  0.48787873599E+03  0.50483647477E+03  0.12000000000E+03 0.  0.
         25    1    3    3    0    0  0.29923687664E+02 -0.39227262750E+02  0.23302371109E+03  0.26671005822E+03  0.12000000000E+03 0.  0.
<mgrwt>
<rscale>  0 0.27492492E+03</rscale>
<asrwt>0</asrwt>
<pdfrwt beam="1">  1        2 0.11480375E+00 0.27492492E+03</pdfrwt>
<pdfrwt beam="2">  1       -2 0.38956995E-02 0.27492492E+03</pdfrwt>
<totfact> 0.11041876E+04</totfact>
</mgrwt>
</event>
<event>
 5    1  0.1100736E+001  0.2742731E+03  0.7818608E-02  0.1098859E+00
         -2   -1    0    0    0  501 -0.00000000000E+00  0.00000000000E+00  0.73140289698E+01  0.73140289698E+01  0.00000000000E+00 0. -1.
          2   -1    0    0  501    0  0.00000000000E+00 -0.00000000000E+00 -0.25712828190E+04  0.25712828190E+04  0.00000000000E+00 0. -1.
         35    2    1    2    0    0  0.00000000000E+00  0.00000000000E+00 -0.25639687901E+04  0.25785968480E+04  0.27427312685E+03 0.  0.
         25    1    3    3    0    0  0.88009108743E+01  0.29208198596E+02 -0.18362672697E+04  0.18404369212E+04  0.12000000000E+03 0.  0.
         25    1    3    3    0    0 -0.88009108743E+01 -0.29208198596E+02 -0.72770152034E+03  0.73815992685E+03  0.12000000000E+03 0.  0.
<mgrwt>
<rscale>  0 0.27427313E+03</rscale>
<asrwt>0</asrwt>
<pdfrwt beam="1">  1        2 0.39558218E+00 0.27427313E+03</pdfrwt>
<pdfrwt beam="2">  1       -2 0.11252346E-02 0.27427313E+03</pdfrwt>
<totfact> 0.65792228E+03</totfact>
</mgrwt>
</event>
<event>
 5    1  0.1100736E+001  0.2747302E+03  0.7818608E-02  0.1098602E+00
          2   -1    0    0  501    0  0.00000000000E+00  0.00000000000E+00  0.35688690813E+03  0.35688690813E+03  0.00000000000E+00 0. -1.
         -2   -1    0    0    0  501 -0.00000000000E+00 -0.00000000000E+00 -0.52871575968E+02  0.52871575968E+02  0.00000000000E+00 0. -1.
         35    2    1    2    0    0  0.00000000000E+00  0.00000000000E+00  0.30401533216E+03  0.40975848410E+03  0.27473021876E+03 0.  0.
         25    1    3    3    0    0  0.80191419160E+01 -0.28856119363E+02  0.62864334870E+02  0.13874042980E+03  0.12000000000E+03 0.  0.
         25    1    3    3    0    0 -0.80191419160E+01  0.28856119363E+02  0.24115099729E+03  0.27101805430E+03  0.12000000000E+03 0.  0.
<mgrwt>
<rscale>  0 0.27473022E+03</rscale>
<asrwt>0</asrwt>
<pdfrwt beam="1">  1        2 0.54905677E-01 0.27473022E+03</pdfrwt>
<pdfrwt beam="2">  1       -2 0.81340888E-02 0.27473022E+03</pdfrwt>
<totfact> 0.82738424E+03</totfact>
</mgrwt>
</event>
<event>
 5    1  0.1100736E+001  0.2753128E+03  0.7818608E-02  0.1098277E+00
          2   -1    0    0  501    0  0.00000000000E+00  0.00000000000E+00  0.18607935174E+04  0.18607935174E+04  0.00000000000E+00 0.  1.
         -2   -1    0    0    0  501 -0.00000000000E+00 -0.00000000000E+00 -0.10183440654E+02  0.10183440654E+02  0.00000000000E+00 0.  1.
         35    2    1    2    0    0  0.00000000000E+00  0.00000000000E+00  0.18506100767E+04  0.18709769580E+04  0.27531277016E+03 0.  0.
         25    1    3    3    0    0  0.65789784158E+02  0.14854810685E+02  0.92146523216E+03  0.93169047177E+03  0.12000000000E+03 0.  0.
         25    1    3    3    0    0 -0.65789784158E+02 -0.14854810685E+02  0.92914484454E+03  0.93928648624E+03  0.12000000000E+03 0.  0.
<mgrwt>
<rscale>  0 0.27531277E+03</rscale>
<asrwt>0</asrwt>
<pdfrwt beam="1">  1        2 0.28627566E+00 0.27531277E+03</pdfrwt>
<pdfrwt beam="2">  1       -2 0.15666847E-02 0.27531277E+03</pdfrwt>
<totfact> 0.97335219E+03</totfact>
</mgrwt>
</event>
<event>
 5    1  0.1100736E+001  0.2748121E+03  0.7818608E-02  0.1098557E+00
         -4   -1    0    0    0  501 -0.00000000000E+00  0.00000000000E+00  0.26851481690E+02  0.26851481690E+02  0.00000000000E+00 0.  1.
          4   -1    0    0  501    0  0.00000000000E+00 -0.00000000000E+00 -0.70314257502E+03  0.70314257502E+03  0.00000000000E+00 0.  1.
         35    2    1    2    0    0  0.00000000000E+00  0.00000000000E+00 -0.67629109333E+03  0.72999405671E+03  0.27481208109E+03 0.  0.
         25    1    3    3    0    0  0.45420224804E+02  0.45706098234E+02 -0.29000965327E+03  0.32040231464E+03  0.12000000000E+03 0.  0.
         25    1    3    3    0    0 -0.45420224804E+02 -0.45706098234E+02 -0.38628144007E+03  0.40959174208E+03  0.12000000000E+03 0.  0.
<mgrwt>
<rscale>  0 0.27481208E+03</rscale>
<asrwt>0</asrwt>
<pdfrwt beam="1">  1        4 0.10817578E+00 0.27481208E+03</pdfrwt>
<pdfrwt beam="2">  1       -4 0.41309972E-02 0.27481208E+03</pdfrwt>
<totfact> 0.43127423E+02</totfact>
</mgrwt>
</event>
<event>
 5    1  0.1100736E+001  0.2792148E+03  0.7818608E-02  0.1096119E+00
          4   -1    0    0  501    0  0.00000000000E+00  0.00000000000E+00  0.14354765350E+02  0.14354765350E+02  0.00000000000E+00 0. -1.
         -4   -1    0    0    0  501 -0.00000000000E+00 -0.00000000000E+00 -0.13577526244E+04  0.13577526244E+04  0.00000000000E+00 0. -1.
         35    2    1    2    0    0  0.00000000000E+00  0.00000000000E+00 -0.13433978590E+04  0.13721073897E+04  0.27921475839E+03 0.  0.
         25    1    3    3    0    0  0.47900819991E+02  0.49473342623E+02 -0.76338731134E+03  0.77582361868E+03  0.12000000000E+03 0.  0.
         25    1    3    3    0    0 -0.47900819991E+02 -0.49473342623E+02 -0.58001054767E+03  0.59628377103E+03  0.12000000000E+03 0.  0.
<mgrwt>
<rscale>  0 0.27921476E+03</rscale>
<asrwt>0</asrwt>
<pdfrwt beam="1">  1        4 0.22084249E-02 0.27921476E+03</pdfrwt>
<pdfrwt beam="2">  1       -4 0.20888507E+00 0.27921476E+03</pdfrwt>
<totfact> 0.20657608E+02</totfact>
</mgrwt>
</event>
<event>
 5    1  0.1100736E+001  0.2746691E+03  0.7818608E-02  0.1098637E+00
         -3   -1    0    0    0  501 -0.00000000000E+00  0.00000000000E+00  0.42720714296E+03  0.42720714296E+03  0.00000000000E+00 0.  1.
          3   -1    0    0  501    0  0.00000000000E+00 -0.00000000000E+00 -0.44149035580E+02  0.44149035580E+02  0.00000000000E+00 0.  1.
         35    2    1    2    0    0  0.00000000000E+00  0.00000000000E+00  0.38305810738E+03  0.47135617854E+03  0.27466913445E+03 0.  0.
         25    1    3    3    0    0 -0.30959895798E+02 -0.57950599882E+02  0.21212182662E+03  0.25241326531E+03  0.12000000000E+03 0.  0.
         25    1    3    3    0    0  0.30959895798E+02  0.57950599882E+02  0.17093628075E+03  0.21894291323E+03  0.12000000000E+03 0.  0.
<mgrwt>
<rscale>  0 0.27466913E+03</rscale>
<asrwt>0</asrwt>
<pdfrwt beam="1">  1        3 0.67921596E-02 0.27466913E+03</pdfrwt>
<pdfrwt beam="2">  1       -3 0.65724173E-01 0.27466913E+03</pdfrwt>
<totfact> 0.80506766E+02</totfact>
</mgrwt>
</event>
<event>
 5    1  0.1100736E+001  0.2752837E+03  0.7818608E-02  0.1098293E+00
         -1   -1    0    0    0  501 -0.00000000000E+00  0.00000000000E+00  0.24416296228E+03  0.24416296228E+03  0.00000000000E+00 0. -1.
          1   -1    0    0  501    0  0.00000000000E+00 -0.00000000000E+00 -0.77592778451E+02  0.77592778451E+02  0.00000000000E+00 0. -1.
         35    2    1    2    0    0  0.00000000000E+00  0.00000000000E+00  0.16657018382E+03  0.32175574073E+03  0.27528372736E+03 0.  0.
         25    1    3    3    0    0 -0.59557147660E+02 -0.13590509953E+02  0.49947693364E+02  0.14361938543E+03  0.12000000000E+03 0.  0.
         25    1    3    3    0    0  0.59557147660E+02  0.13590509953E+02  0.11662249046E+03  0.17813635530E+03  0.12000000000E+03 0.  0.
<mgrwt>
<rscale>  0 0.27528373E+03</rscale>
<asrwt>0</asrwt>
<pdfrwt beam="1">  1        1 0.11937351E-01 0.27528373E+03</pdfrwt>
<pdfrwt beam="2">  1       -1 0.37563532E-01 0.27528373E+03</pdfrwt>
<totfact> 0.34725593E+03</totfact>
</mgrwt>
</event>
<event>
 5    1  0.1100736E+001  0.2733812E+03  0.7818608E-02  0.1099360E+00
          2   -1    0    0  501    0  0.00000000000E+00  0.00000000000E+00  0.27160238158E+04  0.27160238158E+04  0.00000000000E+00 0. -1.
         -2   -1    0    0    0  501 -0.00000000000E+00 -0.00000000000E+00 -0.68792893594E+01  0.68792893594E+01  0.00000000000E+00 0. -1.
         35    2    1    2    0    0  0.00000000000E+00  0.00000000000E+00  0.27091445264E+04  0.27229031051E+04  0.27338115323E+03 0.  0.
         25    1    3    3    0    0  0.62635817507E+02 -0.17114914927E+02  0.14367945400E+04  0.14432583677E+04  0.12000000000E+03 0.  0.
         25    1    3    3    0    0 -0.62635817507E+02  0.17114914927E+02  0.12723499865E+04  0.12796447374E+04  0.12000000000E+03 0.  0.
<mgrwt>
<rscale>  0 0.27338115E+03</rscale>
<asrwt>0</asrwt>
<pdfrwt beam="1">  1        2 0.41784896E+00 0.27338115E+03</pdfrwt>
<pdfrwt beam="2">  1       -2 0.10583544E-02 0.27338115E+03</pdfrwt>
<totfact> 0.59709541E+03</totfact>
</mgrwt>
</event>
<event>
 5    1  0.1100736E+001  0.2762844E+03  0.7818608E-02  0.1097736E+00
         -2   -1    0    0    0  501 -0.00000000000E+00  0.00000000000E+00  0.15414883948E+04  0.15414883948E+04  0.00000000000E+00 0.  1.
          2   -1    0    0  501    0  0.00000000000E+00 -0.00000000000E+00 -0.12379762974E+02  0.12379762974E+02  0.00000000000E+00 0.  1.
         35    2    1    2    0    0  0.00000000000E+00  0.00000000000E+00  0.15291086318E+04  0.15538681578E+04  0.27628435319E+03 0.  0.
         25    1    3    3    0    0  0.19184006943E+02  0.24973267768E+02  0.11062688679E+04  0.11132037093E+04  0.12000000000E+03 0.  0.
         25    1    3    3    0    0 -0.19184006943E+02 -0.24973267768E+02  0.42283976387E+03  0.44066444846E+03  0.12000000000E+03 0.  0.
<mgrwt>
<rscale>  0 0.27628435E+03</rscale>
<asrwt>0</asrwt>
<pdfrwt beam="1">  1        2 0.19045801E-02 0.27628435E+03</pdfrwt>
<pdfrwt beam="2">  1       -2 0.23715191E+00 0.27628435E+03</pdfrwt>
<totfact> 0.50082965E+02</totfact>
</mgrwt>
</event>
<event>
 5    1  0.1100736E+001  0.2749579E+03  0.7818608E-02  0.1098475E+00
          1   -1    0    0  501    0  0.00000000000E+00  0.00000000000E+00  0.12696515273E+03  0.12696515273E+03  0.00000000000E+00 0. -1.
         -1   -1    0    0    0  501 -0.00000000000E+00 -0.00000000000E+00 -0.14886339375E+03  0.14886339375E+03  0.00000000000E+00 0. -1.
         35    2    1    2    0    0  0.00000000000E+00  0.00000000000E+00 -0.21898241020E+02  0.27582854647E+03  0.27495791330E+03 0.  0.
         25    1    3    3    0    0 -0.21830004281E+02 -0.51193573524E+02 -0.48526139499E+02  0.14089754175E+03  0.12000000000E+03 0.  0.
         25    1    3    3    0    0  0.21830004281E+02  0.51193573524E+02  0.26627898478E+02  0.13493100472E+03  0.12000000000E+03 0.  0.
<mgrwt>
<rscale>  0 0.27495791E+03</rscale>
<asrwt>0</asrwt>
<pdfrwt beam="1">  1        1 0.19533101E-01 0.27495791E+03</pdfrwt>
<pdfrwt beam="2">  1       -1 0.22902060E-01 0.27495791E+03</pdfrwt>
<totfact> 0.42191533E+03</totfact>
</mgrwt>
</event>
<event>
 5    1  0.1100736E+001  0.2755033E+03  0.7818608E-02  0.1098171E+00
         -2   -1    0    0    0  501 -0.00000000000E+00  0.00000000000E+00  0.58903397875E+03  0.58903397875E+03  0.00000000000E+00 0.  1.
          2   -1    0    0  501    0  0.00000000000E+00 -0.00000000000E+00 -0.32214634737E+02  0.32214634737E+02  0.00000000000E+00 0.  1.
         35    2    1    2    0    0  0.00000000000E+00  0.00000000000E+00  0.55681934401E+03  0.62124861348E+03  0.27550328109E+03 0.  0.
         25    1    3    3    0    0 -0.60161209865E+02  0.13016427305E+01  0.20874461018E+03  0.24818416091E+03  0.12000000000E+03 0.  0.
         25    1    3    3    0    0  0.60161209865E+02 -0.13016427305E+01  0.34807473382E+03  0.37306445257E+03  0.12000000000E+03 0.  0.
<mgrwt>
<rscale>  0 0.27550328E+03</rscale>
<asrwt>0</asrwt>
<pdfrwt beam="1">  1        2 0.49560981E-02 0.27550328E+03</pdfrwt>
<pdfrwt beam="2">  1       -2 0.90620604E-01 0.27550328E+03</pdfrwt>
<totfact> 0.17098636E+03</totfact>
</mgrwt>
</event>
<event>
 5    1  0.1100736E+001  0.2746472E+03  0.7818608E-02  0.1098649E+00
         -2   -1    0    0    0  501 -0.00000000000E+00  0.00000000000E+00  0.31776602677E+02  0.31776602677E+02  0.00000000000E+00 0. -1.
          2   -1    0    0  501    0  0.00000000000E+00 -0.00000000000E+00 -0.59344832886E+03  0.59344832886E+03  0.00000000000E+00 0. -1.
         35    2    1    2    0    0  0.00000000000E+00  0.00000000000E+00 -0.56167172618E+03  0.62522493153E+03  0.27464720465E+03 0.  0.
         25    1    3    3    0    0  0.51167962716E+02  0.98379204576E+01 -0.18579985127E+03  0.22723672639E+03  0.12000000000E+03 0.  0.
         25    1    3    3    0    0 -0.51167962716E+02 -0.98379204576E+01 -0.37587187491E+03  0.39798820514E+03  0.12000000000E+03 0.  0.
<mgrwt>
<rscale>  0 0.27464720E+03</rscale>
<asrwt>0</asrwt>
<pdfrwt beam="1">  1        2 0.91299743E-01 0.27464720E+03</pdfrwt>
<pdfrwt beam="2">  1       -2 0.48887081E-02 0.27464720E+03</pdfrwt>
<totfact> 0.10306876E+04</totfact>
</mgrwt>
</event>
<event>
 5    1  0.1100736E+001  0.2764639E+03  0.7818608E-02  0.1097636E+00
          2   -1    0    0  501    0  0.00000000000E+00  0.00000000000E+00  0.67461813387E+03  0.67461813387E+03  0.00000000000E+00 0.  1.
         -2   -1    0    0    0  501 -0.00000000000E+00 -0.00000000000E+00 -0.28324270330E+02  0.28324270330E+02  0.00000000000E+00 0.  1.
         35    2    1    2    0    0  0.00000000000E+00  0.00000000000E+00  0.64629386354E+03  0.70294240420E+03  0.27646385943E+03 0.  0.
         25    1    3    3    0    0 -0.21782642217E+02 -0.61794257455E+02  0.27134654950E+03  0.30384529564E+03  0.12000000000E+03 0.  0.
         25    1    3    3    0    0  0.21782642217E+02  0.61794257455E+02  0.37494731404E+03  0.39909710856E+03  0.12000000000E+03 0.  0.
<mgrwt>
<rscale>  0 0.27646386E+03</rscale>
<asrwt>0</asrwt>
<pdfrwt beam="1">  1        2 0.10378739E+00 0.27646386E+03</pdfrwt>
<pdfrwt beam="2">  1       -2 0.43575805E-02 0.27646386E+03</pdfrwt>
<totfact> 0.10550086E+04</totfact>
</mgrwt>
</event>
<event>
 5    1  0.1100736E+001  0.2759719E+03  0.7818608E-02  0.1097910E+00
         -2   -1    0    0    0  501 -0.00000000000E+00  0.00000000000E+00  0.10805116345E+02  0.10805116345E+02  0.00000000000E+00 0. -1.
          2   -1    0    0  501    0  0.00000000000E+00 -0.00000000000E+00 -0.17621393169E+04  0.17621393169E+04  0.00000000000E+00 0. -1.
         35    2    1    2    0    0  0.00000000000E+00  0.00000000000E+00 -0.17513342005E+04  0.17729444332E+04  0.27597188505E+03 0.  0.
         25    1    3    3    0    0  0.44384787101E+02  0.50879569598E+02 -0.81771219344E+03  0.82922371603E+03  0.12000000000E+03 0.  0.
         25    1    3    3    0    0 -0.44384787101E+02 -0.50879569598E+02 -0.93362200711E+03  0.94372071721E+03  0.12000000000E+03 0.  0.
<mgrwt>
<rscale>  0 0.27597189E+03</rscale>
<asrwt>0</asrwt>
<pdfrwt beam="1">  1        2 0.27109841E+00 0.27597189E+03</pdfrwt>
<pdfrwt beam="2">  1       -2 0.16623253E-02 0.27597189E+03</pdfrwt>
<totfact> 0.10055105E+04</totfact>
</mgrwt>
</event>
<event>
 5    1  0.1100736E+001  0.2763186E+03  0.7818608E-02  0.1097717E+00
         -4   -1    0    0    0  501 -0.00000000000E+00  0.00000000000E+00  0.11408880443E+04  0.11408880443E+04  0.00000000000E+00 0. -1.
          4   -1    0    0  501    0  0.00000000000E+00 -0.00000000000E+00 -0.16730820428E+02  0.16730820428E+02  0.00000000000E+00 0. -1.
         35    2    1    2    0    0  0.00000000000E+00  0.00000000000E+00  0.11241572239E+04  0.11576188647E+04  0.27631860594E+03 0.  0.
         25    1    3    3    0    0 -0.14407303427E+02 -0.66234931593E+02  0.52159981342E+03  0.53950069687E+03  0.12000000000E+03 0.  0.
         25    1    3    3    0    0  0.14407303427E+02  0.66234931593E+02  0.60255741045E+03  0.61811816787E+03  0.12000000000E+03 0.  0.
<mgrwt>
<rscale>  0 0.27631861E+03</rscale>
<asrwt>0</asrwt>
<pdfrwt beam="1">  1        4 0.25739733E-02 0.27631861E+03</pdfrwt>
<pdfrwt beam="2">  1       -4 0.17552118E+00 0.27631861E+03</pdfrwt>
<totfact> 0.26737932E+02</totfact>
</mgrwt>
</event>
<event>
 5    1  0.1100736E+001  0.2624791E+03  0.7818608E-02  0.1105663E+00
          2   -1    0    0  501    0  0.00000000000E+00  0.00000000000E+00  0.93808281602E+03  0.93808281602E+03  0.00000000000E+00 0. -1.
         -2   -1    0    0    0  501 -0.00000000000E+00 -0.00000000000E+00 -0.18360654781E+02  0.18360654781E+02  0.00000000000E+00 0. -1.
         35    2    1    2    0    0  0.00000000000E+00  0.00000000000E+00  0.91972216124E+03  0.95644347080E+03  0.26247906385E+03 0.  0.
         25    1    3    3    0    0 -0.33756150399E+02  0.38755734339E+02  0.50906433530E+03  0.52553589992E+03  0.12000000000E+03 0.  0.
         25    1    3    3    0    0  0.33756150399E+02 -0.38755734339E+02  0.41065782594E+03  0.43090757088E+03  0.12000000000E+03 0.  0.
<mgrwt>
<rscale>  0 0.26247906E+03</rscale>
<asrwt>0</asrwt>
<pdfrwt beam="1">  1        2 0.14432040E+00 0.26247906E+03</pdfrwt>
<pdfrwt beam="2">  1       -2 0.28247169E-02 0.26247906E+03</pdfrwt>
<totfact> 0.13237620E+04</totfact>
</mgrwt>
</event>
<event>
 5    1  0.1100736E+001  0.2752147E+03  0.7818608E-02  0.1098332E+00
          1   -1    0    0  501    0  0.00000000000E+00  0.00000000000E+00  0.59107573944E+03  0.59107573944E+03  0.00000000000E+00 0. -1.
         -1   -1    0    0    0  501 -0.00000000000E+00 -0.00000000000E+00 -0.32036137469E+02  0.32036137469E+02  0.00000000000E+00 0. -1.
         35    2    1    2    0    0  0.00000000000E+00  0.00000000000E+00  0.55903960197E+03  0.62311187691E+03  0.27521470632E+03 0.  0.
         25    1    3    3    0    0  0.14760265189E+02  0.56873043928E+02  0.20499791886E+03  0.24469686408E+03  0.12000000000E+03 0.  0.
         25    1    3    3    0    0 -0.14760265189E+02 -0.56873043928E+02  0.35404168311E+03  0.37841501283E+03  0.12000000000E+03 0.  0.
<mgrwt>
<rscale>  0 0.27521471E+03</rscale>
<asrwt>0</asrwt>
<pdfrwt beam="1">  1        1 0.90934721E-01 0.27521471E+03</pdfrwt>
<pdfrwt beam="2">  1       -1 0.49286370E-02 0.27521471E+03</pdfrwt>
<totfact> 0.64352873E+03</totfact>
</mgrwt>
</event>
<event>
 5    1  0.1100736E+001  0.2749939E+03  0.7818608E-02  0.1098455E+00
         -2   -1    0    0    0  501 -0.00000000000E+00  0.00000000000E+00  0.16567350037E+03  0.16567350037E+03  0.00000000000E+00 0.  1.
          2   -1    0    0  501    0  0.00000000000E+00 -0.00000000000E+00 -0.11411248488E+03  0.11411248488E+03  0.00000000000E+00 0.  1.
         35    2    1    2    0    0  0.00000000000E+00  0.00000000000E+00  0.51561015487E+02  0.27978598525E+03  0.27499392580E+03 0.  0.
         25    1    3    3    0    0  0.35712918896E+00 -0.21120311131E+02 -0.39041747334E+02  0.12794707155E+03  0.12000000000E+03 0.  0.
         25    1    3    3    0    0 -0.35712918896E+00  0.21120311131E+02  0.90602762821E+02  0.15183891370E+03  0.12000000000E+03 0.  0.
<mgrwt>
<rscale>  0 0.27499393E+03</rscale>
<asrwt>0</asrwt>
<pdfrwt beam="1">  1        2 0.17555767E-01 0.27499393E+03</pdfrwt>
<pdfrwt beam="2">  1       -2 0.25488231E-01 0.27499393E+03</pdfrwt>
<totfact> 0.44126897E+03</totfact>
</mgrwt>
</event>
<event>
 5    1  0.1100736E+001  0.2771764E+03  0.7818608E-02  0.1097241E+00
          1   -1    0    0  501    0  0.00000000000E+00  0.00000000000E+00  0.14522817509E+03  0.14522817509E+03  0.00000000000E+00 0.  1.
         -1   -1    0    0    0  501 -0.00000000000E+00 -0.00000000000E+00 -0.13225184212E+03  0.13225184212E+03  0.00000000000E+00 0.  1.
         35    2    1    2    0    0  0.00000000000E+00  0.00000000000E+00  0.12976332974E+02  0.27748001721E+03  0.27717643250E+03 0.  0.
         25    1    3    3    0    0 -0.33665650541E+02 -0.57794757547E+02 -0.11782402556E+02  0.13788558676E+03  0.12000000000E+03 0.  0.
         25    1    3    3    0    0  0.33665650541E+02  0.57794757547E+02  0.24758735530E+02  0.13959443045E+03  0.12000000000E+03 0.  0.
<mgrwt>
<rscale>  0 0.27717643E+03</rscale>
<asrwt>0</asrwt>
<pdfrwt beam="1">  1        1 0.22342796E-01 0.27717643E+03</pdfrwt>
<pdfrwt beam="2">  1       -1 0.20346437E-01 0.27717643E+03</pdfrwt>
<totfact> 0.43099955E+03</totfact>
</mgrwt>
</event>
<event>
 5    1  0.1100736E+001  0.2758258E+03  0.7818608E-02  0.1097991E+00
          1   -1    0    0  501    0  0.00000000000E+00  0.00000000000E+00  0.52557250736E+03  0.52557250736E+03  0.00000000000E+00 0. -1.
         -1   -1    0    0    0  501 -0.00000000000E+00 -0.00000000000E+00 -0.36189045836E+02  0.36189045836E+02  0.00000000000E+00 0. -1.
         35    2    1    2    0    0  0.00000000000E+00  0.00000000000E+00  0.48938346152E+03  0.56176155319E+03  0.27582579690E+03 0.  0.
         25    1    3    3    0    0 -0.28793644824E+02  0.23251017222E+02  0.12857955283E+03  0.17972864321E+03  0.12000000000E+03 0.  0.
         25    1    3    3    0    0  0.28793644824E+02 -0.23251017222E+02  0.36080390869E+03  0.38203290998E+03  0.12000000000E+03 0.  0.
<mgrwt>
<rscale>  0 0.27582580E+03</rscale>
<asrwt>0</asrwt>
<pdfrwt beam="1">  1        1 0.80857303E-01 0.27582580E+03</pdfrwt>
<pdfrwt beam="2">  1       -1 0.55675459E-02 0.27582580E+03</pdfrwt>
<totfact> 0.62899559E+03</totfact>
</mgrwt>
</event>
<event>
 5    1  0.1100736E+001  0.2746927E+03  0.7818608E-02  0.1098624E+00
         -2   -1    0    0    0  501 -0.00000000000E+00  0.00000000000E+00  0.76285552354E+01  0.76285552354E+01  0.00000000000E+00 0. -1.
          2   -1    0    0  501    0  0.00000000000E+00 -0.00000000000E+00 -0.24728160139E+04  0.24728160139E+04  0.00000000000E+00 0. -1.
         35    2    1    2    0    0  0.00000000000E+00  0.00000000000E+00 -0.24651874586E+04  0.24804445691E+04  0.27469265406E+03 0.  0.
         25    1    3    3    0    0  0.24900458945E+02  0.45628109254E+01 -0.17909273754E+04  0.17951216438E+04  0.12000000000E+03 0.  0.
         25    1    3    3    0    0 -0.24900458945E+02 -0.45628109254E+01 -0.67426008324E+03  0.68532292531E+03  0.12000000000E+03 0.  0.
<mgrwt>
<rscale>  0 0.27469265E+03</rscale>
<asrwt>0</asrwt>
<pdfrwt beam="1">  1        2 0.38043370E+00 0.27469265E+03</pdfrwt>
<pdfrwt beam="2">  1       -2 0.11736224E-02 0.27469265E+03</pdfrwt>
<totfact> 0.70091172E+03</totfact>
</mgrwt>
</event>
<event>
 5    1  0.1100736E+001  0.2746927E+03  0.7818608E-02  0.1098623E+00
         -2   -1    0    0    0  501 -0.00000000000E+00  0.00000000000E+00  0.13083620406E+03  0.13083620406E+03  0.00000000000E+00 0.  1.
          2   -1    0    0  501    0  0.00000000000E+00 -0.00000000000E+00 -0.14418045473E+03  0.14418045473E+03  0.00000000000E+00 0.  1.
         35    2    1    2    0    0  0.00000000000E+00  0.00000000000E+00 -0.13344250676E+02  0.27501665879E+03  0.27469272576E+03 0.  0.
         25    1    3    3    0    0  0.10746027810E+01 -0.20722772968E+02 -0.70256351524E+02  0.14059353833E+03  0.12000000000E+03 0.  0.
         25    1    3    3    0    0 -0.10746027810E+01  0.20722772968E+02  0.56912100848E+02  0.13442312046E+03  0.12000000000E+03 0.  0.
<mgrwt>
<rscale>  0 0.27469273E+03</rscale>
<asrwt>0</asrwt>
<pdfrwt beam="1">  1        2 0.22181608E-01 0.27469273E+03</pdfrwt>
<pdfrwt beam="2">  1       -2 0.20128647E-01 0.27469273E+03</pdfrwt>
<totfact> 0.50881201E+03</totfact>
</mgrwt>
</event>
<event>
 5    1  0.1100736E+001  0.2756886E+03  0.7818608E-02  0.1098067E+00
         -1   -1    0    0    0  501 -0.00000000000E+00  0.00000000000E+00  0.12359899164E+02  0.12359899164E+02  0.00000000000E+00 0.  1.
          1   -1    0    0  501    0  0.00000000000E+00 -0.00000000000E+00 -0.15373140170E+04  0.15373140170E+04  0.00000000000E+00 0.  1.
         35    2    1    2    0    0  0.00000000000E+00  0.00000000000E+00 -0.15249541178E+04  0.15496739162E+04  0.27568856511E+03 0.  0.
         25    1    3    3    0    0 -0.32025997924E+02 -0.93757189161E+01 -0.10944305823E+04  0.11014952874E+04  0.12000000000E+03 0.  0.
         25    1    3    3    0    0  0.32025997924E+02  0.93757189161E+01 -0.43052353556E+03  0.44817862881E+03  0.12000000000E+03 0.  0.
<mgrwt>
<rscale>  0 0.27568857E+03</rscale>
<asrwt>0</asrwt>
<pdfrwt beam="1">  1        1 0.23651008E+00 0.27568857E+03</pdfrwt>
<pdfrwt beam="2">  1       -1 0.19015211E-02 0.27568857E+03</pdfrwt>
<totfact> 0.49913988E+03</totfact>
</mgrwt>
</event>
<event>
 5    1  0.1100736E+001  0.2743397E+03  0.7818608E-02  0.1098821E+00
          1   -1    0    0  501    0  0.00000000000E+00  0.00000000000E+00  0.29548698927E+04  0.29548698927E+04  0.00000000000E+00 0. -1.
         -1   -1    0    0    0  501 -0.00000000000E+00 -0.00000000000E+00 -0.63676446433E+01  0.63676446433E+01  0.00000000000E+00 0. -1.
         35    2    1    2    0    0  0.00000000000E+00  0.00000000000E+00  0.29485022480E+04  0.29612375373E+04  0.27433965403E+03 0.  0.
         25    1    3    3    0    0  0.64446217244E+02 -0.87172249170E+01  0.13269383536E+04  0.13339395410E+04  0.12000000000E+03 0.  0.
         25    1    3    3    0    0 -0.64446217244E+02  0.87172249170E+01  0.16215638944E+04  0.16272979963E+04  0.12000000000E+03 0.  0.
<mgrwt>
<rscale>  0 0.27433965E+03</rscale>
<asrwt>0</asrwt>
<pdfrwt beam="1">  1        1 0.45459427E+00 0.27433965E+03</pdfrwt>
<pdfrwt beam="2">  1       -1 0.97964000E-03 0.27433965E+03</pdfrwt>
<totfact> 0.15082536E+03</totfact>
</mgrwt>
</event>
<event>
 5    1  0.1100736E+001  0.2752803E+03  0.7818608E-02  0.1098295E+00
         -3   -1    0    0    0  501 -0.00000000000E+00  0.00000000000E+00  0.12672499289E+03  0.12672499289E+03  0.00000000000E+00 0. -1.
          3   -1    0    0  501    0  0.00000000000E+00 -0.00000000000E+00 -0.14949550298E+03  0.14949550298E+03  0.00000000000E+00 0. -1.
         35    2    1    2    0    0  0.00000000000E+00  0.00000000000E+00 -0.22770510097E+02  0.27622049587E+03  0.27528034112E+03 0.  0.
         25    1    3    3    0    0  0.52009572517E+02  0.88690750868E+01  0.30724252424E+02  0.13463890899E+03  0.12000000000E+03 0.  0.
         25    1    3    3    0    0 -0.52009572517E+02 -0.88690750868E+01 -0.53494762522E+02  0.14158158688E+03  0.12000000000E+03 0.  0.
<mgrwt>
<rscale>  0 0.27528034E+03</rscale>
<asrwt>0</asrwt>
<pdfrwt beam="1">  1        3 0.22999308E-01 0.27528034E+03</pdfrwt>
<pdfrwt beam="2">  1       -3 0.19496153E-01 0.27528034E+03</pdfrwt>
<totfact> 0.10437863E+03</totfact>
</mgrwt>
</event>
<event>
 5    1  0.1100736E+001  0.2747190E+03  0.7818608E-02  0.1098609E+00
          2   -1    0    0  501    0  0.00000000000E+00  0.00000000000E+00  0.30555904858E+04  0.30555904858E+04  0.00000000000E+00 0. -1.
         -2   -1    0    0    0  501 -0.00000000000E+00 -0.00000000000E+00 -0.61747925550E+01  0.61747925550E+01  0.00000000000E+00 0. -1.
         35    2    1    2    0    0  0.00000000000E+00  0.00000000000E+00  0.30494156932E+04  0.30617652783E+04  0.27471903744E+03 0.  0.
         25    1    3    3    0    0  0.48316485298E+02 -0.32867544768E+01  0.10112653254E+04  0.10195110808E+04  0.12000000000E+03 0.  0.
         25    1    3    3    0    0 -0.48316485298E+02  0.32867544768E+01  0.20381503678E+04  0.20422541975E+04  0.12000000000E+03 0.  0.
<mgrwt>
<rscale>  0 0.27471904E+03</rscale>
<asrwt>0</asrwt>
<pdfrwt beam="1">  1        2 0.47008964E+00 0.27471904E+03</pdfrwt>
<pdfrwt beam="2">  1       -2 0.94997053E-03 0.27471904E+03</pdfrwt>
<totfact> 0.44348862E+03</totfact>
</mgrwt>
</event>
<event>
 5    1  0.1100736E+001  0.2749808E+03  0.7818608E-02  0.1098462E+00
          2   -1    0    0  501    0  0.00000000000E+00  0.00000000000E+00  0.29020996040E+03  0.29020996040E+03  0.00000000000E+00 0. -1.
         -2   -1    0    0    0  501 -0.00000000000E+00 -0.00000000000E+00 -0.65137685687E+02  0.65137685687E+02  0.00000000000E+00 0. -1.
         35    2    1    2    0    0  0.00000000000E+00  0.00000000000E+00  0.22507227471E+03  0.35534764609E+03  0.27498076430E+03 0.  0.
         25    1    3    3    0    0  0.14933844756E+01  0.40514193021E+02  0.18164476328E+03  0.22144626901E+03  0.12000000000E+03 0.  0.
         25    1    3    3    0    0 -0.14933844756E+01 -0.40514193021E+02  0.43427511438E+02  0.13390137708E+03  0.12000000000E+03 0.  0.
<mgrwt>
<rscale>  0 0.27498076E+03</rscale>
<asrwt>0</asrwt>
<pdfrwt beam="1">  1        2 0.44647686E-01 0.27498076E+03</pdfrwt>
<pdfrwt beam="2">  1       -2 0.10021183E-01 0.27498076E+03</pdfrwt>
<totfact> 0.74403285E+03</totfact>
</mgrwt>
</event>
<event>
 5    1  0.1100736E+001  0.2748131E+03  0.7818608E-02  0.1098556E+00
          1   -1    0    0  501    0  0.00000000000E+00  0.00000000000E+00  0.13531337875E+04  0.13531337875E+04  0.00000000000E+00 0. -1.
         -1   -1    0    0    0  501 -0.00000000000E+00 -0.00000000000E+00 -0.13953205574E+02  0.13953205574E+02  0.00000000000E+00 0. -1.
         35    2    1    2    0    0  0.00000000000E+00  0.00000000000E+00  0.13391805819E+04  0.13670869930E+04  0.27481305577E+03 0.  0.
         25    1    3    3    0    0  0.43872302865E+02  0.50214281285E+02  0.69872505850E+03  0.71208353469E+03  0.12000000000E+03 0.  0.
         25    1    3    3    0    0 -0.43872302865E+02 -0.50214281285E+02  0.64045552340E+03  0.65500345835E+03  0.12000000000E+03 0.  0.
<mgrwt>
<rscale>  0 0.27481306E+03</rscale>
<asrwt>0</asrwt>
<pdfrwt beam="1">  1        1 0.20817433E+00 0.27481306E+03</pdfrwt>
<pdfrwt beam="2">  1       -1 0.21466481E-02 0.27481306E+03</pdfrwt>
<totfact> 0.55486956E+03</totfact>
</mgrwt>
</event>
<event>
 5    1  0.1100736E+001  0.2803166E+03  0.7818608E-02  0.1095516E+00
          4   -1    0    0  501    0  0.00000000000E+00  0.00000000000E+00  0.23284338029E+03  0.23284338029E+03  0.00000000000E+00 0.  1.
         -4   -1    0    0    0  501 -0.00000000000E+00 -0.00000000000E+00 -0.84367208346E+02  0.84367208346E+02  0.00000000000E+00 0.  1.
         35    2    1    2    0    0  0.00000000000E+00  0.00000000000E+00  0.14847617194E+03  0.31721058864E+03  0.28031657801E+03 0.  0.
         25    1    3    3    0    0  0.25483650844E+02  0.55607458303E+02  0.30370793474E+02  0.13807241207E+03  0.12000000000E+03 0.  0.
         25    1    3    3    0    0 -0.25483650844E+02 -0.55607458303E+02  0.11810537847E+03  0.17913817656E+03  0.12000000000E+03 0.  0.
<mgrwt>
<rscale>  0 0.28031658E+03</rscale>
<asrwt>0</asrwt>
<pdfrwt beam="1">  1        4 0.35822058E-01 0.28031658E+03</pdfrwt>
<pdfrwt beam="2">  1       -4 0.12979571E-01 0.28031658E+03</pdfrwt>
<totfact> 0.68916280E+02</totfact>
</mgrwt>
</event>
<event>
 5    1  0.1100736E+001  0.2743302E+03  0.7818608E-02  0.1098827E+00
          3   -1    0    0  501    0  0.00000000000E+00  0.00000000000E+00  0.11873371089E+02  0.11873371089E+02  0.00000000000E+00 0. -1.
         -3   -1    0    0    0  501 -0.00000000000E+00 -0.00000000000E+00 -0.15845760903E+04  0.15845760903E+04  0.00000000000E+00 0. -1.
         35    2    1    2    0    0  0.00000000000E+00  0.00000000000E+00 -0.15727027192E+04  0.15964494614E+04  0.27433016560E+03 0.  0.
         25    1    3    3    0    0 -0.59015467851E+02 -0.30039210693E+02 -0.75496932048E+03  0.76730949069E+03  0.12000000000E+03 0.  0.
         25    1    3    3    0    0  0.59015467851E+02  0.30039210693E+02 -0.81773339875E+03  0.82913997073E+03  0.12000000000E+03 0.  0.
<mgrwt>
<rscale>  0 0.27433017E+03</rscale>
<asrwt>0</asrwt>
<pdfrwt beam="1">  1        3 0.18266723E-02 0.27433017E+03</pdfrwt>
<pdfrwt beam="2">  1       -3 0.24378096E+00 0.27433017E+03</pdfrwt>
<totfact> 0.24590612E+02</totfact>
</mgrwt>
</event>
<event>
 5    1  0.1100736E+001  0.2753925E+03  0.7818608E-02  0.1098232E+00
         -1   -1    0    0    0  501 -0.00000000000E+00  0.00000000000E+00  0.41372009802E+03  0.41372009802E+03  0.00000000000E+00 0.  1.
          1   -1    0    0  501    0  0.00000000000E+00 -0.00000000000E+00 -0.45828716518E+02  0.45828716518E+02  0.00000000000E+00 0.  1.
         35    2    1    2    0    0  0.00000000000E+00  0.00000000000E+00  0.36789138150E+03  0.45954881454E+03  0.27539252778E+03 0.  0.
         25    1    3    3    0    0  0.40837854652E+02  0.35355096288E+02  0.11631582626E+03  0.17563338135E+03  0.12000000000E+03 0.  0.
         25    1    3    3    0    0 -0.40837854652E+02 -0.35355096288E+02  0.25157555524E+03  0.28391543319E+03  0.12000000000E+03 0.  0.
<mgrwt>
<rscale>  0 0.27539253E+03</rscale>
<asrwt>0</asrwt>
<pdfrwt beam="1">  1        1 0.70505720E-02 0.27539253E+03</pdfrwt>
<pdfrwt beam="2">  1       -1 0.63649243E-01 0.27539253E+03</pdfrwt>
<totfact> 0.26712017E+03</totfact>
</mgrwt>
</event>
<event>
 5    1  0.1100736E+001  0.2746732E+03  0.7818608E-02  0.1098634E+00
          2   -1    0    0  501    0  0.00000000000E+00  0.00000000000E+00  0.18459138043E+03  0.18459138043E+03  0.00000000000E+00 0.  1.
         -2   -1    0    0    0  501 -0.00000000000E+00 -0.00000000000E+00 -0.10217888687E+03  0.10217888687E+03  0.00000000000E+00 0.  1.
         35    2    1    2    0    0  0.00000000000E+00  0.00000000000E+00  0.82412493562E+02  0.28677026730E+03  0.27467320057E+03 0.  0.
         25    1    3    3    0    0  0.47681673901E+01 -0.54144801519E+02  0.81735331608E+02  0.15503244623E+03  0.12000000000E+03 0.  0.
         25    1    3    3    0    0 -0.47681673901E+01  0.54144801519E+02  0.67716195433E+00  0.13173782107E+03  0.12000000000E+03 0.  0.
<mgrwt>
<rscale>  0 0.27467320E+03</rscale>
<asrwt>0</asrwt>
<pdfrwt beam="1">  1        2 0.28398674E-01 0.27467320E+03</pdfrwt>
<pdfrwt beam="2">  1       -2 0.15719829E-01 0.27467320E+03</pdfrwt>
<totfact> 0.58564392E+03</totfact>
</mgrwt>
</event>
<event>
 5    1  0.1100736E+001  0.2749833E+03  0.7818608E-02  0.1098461E+00
         -2   -1    0    0    0  501 -0.00000000000E+00  0.00000000000E+00  0.48204284372E+02  0.48204284372E+02  0.00000000000E+00 0. -1.
          2   -1    0    0  501    0  0.00000000000E+00 -0.00000000000E+00 -0.39216324253E+03  0.39216324253E+03  0.00000000000E+00 0. -1.
         35    2    1    2    0    0  0.00000000000E+00  0.00000000000E+00 -0.34395895816E+03  0.44036752691E+03  0.27498326104E+03 0.  0.
         25    1    3    3    0    0  0.56764549071E+02  0.33618942933E+02 -0.19169085465E+03  0.23557977653E+03  0.12000000000E+03 0.  0.
         25    1    3    3    0    0 -0.56764549071E+02 -0.33618942933E+02 -0.15226810351E+03  0.20478775037E+03  0.12000000000E+03 0.  0.
<mgrwt>
<rscale>  0 0.27498326E+03</rscale>
<asrwt>0</asrwt>
<pdfrwt beam="1">  1        2 0.60332811E-01 0.27498326E+03</pdfrwt>
<pdfrwt beam="2">  1       -2 0.74160432E-02 0.27498326E+03</pdfrwt>
<totfact> 0.86296179E+03</totfact>
</mgrwt>
</event>
<event>
 5    1  0.1100736E+001  0.2748437E+03  0.7818608E-02  0.1098539E+00
         -2   -1    0    0    0  501 -0.00000000000E+00  0.00000000000E+00  0.12603605868E+02  0.12603605868E+02  0.00000000000E+00 0.  1.
          2   -1    0    0  501    0  0.00000000000E+00 -0.00000000000E+00 -0.14983621508E+04  0.14983621508E+04  0.00000000000E+00 0.  1.
         35    2    1    2    0    0  0.00000000000E+00  0.00000000000E+00 -0.14857585449E+04  0.15109657566E+04  0.27484370829E+03 0.  0.
         25    1    3    3    0    0 -0.17614611890E+02 -0.47693949304E+02 -0.98249776023E+03  0.99110384734E+03  0.12000000000E+03 0.  0.
         25    1    3    3    0    0  0.17614611890E+02  0.47693949304E+02 -0.50326078465E+03  0.51986190928E+03  0.12000000000E+03 0.  0.
<mgrwt>
<rscale>  0 0.27484371E+03</rscale>
<asrwt>0</asrwt>
<pdfrwt beam="1">  1        2 0.23051736E+00 0.27484371E+03</pdfrwt>
<pdfrwt beam="2">  1       -2 0.19390154E-02 0.27484371E+03</pdfrwt>
<totfact> 0.11062041E+04</totfact>
</mgrwt>
</event>
<event>
 5    1  0.1100736E+001  0.2750809E+03  0.7818608E-02  0.1098406E+00
          2   -1    0    0  501    0  0.00000000000E+00  0.00000000000E+00  0.13175535216E+04  0.13175535216E+04  0.00000000000E+00 0.  1.
         -2   -1    0    0    0  501 -0.00000000000E+00 -0.00000000000E+00 -0.14357952530E+02  0.14357952530E+02  0.00000000000E+00 0.  1.
         35    2    1    2    0    0  0.00000000000E+00  0.00000000000E+00  0.13031955691E+04  0.13319114741E+04  0.27508086752E+03 0.  0.
         25    1    3    3    0    0  0.35831427994E+02 -0.32461674468E+02  0.87765338319E+03  0.88713759506E+03  0.12000000000E+03 0.  0.
         25    1    3    3    0    0 -0.35831427994E+02  0.32461674468E+02  0.42554218587E+03  0.44477387907E+03  0.12000000000E+03 0.  0.
<mgrwt>
<rscale>  0 0.27508087E+03</rscale>
<asrwt>0</asrwt>
<pdfrwt beam="1">  1        2 0.20270045E+00 0.27508087E+03</pdfrwt>
<pdfrwt beam="2">  1       -2 0.22089168E-02 0.27508087E+03</pdfrwt>
<totfact> 0.11445457E+04</totfact>
</mgrwt>
</event>
<event>
 5    1  0.1100736E+001  0.2750581E+03  0.7818608E-02  0.1098419E+00
         -2   -1    0    0    0  501 -0.00000000000E+00  0.00000000000E+00  0.12515357951E+02  0.12515357951E+02  0.00000000000E+00 0.  1.
          2   -1    0    0  501    0  0.00000000000E+00 -0.00000000000E+00 -0.15112822991E+04  0.15112822991E+04  0.00000000000E+00 0.  1.
         35    2    1    2    0    0  0.00000000000E+00  0.00000000000E+00 -0.14987669411E+04  0.15237976570E+04  0.27505809522E+03 0.  0.
         25    1    3    3    0    0  0.24448922948E+00 -0.46279315214E+02 -0.10192178036E+04  0.10273007184E+04  0.12000000000E+03 0.  0.
         25    1    3    3    0    0 -0.24448922948E+00  0.46279315214E+02 -0.47954913751E+03  0.49649693864E+03  0.12000000000E+03 0.  0.
<mgrwt>
<rscale>  0 0.27505810E+03</rscale>
<asrwt>0</asrwt>
<pdfrwt beam="1">  1        2 0.23250491E+00 0.27505810E+03</pdfrwt>
<pdfrwt beam="2">  1       -2 0.19254402E-02 0.27505810E+03</pdfrwt>
<totfact> 0.11000602E+04</totfact>
</mgrwt>
</event>
<event>
 5    1  0.1100736E+001  0.2752119E+03  0.7818608E-02  0.1098333E+00
          1   -1    0    0  501    0  0.00000000000E+00  0.00000000000E+00  0.57181449181E+03  0.57181449181E+03  0.00000000000E+00 0. -1.
         -1   -1    0    0    0  501 -0.00000000000E+00 -0.00000000000E+00 -0.33114574218E+02  0.33114574218E+02  0.00000000000E+00 0. -1.
         35    2    1    2    0    0  0.00000000000E+00  0.00000000000E+00  0.53869991759E+03  0.60492906603E+03  0.27521187058E+03 0.  0.
         25    1    3    3    0    0  0.25151968981E+02 -0.33491630659E+01  0.13223056772E+03  0.18035731611E+03  0.12000000000E+03 0.  0.
         25    1    3    3    0    0 -0.25151968981E+02  0.33491630659E+01  0.40646934988E+03  0.42457174991E+03  0.12000000000E+03 0.  0.
<mgrwt>
<rscale>  0 0.27521187E+03</rscale>
<asrwt>0</asrwt>
<pdfrwt beam="1">  1        1 0.87971453E-01 0.27521187E+03</pdfrwt>
<pdfrwt beam="2">  1       -1 0.50945503E-02 0.27521187E+03</pdfrwt>
<totfact> 0.64096529E+03</totfact>
</mgrwt>
</event>
<event>
 5    1  0.1100736E+001  0.2751749E+03  0.7818608E-02  0.1098354E+00
         -2   -1    0    0    0  501 -0.00000000000E+00  0.00000000000E+00  0.56641598863E+02  0.56641598863E+02  0.00000000000E+00 0. -1.
          2   -1    0    0  501    0  0.00000000000E+00 -0.00000000000E+00 -0.33421203043E+03  0.33421203043E+03  0.00000000000E+00 0. -1.
         35    2    1    2    0    0  0.00000000000E+00  0.00000000000E+00 -0.27757043157E+03  0.39085362930E+03  0.27517488085E+03 0.  0.
         25    1    3    3    0    0 -0.17362881173E+02 -0.44441808282E+02 -0.20621614986E+03  0.24331388047E+03  0.12000000000E+03 0.  0.
         25    1    3    3    0    0  0.17362881173E+02  0.44441808282E+02 -0.71354281713E+02  0.14753974883E+03  0.12000000000E+03 0.  0.
<mgrwt>
<rscale>  0 0.27517488E+03</rscale>
<asrwt>0</asrwt>
<pdfrwt beam="1">  1        2 0.51417235E-01 0.27517488E+03</pdfrwt>
<pdfrwt beam="2">  1       -2 0.87140922E-02 0.27517488E+03</pdfrwt>
<totfact> 0.79723806E+03</totfact>
</mgrwt>
</event>
<event>
 5    1  0.1100736E+001  0.2751680E+03  0.7818608E-02  0.1098358E+00
          2   -1    0    0  501    0  0.00000000000E+00  0.00000000000E+00  0.33444349097E+03  0.33444349097E+03  0.00000000000E+00 0.  1.
         -2   -1    0    0    0  501 -0.00000000000E+00 -0.00000000000E+00 -0.56599559248E+02  0.56599559248E+02  0.00000000000E+00 0.  1.
         35    2    1    2    0    0  0.00000000000E+00  0.00000000000E+00  0.27784393172E+03  0.39104305021E+03  0.27516797911E+03 0.  0.
         25    1    3    3    0    0 -0.10035248399E+02 -0.65377399314E+02  0.15658281899E+03  0.20806991554E+03  0.12000000000E+03 0.  0.
         25    1    3    3    0    0  0.10035248399E+02  0.65377399314E+02  0.12126111273E+03  0.18297313467E+03  0.12000000000E+03 0.  0.
<mgrwt>
<rscale>  0 0.27516798E+03</rscale>
<asrwt>0</asrwt>
<pdfrwt beam="1">  1        2 0.51452843E-01 0.27516798E+03</pdfrwt>
<pdfrwt beam="2">  1       -2 0.87076247E-02 0.27516798E+03</pdfrwt>
<totfact> 0.79757307E+03</totfact>
</mgrwt>
</event>
<event>
 5    1  0.1100736E+001  0.2755110E+03  0.7818608E-02  0.1098166E+00
         -2   -1    0    0    0  501 -0.00000000000E+00  0.00000000000E+00  0.85365641563E+01  0.85365641563E+01  0.00000000000E+00 0.  1.
          2   -1    0    0  501    0  0.00000000000E+00 -0.00000000000E+00 -0.22229768366E+04  0.22229768366E+04  0.00000000000E+00 0.  1.
         35    2    1    2    0    0  0.00000000000E+00  0.00000000000E+00 -0.22144402724E+04  0.22315134007E+04  0.27551104793E+03 0.  0.
         25    1    3    3    0    0  0.22142735083E+02  0.34432746796E+02 -0.67099607834E+03  0.68287015743E+03  0.12000000000E+03 0.  0.
         25    1    3    3    0    0 -0.22142735083E+02 -0.34432746796E+02 -0.15434441941E+04  0.15486432433E+04  0.12000000000E+03 0.  0.
<mgrwt>
<rscale>  0 0.27551105E+03</rscale>
<asrwt>0</asrwt>
<pdfrwt beam="1">  1        2 0.34199636E+00 0.27551105E+03</pdfrwt>
<pdfrwt beam="2">  1       -2 0.13133178E-02 0.27551105E+03</pdfrwt>
<totfact> 0.81124287E+03</totfact>
</mgrwt>
</event>
<event>
 5    1  0.1100736E+001  0.2750056E+03  0.7818608E-02  0.1098448E+00
         -2   -1    0    0    0  501 -0.00000000000E+00  0.00000000000E+00  0.30884068333E+02  0.30884068333E+02  0.00000000000E+00 0. -1.
          2   -1    0    0  501    0  0.00000000000E+00 -0.00000000000E+00 -0.61219309286E+03  0.61219309286E+03  0.00000000000E+00 0. -1.
         35    2    1    2    0    0  0.00000000000E+00  0.00000000000E+00 -0.58130902453E+03  0.64307716119E+03  0.27500555131E+03 0.  0.
         25    1    3    3    0    0  0.56978486972E+00 -0.35497231237E+02 -0.15741336179E+03  0.20109536184E+03  0.12000000000E+03 0.  0.
         25    1    3    3    0    0 -0.56978486972E+00  0.35497231237E+02 -0.42389566273E+03  0.44198179936E+03  0.12000000000E+03 0.  0.
<mgrwt>
<rscale>  0 0.27500555E+03</rscale>
<asrwt>0</asrwt>
<pdfrwt beam="1">  1        2 0.94183544E-01 0.27500555E+03</pdfrwt>
<pdfrwt beam="2">  1       -2 0.47513956E-02 0.27500555E+03</pdfrwt>
<totfact> 0.10380362E+04</totfact>
</mgrwt>
</event>
<event>
 5    1  0.1100736E+001  0.2752313E+03  0.7818608E-02  0.1098322E+00
          2   -1    0    0  501    0  0.00000000000E+00  0.00000000000E+00  0.11750687623E+04  0.11750687623E+04  0.00000000000E+00 0. -1.
         -2   -1    0    0    0  501 -0.00000000000E+00 -0.00000000000E+00 -0.16116560167E+02  0.16116560167E+02  0.00000000000E+00 0. -1.
         35    2    1    2    0    0  0.00000000000E+00  0.00000000000E+00  0.11589522021E+04  0.11911853224E+04  0.27523129479E+03 0.  0.
         25    1    3    3    0    0 -0.38426187582E+02  0.21462391841E+02  0.35875694389E+03  0.38084609877E+03  0.12000000000E+03 0.  0.
         25    1    3    3    0    0  0.38426187582E+02 -0.21462391841E+02  0.80019525822E+03  0.81033922368E+03  0.12000000000E+03 0.  0.
<mgrwt>
<rscale>  0 0.27523129E+03</rscale>
<asrwt>0</asrwt>
<pdfrwt beam="1">  1        2 0.18077974E+00 0.27523129E+03</pdfrwt>
<pdfrwt beam="2">  1       -2 0.24794717E-02 0.27523129E+03</pdfrwt>
<totfact> 0.11601264E+04</totfact>
</mgrwt>
</event>
<event>
 5    1  0.1100736E+001  0.2749503E+03  0.7818608E-02  0.1098479E+00
         -3   -1    0    0    0  501 -0.00000000000E+00  0.00000000000E+00  0.47656605993E+03  0.47656605993E+03  0.00000000000E+00 0. -1.
          3   -1    0    0  501    0  0.00000000000E+00 -0.00000000000E+00 -0.39657483015E+02  0.39657483015E+02  0.00000000000E+00 0. -1.
         35    2    1    2    0    0  0.00000000000E+00  0.00000000000E+00  0.43690857691E+03  0.51622354294E+03  0.27495025315E+03 0.  0.
         25    1    3    3    0    0 -0.50556527182E+02 -0.13698011091E+02  0.13978182509E+03  0.19152690823E+03  0.12000000000E+03 0.  0.
         25    1    3    3    0    0  0.50556527182E+02  0.13698011091E+02  0.29712675182E+03  0.32469663472E+03  0.12000000000E+03 0.  0.
<mgrwt>
<rscale>  0 0.27495025E+03</rscale>
<asrwt>0</asrwt>
<pdfrwt beam="1">  1        3 0.61011515E-02 0.27495025E+03</pdfrwt>
<pdfrwt beam="2">  1       -3 0.73317852E-01 0.27495025E+03</pdfrwt>
<totfact> 0.75840603E+02</totfact>
</mgrwt>
</event>
<event>
 5    1  0.1100736E+001  0.2751291E+03  0.7818608E-02  0.1098379E+00
         -1   -1    0    0    0  501 -0.00000000000E+00  0.00000000000E+00  0.96010756195E+01  0.96010756195E+01  0.00000000000E+00 0. -1.
          1   -1    0    0  501    0  0.00000000000E+00 -0.00000000000E+00 -0.19710303283E+04  0.19710303283E+04  0.00000000000E+00 0. -1.
         35    2    1    2    0    0  0.00000000000E+00  0.00000000000E+00 -0.19614292527E+04  0.19806314040E+04  0.27512914226E+03 0.  0.
         25    1    3    3    0    0 -0.34786689729E+02 -0.57535250719E+02 -0.96707012136E+03  0.97680347997E+03  0.12000000000E+03 0.  0.
         25    1    3    3    0    0  0.34786689729E+02  0.57535250719E+02 -0.99435913136E+03  0.10038279240E+04  0.12000000000E+03 0.  0.
<mgrwt>
<rscale>  0 0.27512914E+03</rscale>
<asrwt>0</asrwt>
<pdfrwt beam="1">  1        1 0.30323570E+00 0.27512914E+03</pdfrwt>
<pdfrwt beam="2">  1       -1 0.14770873E-02 0.27512914E+03</pdfrwt>
<totfact> 0.37605734E+03</totfact>
</mgrwt>
</event>
<event>
 5    1  0.1100736E+001  0.2746306E+03  0.7818608E-02  0.1098658E+00
         -1   -1    0    0    0  501 -0.00000000000E+00  0.00000000000E+00  0.79133313941E+02  0.79133313941E+02  0.00000000000E+00 0. -1.
          1   -1    0    0  501    0  0.00000000000E+00 -0.00000000000E+00 -0.23827503857E+03  0.23827503857E+03  0.00000000000E+00 0. -1.
         35    2    1    2    0    0  0.00000000000E+00  0.00000000000E+00 -0.15914172463E+03  0.31740835252E+03  0.27463061324E+03 0.  0.
         25    1    3    3    0    0  0.61838556703E+02 -0.12458665253E+02 -0.54347957320E+02  0.14605795391E+03  0.12000000000E+03 0.  0.
         25    1    3    3    0    0 -0.61838556703E+02  0.12458665253E+02 -0.10479376731E+03  0.17135039861E+03  0.12000000000E+03 0.  0.
<mgrwt>
<rscale>  0 0.27463061E+03</rscale>
<asrwt>0</asrwt>
<pdfrwt beam="1">  1        1 0.36657697E-01 0.27463061E+03</pdfrwt>
<pdfrwt beam="2">  1       -1 0.12174356E-01 0.27463061E+03</pdfrwt>
<totfact> 0.52198891E+03</totfact>
</mgrwt>
</event>
<event>
 5    1  0.1100736E+001  0.2757153E+03  0.7818608E-02  0.1098052E+00
          1   -1    0    0  501    0  0.00000000000E+00  0.00000000000E+00  0.20060956845E+03  0.20060956845E+03  0.00000000000E+00 0.  1.
         -1   -1    0    0    0  501 -0.00000000000E+00 -0.00000000000E+00 -0.94734942339E+02  0.94734942339E+02  0.00000000000E+00 0.  1.
         35    2    1    2    0    0  0.00000000000E+00  0.00000000000E+00  0.10587462611E+03  0.29534451079E+03  0.27571533073E+03 0.  0.
         25    1    3    3    0    0 -0.30761154900E+02  0.48370951967E+01 -0.11646778932E+02  0.12452025378E+03  0.12000000000E+03 0.  0.
         25    1    3    3    0    0  0.30761154900E+02 -0.48370951967E+01  0.11752140504E+03  0.17082425701E+03  0.12000000000E+03 0.  0.
<mgrwt>
<rscale>  0 0.27571533E+03</rscale>
<asrwt>0</asrwt>
<pdfrwt beam="1">  1        1 0.30863010E-01 0.27571533E+03</pdfrwt>
<pdfrwt beam="2">  1       -1 0.14574607E-01 0.27571533E+03</pdfrwt>
<totfact> 0.48838230E+03</totfact>
</mgrwt>
</event>
<event>
 5    1  0.1100736E+001  0.2751551E+03  0.7818608E-02  0.1098365E+00
         -2   -1    0    0    0  501 -0.00000000000E+00  0.00000000000E+00  0.29762727247E+02  0.29762727247E+02  0.00000000000E+00 0.  1.
          2   -1    0    0  501    0  0.00000000000E+00 -0.00000000000E+00 -0.63594926490E+03  0.63594926490E+03  0.00000000000E+00 0.  1.
         35    2    1    2    0    0  0.00000000000E+00  0.00000000000E+00 -0.60618653765E+03  0.66571199214E+03  0.27515511635E+03 0.  0.
         25    1    3    3    0    0 -0.97327042397E+00  0.50409015702E+02 -0.41090132445E+03  0.43102426214E+03  0.12000000000E+03 0.  0.
         25    1    3    3    0    0  0.97327042397E+00 -0.50409015702E+02 -0.19528521320E+03  0.23468773000E+03  0.12000000000E+03 0.  0.
<mgrwt>
<rscale>  0 0.27515512E+03</rscale>
<asrwt>0</asrwt>
<pdfrwt beam="1">  1        2 0.97838340E-01 0.27515512E+03</pdfrwt>
<pdfrwt beam="2">  1       -2 0.45788815E-02 0.27515512E+03</pdfrwt>
<totfact> 0.10499024E+04</totfact>
</mgrwt>
</event>
<event>
 5    1  0.1100736E+001  0.2723957E+03  0.7818608E-02  0.1099916E+00
          2   -1    0    0  501    0  0.00000000000E+00  0.00000000000E+00  0.66511896255E+03  0.66511896255E+03  0.00000000000E+00 0. -1.
         -2   -1    0    0    0  501 -0.00000000000E+00 -0.00000000000E+00 -0.27889536294E+02  0.27889536294E+02  0.00000000000E+00 0. -1.
         35    2    1    2    0    0  0.00000000000E+00  0.00000000000E+00  0.63722942626E+03  0.69300849884E+03  0.27239573745E+03 0.  0.
         25    1    3    3    0    0 -0.32242931138E+02  0.55269511614E+02  0.33757380064E+03  0.36393735231E+03  0.12000000000E+03 0.  0.
         25    1    3    3    0    0  0.32242931138E+02 -0.55269511614E+02  0.29965562561E+03  0.32907114654E+03  0.12000000000E+03 0.  0.
<mgrwt>
<rscale>  0 0.27239574E+03</rscale>
<asrwt>0</asrwt>
<pdfrwt beam="1">  1        2 0.10232598E+00 0.27239574E+03</pdfrwt>
<pdfrwt beam="2">  1       -2 0.42906984E-02 0.27239574E+03</pdfrwt>
<totfact> 0.10978138E+04</totfact>
</mgrwt>
</event>
<event>
 5    1  0.1100736E+001  0.2749769E+03  0.7818608E-02  0.1098465E+00
          1   -1    0    0  501    0  0.00000000000E+00  0.00000000000E+00  0.65403292508E+03  0.65403292508E+03  0.00000000000E+00 0.  1.
         -1   -1    0    0    0  501 -0.00000000000E+00 -0.00000000000E+00 -0.28902328382E+02  0.28902328382E+02  0.00000000000E+00 0.  1.
         35    2    1    2    0    0  0.00000000000E+00  0.00000000000E+00  0.62513059670E+03  0.68293525346E+03  0.27497690356E+03 0.  0.
         25    1    3    3    0    0 -0.58015482289E+02  0.31013211880E+02  0.34546341131E+03  0.37158119442E+03  0.12000000000E+03 0.  0.
         25    1    3    3    0    0  0.58015482289E+02 -0.31013211880E+02  0.27966718539E+03  0.31135405904E+03  0.12000000000E+03 0.  0.
<mgrwt>
<rscale>  0 0.27497690E+03</rscale>
<asrwt>0</asrwt>
<pdfrwt beam="1">  1        1 0.10062044E+00 0.27497690E+03</pdfrwt>
<pdfrwt beam="2">  1       -1 0.44465125E-02 0.27497690E+03</pdfrwt>
<totfact> 0.65115896E+03</totfact>
</mgrwt>
</event>
<event>
 5    1  0.1100736E+001  0.2752903E+03  0.7818608E-02  0.1098289E+00
         -1   -1    0    0    0  501 -0.00000000000E+00  0.00000000000E+00  0.60489233356E+03  0.60489233356E+03  0.00000000000E+00 0.  1.
          1   -1    0    0  501    0  0.00000000000E+00 -0.00000000000E+00 -0.31321597285E+02  0.31321597285E+02  0.00000000000E+00 0.  1.
         35    2    1    2    0    0  0.00000000000E+00  0.00000000000E+00  0.57357073628E+03  0.63621393085E+03  0.27529034907E+03 0.  0.
         25    1    3    3    0    0 -0.43173864453E+02 -0.29731453371E+02  0.38478794290E+03  0.40645996469E+03  0.12000000000E+03 0.  0.
         25    1    3    3    0    0  0.43173864453E+02  0.29731453371E+02  0.18878279337E+03  0.22975396616E+03  0.12000000000E+03 0.  0.
<mgrwt>
<rscale>  0 0.27529035E+03</rscale>
<asrwt>0</asrwt>
<pdfrwt beam="1">  1        1 0.48187077E-02 0.27529035E+03</pdfrwt>
<pdfrwt beam="2">  1       -1 0.93060350E-01 0.27529035E+03</pdfrwt>
<totfact> 0.20680592E+03</totfact>
</mgrwt>
</event>
<event>
 5    1  0.1100736E+001  0.2749716E+03  0.7818608E-02  0.1098467E+00
          1   -1    0    0  501    0  0.00000000000E+00  0.00000000000E+00  0.11291827416E+04  0.11291827416E+04  0.00000000000E+00 0. -1.
         -1   -1    0    0    0  501 -0.00000000000E+00 -0.00000000000E+00 -0.16739844389E+02  0.16739844389E+02  0.00000000000E+00 0. -1.
         35    2    1    2    0    0  0.00000000000E+00  0.00000000000E+00  0.11124428972E+04  0.11459225860E+04  0.27497158676E+03 0.  0.
         25    1    3    3    0    0 -0.62356062854E+02  0.19587406402E+02  0.61947823301E+03  0.63436994430E+03  0.12000000000E+03 0.  0.
         25    1    3    3    0    0  0.62356062854E+02 -0.19587406402E+02  0.49296466424E+03  0.51155264172E+03  0.12000000000E+03 0.  0.
<mgrwt>
<rscale>  0 0.27497159E+03</rscale>
<asrwt>0</asrwt>
<pdfrwt beam="1">  1        1 0.17372036E+00 0.27497159E+03</pdfrwt>
<pdfrwt beam="2">  1       -1 0.25753616E-02 0.27497159E+03</pdfrwt>
<totfact> 0.60743041E+03</totfact>
</mgrwt>
</event>
<event>
 5    1  0.1100736E+001  0.2693780E+03  0.7818608E-02  0.1101636E+00
         -2   -1    0    0    0  501 -0.00000000000E+00  0.00000000000E+00  0.62718379822E+01  0.62718379822E+01  0.00000000000E+00 0. -1.
          2   -1    0    0  501    0  0.00000000000E+00 -0.00000000000E+00 -0.28924734840E+04  0.28924734840E+04  0.00000000000E+00 0. -1.
         35    2    1    2    0    0  0.00000000000E+00  0.00000000000E+00 -0.28862016460E+04  0.28987453219E+04  0.26937798766E+03 0.  0.
         25    1    3    3    0    0  0.35256408766E+02  0.36942980842E+02 -0.10808365140E+04  0.10886759702E+04  0.12000000000E+03 0.  0.
         25    1    3    3    0    0 -0.35256408766E+02 -0.36942980842E+02 -0.18053651320E+04  0.18100693517E+04  0.12000000000E+03 0.  0.
<mgrwt>
<rscale>  0 0.26937799E+03</rscale>
<asrwt>0</asrwt>
<pdfrwt beam="1">  1        2 0.44499696E+00 0.26937799E+03</pdfrwt>
<pdfrwt beam="2">  1       -2 0.96489590E-03 0.26937799E+03</pdfrwt>
<totfact> 0.54128828E+03</totfact>
</mgrwt>
</event>
<event>
 5    1  0.1100736E+001  0.2755256E+03  0.7818608E-02  0.1098158E+00
          2   -1    0    0  501    0  0.00000000000E+00  0.00000000000E+00  0.19687525415E+04  0.19687525415E+04  0.00000000000E+00 0.  1.
         -2   -1    0    0    0  501 -0.00000000000E+00 -0.00000000000E+00 -0.96399057443E+01  0.96399057443E+01  0.00000000000E+00 0.  1.
         35    2    1    2    0    0  0.00000000000E+00  0.00000000000E+00  0.19591126357E+04  0.19783924472E+04  0.27552559905E+03 0.  0.
         25    1    3    3    0    0 -0.42389680469E+02 -0.48938916493E+02  0.11207547666E+04  0.11290186665E+04  0.12000000000E+03 0.  0.
         25    1    3    3    0    0  0.42389680469E+02  0.48938916493E+02  0.83835786912E+03  0.84937378066E+03  0.12000000000E+03 0.  0.
<mgrwt>
<rscale>  0 0.27552560E+03</rscale>
<asrwt>0</asrwt>
<pdfrwt beam="1">  1        2 0.30288469E+00 0.27552560E+03</pdfrwt>
<pdfrwt beam="2">  1       -2 0.14830640E-02 0.27552560E+03</pdfrwt>
<totfact> 0.92563513E+03</totfact>
</mgrwt>
</event>
<event>
 5    1  0.1100736E+001  0.2750182E+03  0.7818608E-02  0.1098441E+00
          2   -1    0    0  501    0  0.00000000000E+00  0.00000000000E+00  0.14049541244E+04  0.14049541244E+04  0.00000000000E+00 0.  1.
         -2   -1    0    0    0  501 -0.00000000000E+00 -0.00000000000E+00 -0.13458628776E+02  0.13458628776E+02  0.00000000000E+00 0.  1.
         35    2    1    2    0    0  0.00000000000E+00  0.00000000000E+00  0.13914954956E+04  0.14184127532E+04  0.27501822491E+03 0.  0.
         25    1    3    3    0    0 -0.27277416309E+02  0.35025594778E+02  0.43592394023E+03  0.45431325249E+03  0.12000000000E+03 0.  0.
         25    1    3    3    0    0  0.27277416309E+02 -0.35025594778E+02  0.95557155538E+03  0.96409950067E+03  0.12000000000E+03 0.  0.
<mgrwt>
<rscale>  0 0.27501822E+03</rscale>
<asrwt>0</asrwt>
<pdfrwt beam="1">  1        2 0.21614667E+00 0.27501822E+03</pdfrwt>
<pdfrwt beam="2">  1       -2 0.20705594E-02 0.27501822E+03</pdfrwt>
<totfact> 0.11277906E+04</totfact>
</mgrwt>
</event>
<event>
 5    1  0.1100736E+001  0.2753846E+03  0.7818608E-02  0.1098237E+00
          4   -1    0    0  501    0  0.00000000000E+00  0.00000000000E+00  0.65933561518E+03  0.65933561518E+03  0.00000000000E+00 0.  1.
         -4   -1    0    0    0  501 -0.00000000000E+00 -0.00000000000E+00 -0.28754959944E+02  0.28754959944E+02  0.00000000000E+00 0.  1.
         35    2    1    2    0    0  0.00000000000E+00  0.00000000000E+00  0.63058065524E+03  0.68809057513E+03  0.27538459800E+03 0.  0.
         25    1    3    3    0    0 -0.22287484083E+02 -0.34972567350E+02  0.44843259445E+03  0.46605965732E+03  0.12000000000E+03 0.  0.
         25    1    3    3    0    0  0.22287484083E+02  0.34972567350E+02  0.18214806079E+03  0.22203091781E+03  0.12000000000E+03 0.  0.
<mgrwt>
<rscale>  0 0.27538460E+03</rscale>
<asrwt>0</asrwt>
<pdfrwt beam="1">  1        4 0.10143624E+00 0.27538460E+03</pdfrwt>
<pdfrwt beam="2">  1       -4 0.44238405E-02 0.27538460E+03</pdfrwt>
<totfact> 0.45002290E+02</totfact>
</mgrwt>
</event>
<event>
 5    1  0.1100736E+001  0.2745885E+03  0.7818608E-02  0.1098682E+00
          2   -1    0    0  501    0  0.00000000000E+00  0.00000000000E+00  0.17993749267E+04  0.17993749267E+04  0.00000000000E+00 0.  1.
         -2   -1    0    0    0  501 -0.00000000000E+00 -0.00000000000E+00 -0.10475699849E+02  0.10475699849E+02  0.00000000000E+00 0.  1.
         35    2    1    2    0    0  0.00000000000E+00  0.00000000000E+00  0.17888992269E+04  0.18098506266E+04  0.27458850412E+03 0.  0.
         25    1    3    3    0    0 -0.32213313957E+02  0.14705567179E+02  0.52184563897E+03  0.53663471954E+03  0.12000000000E+03 0.  0.
         25    1    3    3    0    0  0.32213313957E+02 -0.14705567179E+02  0.12670535879E+04  0.12732159071E+04  0.12000000000E+03 0.  0.
<mgrwt>
<rscale>  0 0.27458850E+03</rscale>
<asrwt>0</asrwt>
<pdfrwt beam="1">  1        2 0.27682667E+00 0.27458850E+03</pdfrwt>
<pdfrwt beam="2">  1       -2 0.16116476E-02 0.27458850E+03</pdfrwt>
<totfact> 0.10057691E+04</totfact>
</mgrwt>
</event>
<event>
 5    1  0.1100736E+001  0.2749345E+03  0.7818608E-02  0.1098488E+00
          2   -1    0    0  501    0  0.00000000000E+00  0.00000000000E+00  0.88007327454E+03  0.88007327454E+03  0.00000000000E+00 0. -1.
         -2   -1    0    0    0  501 -0.00000000000E+00 -0.00000000000E+00 -0.21472361287E+02  0.21472361287E+02  0.00000000000E+00 0. -1.
         35    2    1    2    0    0  0.00000000000E+00  0.00000000000E+00  0.85860091325E+03  0.90154563582E+03  0.27493454719E+03 0.  0.
         25    1    3    3    0    0  0.48534353151E+01  0.66828951571E+02  0.43833248050E+03  0.45937460538E+03  0.12000000000E+03 0.  0.
         25    1    3    3    0    0 -0.48534353151E+01 -0.66828951571E+02  0.42026843275E+03  0.44217103045E+03  0.12000000000E+03 0.  0.
<mgrwt>
<rscale>  0 0.27493455E+03</rscale>
<asrwt>0</asrwt>
<pdfrwt beam="1">  1        2 0.13539586E+00 0.27493455E+03</pdfrwt>
<pdfrwt beam="2">  1       -2 0.33034409E-02 0.27493455E+03</pdfrwt>
<totfact> 0.11443734E+04</totfact>
</mgrwt>
</event>
<event>
 5    1  0.1100736E+001  0.2748619E+03  0.7818608E-02  0.1098529E+00
          2   -1    0    0  501    0  0.00000000000E+00  0.00000000000E+00  0.10586956319E+03  0.10586956319E+03  0.00000000000E+00 0.  1.
         -2   -1    0    0    0  501 -0.00000000000E+00 -0.00000000000E+00 -0.17840128402E+03  0.17840128402E+03  0.00000000000E+00 0.  1.
         35    2    1    2    0    0  0.00000000000E+00  0.00000000000E+00 -0.72531720832E+02  0.28427084721E+03  0.27486189995E+03 0.  0.
         25    1    3    3    0    0 -0.32291824320E+02 -0.50859629909E+02 -0.66556702164E+02  0.14986413339E+03  0.12000000000E+03 0.  0.
         25    1    3    3    0    0  0.32291824320E+02  0.50859629909E+02 -0.59750186676E+01  0.13440671382E+03  0.12000000000E+03 0.  0.
<mgrwt>
<rscale>  0 0.27486190E+03</rscale>
<asrwt>0</asrwt>
<pdfrwt beam="1">  1        2 0.16287625E-01 0.27486190E+03</pdfrwt>
<pdfrwt beam="2">  1       -2 0.27446351E-01 0.27486190E+03</pdfrwt>
<totfact> 0.42222740E+03</totfact>
</mgrwt>
</event>
<event>
 5    1  0.1100736E+001  0.2751870E+03  0.7818608E-02  0.1098347E+00
         -2   -1    0    0    0  501 -0.00000000000E+00  0.00000000000E+00  0.65052258416E+02  0.65052258416E+02  0.00000000000E+00 0. -1.
          2   -1    0    0  501    0  0.00000000000E+00 -0.00000000000E+00 -0.29102702097E+03  0.29102702097E+03  0.00000000000E+00 0. -1.
         35    2    1    2    0    0  0.00000000000E+00  0.00000000000E+00 -0.22597476255E+03  0.35607927939E+03  0.27518695444E+03 0.  0.
         25    1    3    3    0    0 -0.25042466808E+02 -0.34405019485E+02 -0.45488921644E+02  0.13520381837E+03  0.12000000000E+03 0.  0.
         25    1    3    3    0    0  0.25042466808E+02  0.34405019485E+02 -0.18048584091E+03  0.22087546102E+03  0.12000000000E+03 0.  0.
<mgrwt>
<rscale>  0 0.27518695E+03</rscale>
<asrwt>0</asrwt>
<pdfrwt beam="1">  1        2 0.44773389E-01 0.27518695E+03</pdfrwt>
<pdfrwt beam="2">  1       -2 0.10008040E-01 0.27518695E+03</pdfrwt>
<totfact> 0.74335709E+03</totfact>
</mgrwt>
</event>
<event>
 5    1  0.1100736E+001  0.2749277E+03  0.7818608E-02  0.1098492E+00
         -2   -1    0    0    0  501 -0.00000000000E+00  0.00000000000E+00  0.34594250020E+03  0.34594250020E+03  0.00000000000E+00 0. -1.
          2   -1    0    0  501    0  0.00000000000E+00 -0.00000000000E+00 -0.54622693877E+02  0.54622693877E+02  0.00000000000E+00 0. -1.
         35    2    1    2    0    0  0.00000000000E+00  0.00000000000E+00  0.29131980632E+03  0.40056519408E+03  0.27492770895E+03 0.  0.
         25    1    3    3    0    0  0.40687810923E+02 -0.44643586845E+02  0.18808199207E+03  0.23113498987E+03  0.12000000000E+03 0.  0.
         25    1    3    3    0    0 -0.40687810923E+02  0.44643586845E+02  0.10323781426E+03  0.16943020420E+03  0.12000000000E+03 0.  0.
<mgrwt>
<rscale>  0 0.27492771E+03</rscale>
<asrwt>0</asrwt>
<pdfrwt beam="1">  1        2 0.84034916E-02 0.27492771E+03</pdfrwt>
<pdfrwt beam="2">  1       -2 0.53221922E-01 0.27492771E+03</pdfrwt>
<totfact> 0.26941434E+03</totfact>
</mgrwt>
</event>
<event>
 5    1  0.1100736E+001  0.2711313E+03  0.7818608E-02  0.1100634E+00
          2   -1    0    0  501    0  0.00000000000E+00  0.00000000000E+00  0.29731822076E+03  0.29731822076E+03  0.00000000000E+00 0. -1.
         -2   -1    0    0    0  501 -0.00000000000E+00 -0.00000000000E+00 -0.61812717102E+02  0.61812717102E+02  0.00000000000E+00 0. -1.
         35    2    1    2    0    0  0.00000000000E+00  0.00000000000E+00  0.23550550366E+03  0.35913093786E+03  0.27113131187E+03 0.  0.
         25    1    3    3    0    0  0.19875664918E+02 -0.36007846370E+02  0.18108910449E+03  0.22109923297E+03  0.12000000000E+03 0.  0.
         25    1    3    3    0    0 -0.19875664918E+02  0.36007846370E+02  0.54416399167E+02  0.13803170489E+03  0.12000000000E+03 0.  0.
<mgrwt>
<rscale>  0 0.27113131E+03</rscale>
<asrwt>0</asrwt>
<pdfrwt beam="1">  1        2 0.45741264E-01 0.27113131E+03</pdfrwt>
<pdfrwt beam="2">  1       -2 0.95096490E-02 0.27113131E+03</pdfrwt>
<totfact> 0.78731115E+03</totfact>
</mgrwt>
</event>
<event>
 5    1  0.1100736E+001  0.2763948E+03  0.7818608E-02  0.1097674E+00
          3   -1    0    0  501    0  0.00000000000E+00  0.00000000000E+00  0.28347705294E+02  0.28347705294E+02  0.00000000000E+00 0. -1.
         -3   -1    0    0    0  501 -0.00000000000E+00 -0.00000000000E+00 -0.67372371130E+03  0.67372371130E+03  0.00000000000E+00 0. -1.
         35    2    1    2    0    0  0.00000000000E+00  0.00000000000E+00 -0.64537600601E+03  0.70207141659E+03  0.27639479892E+03 0.  0.
         25    1    3    3    0    0 -0.64495752985E+02  0.22612399203E+00 -0.38164729975E+03  0.40523377783E+03  0.12000000000E+03 0.  0.
         25    1    3    3    0    0  0.64495752985E+02 -0.22612399203E+00 -0.26372870626E+03  0.29683763877E+03  0.12000000000E+03 0.  0.
<mgrwt>
<rscale>  0 0.27639480E+03</rscale>
<asrwt>0</asrwt>
<pdfrwt beam="1">  1        3 0.43611855E-02 0.27639480E+03</pdfrwt>
<pdfrwt beam="2">  1       -3 0.10364980E+00 0.27639480E+03</pdfrwt>
<totfact> 0.59913012E+02</totfact>
</mgrwt>
</event>
<event>
 5    1  0.1100736E+001  0.2749777E+03  0.7818608E-02  0.1098464E+00
          1   -1    0    0  501    0  0.00000000000E+00  0.00000000000E+00  0.11837712609E+04  0.11837712609E+04  0.00000000000E+00 0. -1.
         -1   -1    0    0    0  501 -0.00000000000E+00 -0.00000000000E+00 -0.15968608204E+02  0.15968608204E+02  0.00000000000E+00 0. -1.
         35    2    1    2    0    0  0.00000000000E+00  0.00000000000E+00  0.11678026527E+04  0.11997398691E+04  0.27497766795E+03 0.  0.
         25    1    3    3    0    0  0.33432132331E+02  0.56028772765E+02  0.65236758051E+03  0.66651360898E+03  0.12000000000E+03 0.  0.
         25    1    3    3    0    0 -0.33432132331E+02 -0.56028772765E+02  0.51543507217E+03  0.53322626011E+03  0.12000000000E+03 0.  0.
<mgrwt>
<rscale>  0 0.27497767E+03</rscale>
<asrwt>0</asrwt>
<pdfrwt beam="1">  1        1 0.18211859E+00 0.27497767E+03</pdfrwt>
<pdfrwt beam="2">  1       -1 0.24567099E-02 0.27497767E+03</pdfrwt>
<totfact> 0.59556781E+03</totfact>
</mgrwt>
</event>
<event>
 5    1  0.1100736E+001  0.2755971E+03  0.7818608E-02  0.1098118E+00
          2   -1    0    0  501    0  0.00000000000E+00  0.00000000000E+00  0.55647296370E+03  0.55647296370E+03  0.00000000000E+00 0. -1.
         -2   -1    0    0    0  501 -0.00000000000E+00 -0.00000000000E+00 -0.34122845559E+02  0.34122845559E+02  0.00000000000E+00 0. -1.
         35    2    1    2    0    0  0.00000000000E+00  0.00000000000E+00  0.52235011814E+03  0.59059580926E+03  0.27559710447E+03 0.  0.
         25    1    3    3    0    0 -0.30661255762E+02  0.31880718963E+02  0.37111471549E+03  0.39253359716E+03  0.12000000000E+03 0.  0.
         25    1    3    3    0    0  0.30661255762E+02 -0.31880718963E+02  0.15123540265E+03  0.19806221210E+03  0.12000000000E+03 0.  0.
<mgrwt>
<rscale>  0 0.27559710E+03</rscale>
<asrwt>0</asrwt>
<pdfrwt beam="1">  1        2 0.85611219E-01 0.27559710E+03</pdfrwt>
<pdfrwt beam="2">  1       -2 0.52496689E-02 0.27559710E+03</pdfrwt>
<totfact> 0.99600233E+03</totfact>
</mgrwt>
</event>
<event>
 5    1  0.1100736E+001  0.2753416E+03  0.7818608E-02  0.1098261E+00
          1   -1    0    0  501    0  0.00000000000E+00  0.00000000000E+00  0.12192824264E+03  0.12192824264E+03  0.00000000000E+00 0. -1.
         -1   -1    0    0    0  501 -0.00000000000E+00 -0.00000000000E+00 -0.15544597063E+03  0.15544597063E+03  0.00000000000E+00 0. -1.
         35    2    1    2    0    0  0.00000000000E+00  0.00000000000E+00 -0.33517727986E+02  0.27737421327E+03  0.27534163524E+03 0.  0.
         25    1    3    3    0    0  0.62188531584E+02 -0.17893804262E+02 -0.36022061178E+02  0.14101485944E+03  0.12000000000E+03 0.  0.
         25    1    3    3    0    0 -0.62188531584E+02  0.17893804262E+02  0.25043331921E+01  0.13635935383E+03  0.12000000000E+03 0.  0.
<mgrwt>
<rscale>  0 0.27534164E+03</rscale>
<asrwt>0</asrwt>
<pdfrwt beam="1">  1        1 0.18758191E-01 0.27534164E+03</pdfrwt>
<pdfrwt beam="2">  1       -1 0.23914765E-01 0.27534164E+03</pdfrwt>
<totfact> 0.41392754E+03</totfact>
</mgrwt>
</event>
<event>
 5    1  0.1100736E+001  0.2795658E+03  0.7818608E-02  0.1095926E+00
         -2   -1    0    0    0  501 -0.00000000000E+00  0.00000000000E+00  0.61397237277E+02  0.61397237277E+02  0.00000000000E+00 0. -1.
          2   -1    0    0  501    0  0.00000000000E+00 -0.00000000000E+00 -0.31824325172E+03  0.31824325172E+03  0.00000000000E+00 0. -1.
         35    2    1    2    0    0  0.00000000000E+00  0.00000000000E+00 -0.25684601445E+03  0.37964048900E+03  0.27956578072E+03 0.  0.
         25    1    3    3    0    0 -0.32382827982E+02 -0.51561957623E+02 -0.77035684701E+02  0.15505411874E+03  0.12000000000E+03 0.  0.
         25    1    3    3    0    0  0.32382827982E+02  0.51561957623E+02 -0.17981032974E+03  0.22458637026E+03  0.12000000000E+03 0.  0.
<mgrwt>
<rscale>  0 0.27956578E+03</rscale>
<asrwt>0</asrwt>
<pdfrwt beam="1">  1        2 0.48960499E-01 0.27956578E+03</pdfrwt>
<pdfrwt beam="2">  1       -2 0.94457290E-02 0.27956578E+03</pdfrwt>
<totfact> 0.74048981E+03</totfact>
</mgrwt>
</event>
<event>
 5    1  0.1100736E+001  0.2744583E+03  0.7818608E-02  0.1098755E+00
         -4   -1    0    0    0  501 -0.00000000000E+00  0.00000000000E+00  0.16801904137E+03  0.16801904137E+03  0.00000000000E+00 0.  1.
          4   -1    0    0  501    0  0.00000000000E+00 -0.00000000000E+00 -0.11208160322E+03  0.11208160322E+03  0.00000000000E+00 0.  1.
         35    2    1    2    0    0  0.00000000000E+00  0.00000000000E+00  0.55937438147E+02  0.28010064459E+03  0.27445832855E+03 0.  0.
         25    1    3    3    0    0 -0.63621522661E+02  0.73906822176E+01  0.46494677761E+02  0.14375004483E+03  0.12000000000E+03 0.  0.
         25    1    3    3    0    0  0.63621522661E+02 -0.73906822176E+01  0.94427603869E+01  0.13635059975E+03  0.12000000000E+03 0.  0.
<mgrwt>
<rscale>  0 0.27445833E+03</rscale>
<asrwt>0</asrwt>
<pdfrwt beam="1">  1        4 0.17243324E-01 0.27445833E+03</pdfrwt>
<pdfrwt beam="2">  1       -4 0.25849083E-01 0.27445833E+03</pdfrwt>
<totfact> 0.77738161E+02</totfact>
</mgrwt>
</event>
<event>
 5    1  0.1100736E+001  0.2763037E+03  0.7818608E-02  0.1097725E+00
          1   -1    0    0  501    0  0.00000000000E+00  0.00000000000E+00  0.74104549366E+03  0.74104549366E+03  0.00000000000E+00 0.  1.
         -1   -1    0    0    0  501 -0.00000000000E+00 -0.00000000000E+00 -0.25755417878E+02  0.25755417878E+02  0.00000000000E+00 0.  1.
         35    2    1    2    0    0  0.00000000000E+00  0.00000000000E+00  0.71529007578E+03  0.76680091154E+03  0.27630371952E+03 0.  0.
         25    1    3    3    0    0 -0.25116460804E+02 -0.56618380258E+02  0.43852986121E+03  0.45885173723E+03  0.12000000000E+03 0.  0.
         25    1    3    3    0    0  0.25116460804E+02  0.56618380258E+02  0.27676021457E+03  0.30794917430E+03  0.12000000000E+03 0.  0.
<mgrwt>
<rscale>  0 0.27630372E+03</rscale>
<asrwt>0</asrwt>
<pdfrwt beam="1">  1        1 0.11400698E+00 0.27630372E+03</pdfrwt>
<pdfrwt beam="2">  1       -1 0.39623725E-02 0.27630372E+03</pdfrwt>
<totfact> 0.64454833E+03</totfact>
</mgrwt>
</event>
<event>
 5    1  0.1100736E+001  0.2744212E+03  0.7818608E-02  0.1098776E+00
          2   -1    0    0  501    0  0.00000000000E+00  0.00000000000E+00  0.13678933792E+04  0.13678933792E+04  0.00000000000E+00 0.  1.
         -2   -1    0    0    0  501 -0.00000000000E+00 -0.00000000000E+00 -0.13763318805E+02  0.13763318805E+02  0.00000000000E+00 0.  1.
         35    2    1    2    0    0  0.00000000000E+00  0.00000000000E+00  0.13541300604E+04  0.13816566980E+04  0.27442122855E+03 0.  0.
         25    1    3    3    0    0 -0.36720116628E+02 -0.18797769725E+02  0.93989086417E+03  0.94841792458E+03  0.12000000000E+03 0.  0.
         25    1    3    3    0    0  0.36720116628E+02  0.18797769725E+02  0.41423919626E+03  0.43323877346E+03  0.12000000000E+03 0.  0.
<mgrwt>
<rscale>  0 0.27442123E+03</rscale>
<asrwt>0</asrwt>
<pdfrwt beam="1">  1        2 0.21044503E+00 0.27442123E+03</pdfrwt>
<pdfrwt beam="2">  1       -2 0.21174347E-02 0.27442123E+03</pdfrwt>
<totfact> 0.11430310E+04</totfact>
</mgrwt>
</event>
<event>
 5    1  0.1100736E+001  0.2872588E+03  0.7818608E-02  0.1091789E+00
         -2   -1    0    0    0  501 -0.00000000000E+00  0.00000000000E+00  0.13525934002E+02  0.13525934002E+02  0.00000000000E+00 0. -1.
          2   -1    0    0  501    0  0.00000000000E+00 -0.00000000000E+00 -0.15251739738E+04  0.15251739738E+04  0.00000000000E+00 0. -1.
         35    2    1    2    0    0  0.00000000000E+00  0.00000000000E+00 -0.15116480398E+04  0.15386999078E+04  0.28725878584E+03 0.  0.
         25    1    3    3    0    0 -0.44090783088E+02  0.43657429205E+02 -0.49453722598E+03  0.51265684055E+03  0.12000000000E+03 0.  0.
         25    1    3    3    0    0  0.44090783088E+02 -0.43657429205E+02 -0.10171108138E+04  0.10260430672E+04  0.12000000000E+03 0.  0.
<mgrwt>
<rscale>  0 0.28725879E+03</rscale>
<asrwt>0</asrwt>
<pdfrwt beam="1">  1        2 0.23464230E+00 0.28725879E+03</pdfrwt>
<pdfrwt beam="2">  1       -2 0.20809116E-02 0.28725879E+03</pdfrwt>
<totfact> 0.96536572E+03</totfact>
</mgrwt>
</event>
<event>
 5    1  0.1100736E+001  0.2750346E+03  0.7818608E-02  0.1098432E+00
          2   -1    0    0  501    0  0.00000000000E+00  0.00000000000E+00  0.93675111301E+03  0.93675111301E+03  0.00000000000E+00 0. -1.
         -2   -1    0    0    0  501 -0.00000000000E+00 -0.00000000000E+00 -0.20187861252E+02  0.20187861252E+02  0.00000000000E+00 0. -1.
         35    2    1    2    0    0  0.00000000000E+00  0.00000000000E+00  0.91656325176E+03  0.95693897426E+03  0.27503455417E+03 0.  0.
         25    1    3    3    0    0 -0.61169274713E+01  0.63813108909E+02  0.38856690068E+03  0.41169620593E+03  0.12000000000E+03 0.  0.
         25    1    3    3    0    0  0.61169274713E+01 -0.63813108909E+02  0.52799635108E+03  0.54524276833E+03  0.12000000000E+03 0.  0.
<mgrwt>
<rscale>  0 0.27503455E+03</rscale>
<asrwt>0</asrwt>
<pdfrwt beam="1">  1        2 0.14411552E+00 0.27503455E+03</pdfrwt>
<pdfrwt beam="2">  1       -2 0.31058255E-02 0.27503455E+03</pdfrwt>
<totfact> 0.11536979E+04</totfact>
</mgrwt>
</event>
<event>
 5    1  0.1100736E+001  0.2748062E+03  0.7818608E-02  0.1098560E+00
          1   -1    0    0  501    0  0.00000000000E+00  0.00000000000E+00  0.26857782918E+02  0.26857782918E+02  0.00000000000E+00 0.  1.
         -1   -1    0    0    0  501 -0.00000000000E+00 -0.00000000000E+00 -0.70294758653E+03  0.70294758653E+03  0.00000000000E+00 0.  1.
         35    2    1    2    0    0  0.00000000000E+00  0.00000000000E+00 -0.67608980361E+03  0.72980536945E+03  0.27480621304E+03 0.  0.
         25    1    3    3    0    0  0.39463089342E+02 -0.52333166010E+02 -0.30206832505E+03  0.33157407722E+03  0.12000000000E+03 0.  0.
         25    1    3    3    0    0 -0.39463089342E+02  0.52333166010E+02 -0.37402147856E+03  0.39823129223E+03  0.12000000000E+03 0.  0.
<mgrwt>
<rscale>  0 0.27480621E+03</rscale>
<asrwt>0</asrwt>
<pdfrwt beam="1">  1        1 0.41319674E-02 0.27480621E+03</pdfrwt>
<pdfrwt beam="2">  1       -1 0.10814576E+00 0.27480621E+03</pdfrwt>
<totfact> 0.18316428E+03</totfact>
</mgrwt>
</event>
<event>
 5    1  0.1100736E+001  0.2744058E+03  0.7818608E-02  0.1098784E+00
         -2   -1    0    0    0  501 -0.00000000000E+00  0.00000000000E+00  0.11620181222E+02  0.11620181222E+02  0.00000000000E+00 0. -1.
          2   -1    0    0  501    0  0.00000000000E+00 -0.00000000000E+00 -0.16199954647E+04  0.16199954647E+04  0.00000000000E+00 0. -1.
         35    2    1    2    0    0  0.00000000000E+00  0.00000000000E+00 -0.16083752835E+04  0.16316156459E+04  0.27440583725E+03 0.  0.
         25    1    3    3    0    0  0.22447048894E+02  0.35753866650E+02 -0.11098390612E+04  0.11171056130E+04  0.12000000000E+03 0.  0.
         25    1    3    3    0    0 -0.22447048894E+02 -0.35753866650E+02 -0.49853622230E+03  0.51451003288E+03  0.12000000000E+03 0.  0.
<mgrwt>
<rscale>  0 0.27440584E+03</rscale>
<asrwt>0</asrwt>
<pdfrwt beam="1">  1        2 0.24922999E+00 0.27440584E+03</pdfrwt>
<pdfrwt beam="2">  1       -2 0.17877208E-02 0.27440584E+03</pdfrwt>
<totfact> 0.10738370E+04</totfact>
</mgrwt>
</event>
<event>
 5    1  0.1100736E+001  0.2753724E+03  0.7818608E-02  0.1098244E+00
         -1   -1    0    0    0  501 -0.00000000000E+00  0.00000000000E+00  0.36923844482E+02  0.36923844482E+02  0.00000000000E+00 0.  1.
          1   -1    0    0  501    0  0.00000000000E+00 -0.00000000000E+00 -0.51342136934E+03  0.51342136934E+03  0.00000000000E+00 0.  1.
         35    2    1    2    0    0  0.00000000000E+00  0.00000000000E+00 -0.47649752486E+03  0.55034521382E+03  0.27537240817E+03 0.  0.
         25    1    3    3    0    0 -0.29871866063E+02  0.45921460097E+02 -0.15940399812E+03  0.20690757235E+03  0.12000000000E+03 0.  0.
         25    1    3    3    0    0  0.29871866063E+02 -0.45921460097E+02 -0.31709352674E+03  0.34343764147E+03  0.12000000000E+03 0.  0.
<mgrwt>
<rscale>  0 0.27537241E+03</rscale>
<asrwt>0</asrwt>
<pdfrwt beam="1">  1        1 0.78987902E-01 0.27537241E+03</pdfrwt>
<pdfrwt beam="2">  1       -1 0.56805916E-02 0.27537241E+03</pdfrwt>
<totfact> 0.62964874E+03</totfact>
</mgrwt>
</event>
<event>
 5    1  0.1100736E+001  0.2711525E+03  0.7818608E-02  0.1100622E+00
         -2   -1    0    0    0  501 -0.00000000000E+00  0.00000000000E+00  0.71154921702E+03  0.71154921702E+03  0.00000000000E+00 0.  1.
          2   -1    0    0  501    0  0.00000000000E+00 -0.00000000000E+00 -0.25832251131E+02  0.25832251131E+02  0.00000000000E+00 0.  1.
         35    2    1    2    0    0  0.00000000000E+00  0.00000000000E+00  0.68571696589E+03  0.73738146815E+03  0.27115248895E+03 0.  0.
         25    1    3    3    0    0  0.61064368714E+01 -0.17840398837E+02  0.17911894002E+03  0.21642357329E+03  0.12000000000E+03 0.  0.
         25    1    3    3    0    0 -0.61064368714E+01  0.17840398837E+02  0.50659802587E+03  0.52095789486E+03  0.12000000000E+03 0.  0.
<mgrwt>
<rscale>  0 0.27115249E+03</rscale>
<asrwt>0</asrwt>
<pdfrwt beam="1">  1        2 0.39741930E-02 0.27115249E+03</pdfrwt>
<pdfrwt beam="2">  1       -2 0.10946910E+00 0.27115249E+03</pdfrwt>
<totfact> 0.14793896E+03</totfact>
</mgrwt>
</event>
<event>
 5    1  0.1100736E+001  0.2806929E+03  0.7818608E-02  0.1095311E+00
         -2   -1    0    0    0  501 -0.00000000000E+00  0.00000000000E+00  0.86870374779E+01  0.86870374779E+01  0.00000000000E+00 0. -1.
          2   -1    0    0  501    0  0.00000000000E+00 -0.00000000000E+00 -0.22674155478E+04  0.22674155478E+04  0.00000000000E+00 0. -1.
         35    2    1    2    0    0  0.00000000000E+00  0.00000000000E+00 -0.22587285103E+04  0.22761025852E+04  0.28069288442E+03 0.  0.
         25    1    3    3    0    0 -0.31916069285E+02 -0.46129340907E+02 -0.75332130643E+03  0.76487877621E+03  0.12000000000E+03 0.  0.
         25    1    3    3    0    0  0.31916069285E+02  0.46129340907E+02 -0.15054072039E+04  0.15112238090E+04  0.12000000000E+03 0.  0.
<mgrwt>
<rscale>  0 0.28069288E+03</rscale>
<asrwt>0</asrwt>
<pdfrwt beam="1">  1        2 0.34883328E+00 0.28069288E+03</pdfrwt>
<pdfrwt beam="2">  1       -2 0.13364668E-02 0.28069288E+03</pdfrwt>
<totfact> 0.74877436E+03</totfact>
</mgrwt>
</event>
<event>
 5    1  0.1100736E+001  0.2748593E+03  0.7818608E-02  0.1098530E+00
          2   -1    0    0  501    0  0.00000000000E+00  0.00000000000E+00  0.19414511095E+03  0.19414511095E+03  0.00000000000E+00 0. -1.
         -2   -1    0    0    0  501 -0.00000000000E+00 -0.00000000000E+00 -0.97282404771E+02  0.97282404771E+02  0.00000000000E+00 0. -1.
         35    2    1    2    0    0  0.00000000000E+00  0.00000000000E+00  0.96862706184E+02  0.29142751573E+03  0.27485926048E+03 0.  0.
         25    1    3    3    0    0  0.88712436491E+01  0.41622413003E+02 -0.64146904678E+01  0.12748440094E+03  0.12000000000E+03 0.  0.
         25    1    3    3    0    0 -0.88712436491E+01 -0.41622413003E+02  0.10327739665E+03  0.16394311479E+03  0.12000000000E+03 0.  0.
<mgrwt>
<rscale>  0 0.27485926E+03</rscale>
<asrwt>0</asrwt>
<pdfrwt beam="1">  1        2 0.29868479E-01 0.27485926E+03</pdfrwt>
<pdfrwt beam="2">  1       -2 0.14966524E-01 0.27485926E+03</pdfrwt>
<totfact> 0.60096980E+03</totfact>
</mgrwt>
</event>
<event>
 5    1  0.1100736E+001  0.2750994E+03  0.7818608E-02  0.1098396E+00
         -2   -1    0    0    0  501 -0.00000000000E+00  0.00000000000E+00  0.32384503368E+02  0.32384503368E+02  0.00000000000E+00 0.  1.
          2   -1    0    0  501    0  0.00000000000E+00 -0.00000000000E+00 -0.58422753431E+03  0.58422753431E+03  0.00000000000E+00 0.  1.
         35    2    1    2    0    0  0.00000000000E+00  0.00000000000E+00 -0.55184303095E+03  0.61661203768E+03  0.27509938970E+03 0.  0.
         25    1    3    3    0    0 -0.48161550370E+02  0.37421475405E+02 -0.21252404578E+03  0.25156782742E+03  0.12000000000E+03 0.  0.
         25    1    3    3    0    0  0.48161550370E+02 -0.37421475405E+02 -0.33931898516E+03  0.36504421027E+03  0.12000000000E+03 0.  0.
<mgrwt>
<rscale>  0 0.27509939E+03</rscale>
<asrwt>0</asrwt>
<pdfrwt beam="1">  1        2 0.89881157E-01 0.27509939E+03</pdfrwt>
<pdfrwt beam="2">  1       -2 0.49822314E-02 0.27509939E+03</pdfrwt>
<totfact> 0.10198092E+04</totfact>
</mgrwt>
</event>
<event>
 5    1  0.1100736E+001  0.2760273E+03  0.7818608E-02  0.1097879E+00
          2   -1    0    0  501    0  0.00000000000E+00  0.00000000000E+00  0.82377538048E+02  0.82377538048E+02  0.00000000000E+00 0. -1.
         -2   -1    0    0    0  501 -0.00000000000E+00 -0.00000000000E+00 -0.23122528346E+03  0.23122528346E+03  0.00000000000E+00 0. -1.
         35    2    1    2    0    0  0.00000000000E+00  0.00000000000E+00 -0.14884774541E+03  0.31360282150E+03  0.27602731449E+03 0.  0.
         25    1    3    3    0    0 -0.17603095752E+02  0.47469453398E+02 -0.22551725430E+02  0.13218093019E+03  0.12000000000E+03 0.  0.
         25    1    3    3    0    0  0.17603095752E+02 -0.47469453398E+02 -0.12629601998E+03  0.18142189132E+03  0.12000000000E+03 0.  0.
<mgrwt>
<rscale>  0 0.27602731E+03</rscale>
<asrwt>0</asrwt>
<pdfrwt beam="1">  1        2 0.12673468E-01 0.27602731E+03</pdfrwt>
<pdfrwt beam="2">  1       -2 0.35573120E-01 0.27602731E+03</pdfrwt>
<totfact> 0.35434974E+03</totfact>
</mgrwt>
</event>
<event>
 5    1  0.1100736E+001  0.2748887E+03  0.7818608E-02  0.1098514E+00
          2   -1    0    0  501    0  0.00000000000E+00  0.00000000000E+00  0.19862202888E+04  0.19862202888E+04  0.00000000000E+00 0. -1.
         -2   -1    0    0    0  501 -0.00000000000E+00 -0.00000000000E+00 -0.95110058973E+01  0.95110058973E+01  0.00000000000E+00 0. -1.
         35    2    1    2    0    0  0.00000000000E+00  0.00000000000E+00  0.19767092829E+04  0.19957312947E+04  0.27488872571E+03 0.  0.
         25    1    3    3    0    0  0.57764155853E+02  0.33518449505E+02  0.94808295030E+03  0.95797779975E+03  0.12000000000E+03 0.  0.
         25    1    3    3    0    0 -0.57764155853E+02 -0.33518449505E+02  0.10286263326E+04  0.10377534950E+04  0.12000000000E+03 0.  0.
<mgrwt>
<rscale>  0 0.27488873E+03</rscale>
<asrwt>0</asrwt>
<pdfrwt beam="1">  1        2 0.30557202E+00 0.27488873E+03</pdfrwt>
<pdfrwt beam="2">  1       -2 0.14632333E-02 0.27488873E+03</pdfrwt>
<totfact> 0.92426378E+03</totfact>
</mgrwt>
</event>
<event>
 5    1  0.1100736E+001  0.2750005E+03  0.7818608E-02  0.1098451E+00
         -2   -1    0    0    0  501 -0.00000000000E+00  0.00000000000E+00  0.39368784952E+02  0.39368784952E+02  0.00000000000E+00 0. -1.
          2   -1    0    0  501    0  0.00000000000E+00 -0.00000000000E+00 -0.48023626548E+03  0.48023626548E+03  0.00000000000E+00 0. -1.
         35    2    1    2    0    0  0.00000000000E+00  0.00000000000E+00 -0.44086748053E+03  0.51960505043E+03  0.27500049645E+03 0.  0.
         25    1    3    3    0    0 -0.57925301585E+02  0.15088537092E+02 -0.16302017235E+03  0.21108903597E+03  0.12000000000E+03 0.  0.
         25    1    3    3    0    0  0.57925301585E+02 -0.15088537092E+02 -0.27784730818E+03  0.30851601446E+03  0.12000000000E+03 0.  0.
<mgrwt>
<rscale>  0 0.27500050E+03</rscale>
<asrwt>0</asrwt>
<pdfrwt beam="1">  1        2 0.73882501E-01 0.27500050E+03</pdfrwt>
<pdfrwt beam="2">  1       -2 0.60567363E-02 0.27500050E+03</pdfrwt>
<totfact> 0.94470823E+03</totfact>
</mgrwt>
</event>
<event>
 5    1  0.1100736E+001  0.2752830E+03  0.7818608E-02  0.1098294E+00
          1   -1    0    0  501    0  0.00000000000E+00  0.00000000000E+00  0.85955386832E+03  0.85955386832E+03  0.00000000000E+00 0. -1.
         -1   -1    0    0    0  501 -0.00000000000E+00 -0.00000000000E+00 -0.22040710117E+02  0.22040710117E+02  0.00000000000E+00 0. -1.
         35    2    1    2    0    0  0.00000000000E+00  0.00000000000E+00  0.83751315820E+03  0.88159457844E+03  0.27528296454E+03 0.  0.
         25    1    3    3    0    0  0.47318861204E+02 -0.45396712387E+02  0.46890838475E+03  0.48844140837E+03  0.12000000000E+03 0.  0.
         25    1    3    3    0    0 -0.47318861204E+02  0.45396712387E+02  0.36860477345E+03  0.39315317007E+03  0.12000000000E+03 0.  0.
<mgrwt>
<rscale>  0 0.27528296E+03</rscale>
<asrwt>0</asrwt>
<pdfrwt beam="1">  1        1 0.13223903E+00 0.27528296E+03</pdfrwt>
<pdfrwt beam="2">  1       -1 0.33908792E-02 0.27528296E+03</pdfrwt>
<totfact> 0.64623277E+03</totfact>
</mgrwt>
</event>
<event>
 5    1  0.1100736E+001  0.2752003E+03  0.7818608E-02  0.1098340E+00
         -1   -1    0    0    0  501 -0.00000000000E+00  0.00000000000E+00  0.84946453065E+03  0.84946453065E+03  0.00000000000E+00 0.  1.
          1   -1    0    0  501    0  0.00000000000E+00 -0.00000000000E+00 -0.22289093815E+02  0.22289093815E+02  0.00000000000E+00 0.  1.
         35    2    1    2    0    0  0.00000000000E+00  0.00000000000E+00  0.82717543683E+03  0.87175362446E+03  0.27520025157E+03 0.  0.
         25    1    3    3    0    0  0.57460438915E+02 -0.41762777282E+01  0.30318729445E+03  0.33112184895E+03  0.12000000000E+03 0.  0.
         25    1    3    3    0    0 -0.57460438915E+02  0.41762777282E+01  0.52398814238E+03  0.54063177551E+03  0.12000000000E+03 0.  0.
<mgrwt>
<rscale>  0 0.27520025E+03</rscale>
<asrwt>0</asrwt>
<pdfrwt beam="1">  1        1 0.34290920E-02 0.27520025E+03</pdfrwt>
<pdfrwt beam="2">  1       -1 0.13068683E+00 0.27520025E+03</pdfrwt>
<totfact> 0.15163240E+03</totfact>
</mgrwt>
</event>
<event>
 5    1  0.1100736E+001  0.2733894E+03  0.7818608E-02  0.1099355E+00
          1   -1    0    0  501    0  0.00000000000E+00  0.00000000000E+00  0.38956213883E+02  0.38956213883E+02  0.00000000000E+00 0. -1.
         -1   -1    0    0    0  501 -0.00000000000E+00 -0.00000000000E+00 -0.47965244640E+03  0.47965244640E+03  0.00000000000E+00 0. -1.
         35    2    1    2    0    0  0.00000000000E+00  0.00000000000E+00 -0.44069623252E+03  0.51860866028E+03  0.27338941670E+03 0.  0.
         25    1    3    3    0    0  0.62424519279E+02  0.18397190987E+02 -0.23378390018E+03  0.27072160835E+03  0.12000000000E+03 0.  0.
         25    1    3    3    0    0 -0.62424519279E+02 -0.18397190987E+02 -0.20691233233E+03  0.24788705193E+03  0.12000000000E+03 0.  0.
<mgrwt>
<rscale>  0 0.27338942E+03</rscale>
<asrwt>0</asrwt>
<pdfrwt beam="1">  1        1 0.59932636E-02 0.27338942E+03</pdfrwt>
<pdfrwt beam="2">  1       -1 0.73792685E-01 0.27338942E+03</pdfrwt>
<totfact> 0.24875942E+03</totfact>
</mgrwt>
</event>
<event>
 5    1  0.1100736E+001  0.2742181E+03  0.7818608E-02  0.1098889E+00
          2   -1    0    0  501    0  0.00000000000E+00  0.00000000000E+00  0.86717311574E+02  0.86717311574E+02  0.00000000000E+00 0.  1.
         -2   -1    0    0    0  501 -0.00000000000E+00 -0.00000000000E+00 -0.21678363642E+03  0.21678363642E+03  0.00000000000E+00 0.  1.
         35    2    1    2    0    0  0.00000000000E+00  0.00000000000E+00 -0.13006632485E+03  0.30350094799E+03  0.27421811861E+03 0.  0.
         25    1    3    3    0    0  0.52255737131E+01 -0.64448529833E+02 -0.81373716384E+02  0.15875327189E+03  0.12000000000E+03 0.  0.
         25    1    3    3    0    0 -0.52255737131E+01  0.64448529833E+02 -0.48692608464E+02  0.14474767610E+03  0.12000000000E+03 0.  0.
<mgrwt>
<rscale>  0 0.27421812E+03</rscale>
<asrwt>0</asrwt>
<pdfrwt beam="1">  1        2 0.13341125E-01 0.27421812E+03</pdfrwt>
<pdfrwt beam="2">  1       -2 0.33351329E-01 0.27421812E+03</pdfrwt>
<totfact> 0.37542768E+03</totfact>
</mgrwt>
</event>
<event>
 5    1  0.1100736E+001  0.2749878E+03  0.7818608E-02  0.1098458E+00
         -2   -1    0    0    0  501 -0.00000000000E+00  0.00000000000E+00  0.21797016230E+02  0.21797016230E+02  0.00000000000E+00 0.  1.
          2   -1    0    0  501    0  0.00000000000E+00 -0.00000000000E+00 -0.86730107624E+03  0.86730107624E+03  0.00000000000E+00 0.  1.
         35    2    1    2    0    0  0.00000000000E+00  0.00000000000E+00 -0.84550406001E+03  0.88909809248E+03  0.27498782253E+03 0.  0.
         25    1    3    3    0    0  0.11473093152E+02 -0.54029890685E+02 -0.54602725523E+03  0.56177987185E+03  0.12000000000E+03 0.  0.
         25    1    3    3    0    0 -0.11473093152E+02  0.54029890685E+02 -0.29947680478E+03  0.32731822063E+03  0.12000000000E+03 0.  0.
<mgrwt>
<rscale>  0 0.27498782E+03</rscale>
<asrwt>0</asrwt>
<pdfrwt beam="1">  1        2 0.13343093E+00 0.27498782E+03</pdfrwt>
<pdfrwt beam="2">  1       -2 0.33533872E-02 0.27498782E+03</pdfrwt>
<totfact> 0.11408323E+04</totfact>
</mgrwt>
</event>
<event>
 5    1  0.1100736E+001  0.2739594E+03  0.7818608E-02  0.1099035E+00
         -1   -1    0    0    0  501 -0.00000000000E+00  0.00000000000E+00  0.70849565637E+01  0.70849565637E+01  0.00000000000E+00 0. -1.
          1   -1    0    0  501    0  0.00000000000E+00 -0.00000000000E+00 -0.26483489241E+04  0.26483489241E+04  0.00000000000E+00 0. -1.
         35    2    1    2    0    0  0.00000000000E+00  0.00000000000E+00 -0.26412639675E+04  0.26554338806E+04  0.27395939183E+03 0.  0.
         25    1    3    3    0    0 -0.65577655639E+02 -0.65896514669E+01 -0.12777369124E+04  0.12850507655E+04  0.12000000000E+03 0.  0.
         25    1    3    3    0    0  0.65577655639E+02  0.65896514669E+01 -0.13635270551E+04  0.13703831152E+04  0.12000000000E+03 0.  0.
<mgrwt>
<rscale>  0 0.27395939E+03</rscale>
<asrwt>0</asrwt>
<pdfrwt beam="1">  1        1 0.40743848E+00 0.27395939E+03</pdfrwt>
<pdfrwt beam="2">  1       -1 0.10899928E-02 0.27395939E+03</pdfrwt>
<totfact> 0.20946278E+03</totfact>
</mgrwt>
</event>
<event>
 5    1  0.1100736E+001  0.2742539E+03  0.7818608E-02  0.1098869E+00
          2   -1    0    0  501    0  0.00000000000E+00  0.00000000000E+00  0.28908721360E+03  0.28908721360E+03  0.00000000000E+00 0. -1.
         -2   -1    0    0    0  501 -0.00000000000E+00 -0.00000000000E+00 -0.65045425639E+02  0.65045425639E+02  0.00000000000E+00 0. -1.
         35    2    1    2    0    0  0.00000000000E+00  0.00000000000E+00  0.22404178797E+03  0.35413263924E+03  0.27425390320E+03 0.  0.
         25    1    3    3    0    0  0.62543935298E+02 -0.78385006089E+01  0.13881613552E+03  0.19401831206E+03  0.12000000000E+03 0.  0.
         25    1    3    3    0    0 -0.62543935298E+02  0.78385006089E+01  0.85225652444E+02  0.16011432718E+03  0.12000000000E+03 0.  0.
<mgrwt>
<rscale>  0 0.27425390E+03</rscale>
<asrwt>0</asrwt>
<pdfrwt beam="1">  1        2 0.44474955E-01 0.27425390E+03</pdfrwt>
<pdfrwt beam="2">  1       -2 0.10006989E-01 0.27425390E+03</pdfrwt>
<totfact> 0.74874999E+03</totfact>
</mgrwt>
</event>
<event>
 5    1  0.1100736E+001  0.2749651E+03  0.7818608E-02  0.1098471E+00
          2   -1    0    0  501    0  0.00000000000E+00  0.00000000000E+00  0.42462611358E+03  0.42462611358E+03  0.00000000000E+00 0. -1.
         -2   -1    0    0    0  501 -0.00000000000E+00 -0.00000000000E+00 -0.44513175023E+02  0.44513175023E+02  0.00000000000E+00 0. -1.
         35    2    1    2    0    0  0.00000000000E+00  0.00000000000E+00  0.38011293855E+03  0.46913928860E+03  0.27496513607E+03 0.  0.
         25    1    3    3    0    0  0.25024484024E+01 -0.56332532503E+02  0.25208816112E+03  0.28482987456E+03  0.12000000000E+03 0.  0.
         25    1    3    3    0    0 -0.25024484024E+01  0.56332532503E+02  0.12802477743E+03  0.18430941404E+03  0.12000000000E+03 0.  0.
<mgrwt>
<rscale>  0 0.27496514E+03</rscale>
<asrwt>0</asrwt>
<pdfrwt beam="1">  1        2 0.65327092E-01 0.27496514E+03</pdfrwt>
<pdfrwt beam="2">  1       -2 0.68481811E-02 0.27496514E+03</pdfrwt>
<totfact> 0.89538867E+03</totfact>
</mgrwt>
</event>
<event>
 5    1  0.1100736E+001  0.2759133E+03  0.7818608E-02  0.1097942E+00
          1   -1    0    0  501    0  0.00000000000E+00  0.00000000000E+00  0.61378375504E+03  0.61378375504E+03  0.00000000000E+00 0. -1.
         -1   -1    0    0    0  501 -0.00000000000E+00 -0.00000000000E+00 -0.31007724370E+02  0.31007724370E+02  0.00000000000E+00 0. -1.
         35    2    1    2    0    0  0.00000000000E+00  0.00000000000E+00  0.58277603067E+03  0.64479147941E+03  0.27591330159E+03 0.  0.
         25    1    3    3    0    0 -0.60480257589E+02 -0.10664832014E+02  0.35993782702E+03  0.38435249384E+03  0.12000000000E+03 0.  0.
         25    1    3    3    0    0  0.60480257589E+02  0.10664832014E+02  0.22283820366E+03  0.26043898558E+03  0.12000000000E+03 0.  0.
<mgrwt>
<rscale>  0 0.27591330E+03</rscale>
<asrwt>0</asrwt>
<pdfrwt beam="1">  1        1 0.94428261E-01 0.27591330E+03</pdfrwt>
<pdfrwt beam="2">  1       -1 0.47704196E-02 0.27591330E+03</pdfrwt>
<totfact> 0.64127255E+03</totfact>
</mgrwt>
</event>
<event>
 5    1  0.1100736E+001  0.2793211E+03  0.7818608E-02  0.1096060E+00
         -1   -1    0    0    0  501 -0.00000000000E+00  0.00000000000E+00  0.15222194216E+04  0.15222194216E+04  0.00000000000E+00 0. -1.
          1   -1    0    0  501    0  0.00000000000E+00 -0.00000000000E+00 -0.12813569897E+02  0.12813569897E+02  0.00000000000E+00 0. -1.
         35    2    1    2    0    0  0.00000000000E+00  0.00000000000E+00  0.15094058517E+04  0.15350329915E+04  0.27932106943E+03 0.  0.
         25    1    3    3    0    0 -0.38720089667E+02 -0.45713495147E+02  0.96868498635E+03  0.97792615865E+03  0.12000000000E+03 0.  0.
         25    1    3    3    0    0  0.38720089667E+02  0.45713495147E+02  0.54072086538E+03  0.55710683288E+03  0.12000000000E+03 0.  0.
<mgrwt>
<rscale>  0 0.27932107E+03</rscale>
<asrwt>0</asrwt>
<pdfrwt beam="1">  1        1 0.19713196E-02 0.27932107E+03</pdfrwt>
<pdfrwt beam="2">  1       -1 0.23418746E+00 0.27932107E+03</pdfrwt>
<totfact> 0.61717015E+02</totfact>
</mgrwt>
</event>
<event>
 5    1  0.1100736E+001  0.2746998E+03  0.7818608E-02  0.1098620E+00
          1   -1    0    0  501    0  0.00000000000E+00  0.00000000000E+00  0.25971881542E+02  0.25971881542E+02  0.00000000000E+00 0. -1.
         -1   -1    0    0    0  501 -0.00000000000E+00 -0.00000000000E+00 -0.72636219101E+03  0.72636219101E+03  0.00000000000E+00 0. -1.
         35    2    1    2    0    0  0.00000000000E+00  0.00000000000E+00 -0.70039030947E+03  0.75233407256E+03  0.27469978363E+03 0.  0.
         25    1    3    3    0    0 -0.17595749796E+02 -0.37306325631E+02 -0.20621865480E+03  0.24213117505E+03  0.12000000000E+03 0.  0.
         25    1    3    3    0    0  0.17595749796E+02  0.37306325631E+02 -0.49417165467E+03  0.51020289750E+03  0.12000000000E+03 0.  0.
<mgrwt>
<rscale>  0 0.27469978E+03</rscale>
<asrwt>0</asrwt>
<pdfrwt beam="1">  1        1 0.39956740E-02 0.27469978E+03</pdfrwt>
<pdfrwt beam="2">  1       -1 0.11174803E+00 0.27469978E+03</pdfrwt>
<totfact> 0.17798404E+03</totfact>
</mgrwt>
</event>
<event>
 5    1  0.1100736E+001  0.2747385E+03  0.7818608E-02  0.1098598E+00
         -4   -1    0    0    0  501 -0.00000000000E+00  0.00000000000E+00  0.47948652716E+02  0.47948652716E+02  0.00000000000E+00 0.  1.
          4   -1    0    0  501    0  0.00000000000E+00 -0.00000000000E+00 -0.39355254526E+03  0.39355254526E+03  0.00000000000E+00 0.  1.
         35    2    1    2    0    0  0.00000000000E+00  0.00000000000E+00 -0.34560389255E+03  0.44150119798E+03  0.27473852528E+03 0.  0.
         25    1    3    3    0    0  0.55649824587E+02  0.20234318748E+02 -0.22269581336E+03  0.25980715140E+03  0.12000000000E+03 0.  0.
         25    1    3    3    0    0 -0.55649824587E+02 -0.20234318748E+02 -0.12290807919E+03  0.18169404658E+03  0.12000000000E+03 0.  0.
<mgrwt>
<rscale>  0 0.27473853E+03</rscale>
<asrwt>0</asrwt>
<pdfrwt beam="1">  1        4 0.60546542E-01 0.27473853E+03</pdfrwt>
<pdfrwt beam="2">  1       -4 0.73767162E-02 0.27473853E+03</pdfrwt>
<totfact> 0.61618706E+02</totfact>
</mgrwt>
</event>
<event>
 5    1  0.1100736E+001  0.2734812E+03  0.7818608E-02  0.1099304E+00
          2   -1    0    0  501    0  0.00000000000E+00  0.00000000000E+00  0.86623481368E+03  0.86623481368E+03  0.00000000000E+00 0.  1.
         -2   -1    0    0    0  501 -0.00000000000E+00 -0.00000000000E+00 -0.21585364278E+02  0.21585364278E+02  0.00000000000E+00 0.  1.
         35    2    1    2    0    0  0.00000000000E+00  0.00000000000E+00  0.84464944941E+03  0.88782017796E+03  0.27348121693E+03 0.  0.
         25    1    3    3    0    0  0.30365735991E+02  0.54995977050E+02  0.36147301359E+03  0.38601732470E+03  0.12000000000E+03 0.  0.
         25    1    3    3    0    0 -0.30365735991E+02 -0.54995977050E+02  0.48317643582E+03  0.50180285326E+03  0.12000000000E+03 0.  0.
<mgrwt>
<rscale>  0 0.27348122E+03</rscale>
<asrwt>0</asrwt>
<pdfrwt beam="1">  1        2 0.13326687E+00 0.27348122E+03</pdfrwt>
<pdfrwt beam="2">  1       -2 0.33208260E-02 0.27348122E+03</pdfrwt>
<totfact> 0.11592394E+04</totfact>
</mgrwt>
</event>
<event>
 5    1  0.1100736E+001  0.2753882E+03  0.7818608E-02  0.1098235E+00
         -2   -1    0    0    0  501 -0.00000000000E+00  0.00000000000E+00  0.23644562257E+02  0.23644562257E+02  0.00000000000E+00 0.  1.
          2   -1    0    0  501    0  0.00000000000E+00 -0.00000000000E+00 -0.80186161683E+03  0.80186161683E+03  0.00000000000E+00 0.  1.
         35    2    1    2    0    0  0.00000000000E+00  0.00000000000E+00 -0.77821705457E+03  0.82550617908E+03  0.27538821268E+03 0.  0.
         25    1    3    3    0    0 -0.41064956466E+02  0.31995574311E+02 -0.26018974990E+03  0.29121942480E+03  0.12000000000E+03 0.  0.
         25    1    3    3    0    0  0.41064956466E+02 -0.31995574311E+02 -0.51802730467E+03  0.53428675428E+03  0.12000000000E+03 0.  0.
<mgrwt>
<rscale>  0 0.27538821E+03</rscale>
<asrwt>0</asrwt>
<pdfrwt beam="1">  1        2 0.12336332E+00 0.27538821E+03</pdfrwt>
<pdfrwt beam="2">  1       -2 0.36376252E-02 0.27538821E+03</pdfrwt>
<totfact> 0.11181228E+04</totfact>
</mgrwt>
</event>
<event>
 5    1  0.1100736E+001  0.2752245E+03  0.7818608E-02  0.1098326E+00
          3   -1    0    0  501    0  0.00000000000E+00  0.00000000000E+00  0.85148610771E+02  0.85148610771E+02  0.00000000000E+00 0.  1.
         -3   -1    0    0    0  501 -0.00000000000E+00 -0.00000000000E+00 -0.22240098450E+03  0.22240098450E+03  0.00000000000E+00 0.  1.
         35    2    1    2    0    0  0.00000000000E+00  0.00000000000E+00 -0.13725237373E+03  0.30754959527E+03  0.27522452554E+03 0.  0.
         25    1    3    3    0    0  0.46394399198E+02 -0.40128794147E+02 -0.99722116207E+02  0.16765220207E+03  0.12000000000E+03 0.  0.
         25    1    3    3    0    0 -0.46394399198E+02  0.40128794147E+02 -0.37530257524E+02  0.13989739321E+03  0.12000000000E+03 0.  0.
<mgrwt>
<rscale>  0 0.27522453E+03</rscale>
<asrwt>0</asrwt>
<pdfrwt beam="1">  1        3 0.13099786E-01 0.27522453E+03</pdfrwt>
<pdfrwt beam="2">  1       -3 0.34215536E-01 0.27522453E+03</pdfrwt>
<totfact> 0.99814583E+02</totfact>
</mgrwt>
</event>
<event>
 5    1  0.1100736E+001  0.2752080E+03  0.7818608E-02  0.1098335E+00
          1   -1    0    0  501    0  0.00000000000E+00  0.00000000000E+00  0.17359767885E+04  0.17359767885E+04  0.00000000000E+00 0. -1.
         -1   -1    0    0    0  501 -0.00000000000E+00 -0.00000000000E+00 -0.10907327533E+02  0.10907327533E+02  0.00000000000E+00 0. -1.
         35    2    1    2    0    0  0.00000000000E+00  0.00000000000E+00  0.17250694609E+04  0.17468841160E+04  0.27520804800E+03 0.  0.
         25    1    3    3    0    0  0.63033680638E+01  0.42883268379E+01  0.43783287784E+03  0.45404377665E+03  0.12000000000E+03 0.  0.
         25    1    3    3    0    0 -0.63033680638E+01 -0.42883268379E+01  0.12872365831E+04  0.12928403394E+04  0.12000000000E+03 0.  0.
<mgrwt>
<rscale>  0 0.27520805E+03</rscale>
<asrwt>0</asrwt>
<pdfrwt beam="1">  1        1 0.26707313E+00 0.27520805E+03</pdfrwt>
<pdfrwt beam="2">  1       -1 0.16780518E-02 0.27520805E+03</pdfrwt>
<totfact> 0.44389139E+03</totfact>
</mgrwt>
</event>
<event>
 5    1  0.1100736E+001  0.2753945E+03  0.7818608E-02  0.1098231E+00
          2   -1    0    0  501    0  0.00000000000E+00  0.00000000000E+00  0.45062093124E+04  0.45062093124E+04  0.00000000000E+00 0. -1.
         -2   -1    0    0    0  501 -0.00000000000E+00 -0.00000000000E+00 -0.42076469855E+01  0.42076469855E+01  0.00000000000E+00 0. -1.
         35    2    1    2    0    0  0.00000000000E+00  0.00000000000E+00  0.45020016654E+04  0.45104169594E+04  0.27539453901E+03 0.  0.
         25    1    3    3    0    0  0.26201112282E+02 -0.23309057875E+02  0.31962165250E+04  0.31986606393E+04  0.12000000000E+03 0.  0.
         25    1    3    3    0    0 -0.26201112282E+02  0.23309057875E+02  0.13057851404E+04  0.13117563201E+04  0.12000000000E+03 0.  0.
<mgrwt>
<rscale>  0 0.27539454E+03</rscale>
<asrwt>0</asrwt>
<pdfrwt beam="1">  1        2 0.69325911E+00 0.27539454E+03</pdfrwt>
<pdfrwt beam="2">  1       -2 0.64733391E-03 0.27539454E+03</pdfrwt>
<totfact> 0.67076398E+02</totfact>
</mgrwt>
</event>
<event>
 5    1  0.1100736E+001  0.2760239E+03  0.7818608E-02  0.1097881E+00
          2   -1    0    0  501    0  0.00000000000E+00  0.00000000000E+00  0.12354058935E+03  0.12354058935E+03  0.00000000000E+00 0.  1.
         -2   -1    0    0    0  501 -0.00000000000E+00 -0.00000000000E+00 -0.15417843387E+03  0.15417843387E+03  0.00000000000E+00 0.  1.
         35    2    1    2    0    0  0.00000000000E+00  0.00000000000E+00 -0.30637844519E+02  0.27771902322E+03  0.27602387278E+03 0.  0.
         25    1    3    3    0    0  0.76565903226E+01 -0.62916460388E+02  0.99388367092E+01  0.13607308638E+03  0.12000000000E+03 0.  0.
         25    1    3    3    0    0 -0.76565903226E+01  0.62916460388E+02 -0.40576681228E+02  0.14164593684E+03  0.12000000000E+03 0.  0.
<mgrwt>
<rscale>  0 0.27602387E+03</rscale>
<asrwt>0</asrwt>
<pdfrwt beam="1">  1        2 0.19006245E-01 0.27602387E+03</pdfrwt>
<pdfrwt beam="2">  1       -2 0.23719759E-01 0.27602387E+03</pdfrwt>
<totfact> 0.45688514E+03</totfact>
</mgrwt>
</event>
<event>
 5    1  0.1100736E+001  0.2744679E+03  0.7818608E-02  0.1098749E+00
          2   -1    0    0  501    0  0.00000000000E+00  0.00000000000E+00  0.21220222032E+04  0.21220222032E+04  0.00000000000E+00 0.  1.
         -2   -1    0    0    0  501 -0.00000000000E+00 -0.00000000000E+00 -0.88750958337E+01  0.88750958337E+01  0.00000000000E+00 0.  1.
         35    2    1    2    0    0  0.00000000000E+00  0.00000000000E+00  0.21131471073E+04  0.21308972990E+04  0.27446785177E+03 0.  0.
         25    1    3    3    0    0  0.11657037357E+02 -0.15345431318E+02  0.15513731326E+04  0.15561265904E+04  0.12000000000E+03 0.  0.
         25    1    3    3    0    0 -0.11657037357E+02  0.15345431318E+02  0.56177397470E+03  0.57477070857E+03  0.12000000000E+03 0.  0.
<mgrwt>
<rscale>  0 0.27446785E+03</rscale>
<asrwt>0</asrwt>
<pdfrwt beam="1">  1        2 0.32646455E+00 0.27446785E+03</pdfrwt>
<pdfrwt beam="2">  1       -2 0.13654011E-02 0.27446785E+03</pdfrwt>
<totfact> 0.86714392E+03</totfact>
</mgrwt>
</event>
<event>
 5    1  0.1100736E+001  0.2757675E+03  0.7818608E-02  0.1098023E+00
          2   -1    0    0  501    0  0.00000000000E+00  0.00000000000E+00  0.16337940244E+03  0.16337940244E+03  0.00000000000E+00 0. -1.
         -2   -1    0    0    0  501 -0.00000000000E+00 -0.00000000000E+00 -0.11636674915E+03  0.11636674915E+03  0.00000000000E+00 0. -1.
         35    2    1    2    0    0  0.00000000000E+00  0.00000000000E+00  0.47012653297E+02  0.27974615159E+03  0.27576751034E+03 0.  0.
         25    1    3    3    0    0 -0.61433368653E+02  0.60115834187E+01  0.52229712828E+02  0.14470017561E+03  0.12000000000E+03 0.  0.
         25    1    3    3    0    0  0.61433368653E+02 -0.60115834187E+01 -0.52170595309E+01  0.13504597598E+03  0.12000000000E+03 0.  0.
<mgrwt>
<rscale>  0 0.27576751E+03</rscale>
<asrwt>0</asrwt>
<pdfrwt beam="1">  1        2 0.25135293E-01 0.27576751E+03</pdfrwt>
<pdfrwt beam="2">  1       -2 0.17902577E-01 0.27576751E+03</pdfrwt>
<totfact> 0.53957985E+03</totfact>
</mgrwt>
</event>
<event>
 5    1  0.1100736E+001  0.2705477E+03  0.7818608E-02  0.1100967E+00
          2   -1    0    0  501    0  0.00000000000E+00  0.00000000000E+00  0.11128437692E+04  0.11128437692E+04  0.00000000000E+00 0. -1.
         -2   -1    0    0    0  501 -0.00000000000E+00 -0.00000000000E+00 -0.16443467336E+02  0.16443467336E+02  0.00000000000E+00 0. -1.
         35    2    1    2    0    0  0.00000000000E+00  0.00000000000E+00  0.10964003018E+04  0.11292872365E+04  0.27054766802E+03 0.  0.
         25    1    3    3    0    0 -0.31389926340E+02  0.52130375179E+02  0.48974714972E+03  0.50789287665E+03  0.12000000000E+03 0.  0.
         25    1    3    3    0    0  0.31389926340E+02 -0.52130375179E+02  0.60665315212E+03  0.62139435987E+03  0.12000000000E+03 0.  0.
<mgrwt>
<rscale>  0 0.27054767E+03</rscale>
<asrwt>0</asrwt>
<pdfrwt beam="1">  1        2 0.17120667E+00 0.27054767E+03</pdfrwt>
<pdfrwt beam="2">  1       -2 0.25297651E-02 0.27054767E+03</pdfrwt>
<totfact> 0.12228173E+04</totfact>
</mgrwt>
</event>
<event>
 5    1  0.1100736E+001  0.2770595E+03  0.7818608E-02  0.1097306E+00
         -2   -1    0    0    0  501 -0.00000000000E+00  0.00000000000E+00  0.22517127181E+02  0.22517127181E+02  0.00000000000E+00 0.  1.
          2   -1    0    0  501    0  0.00000000000E+00 -0.00000000000E+00 -0.85226223686E+03  0.85226223686E+03  0.00000000000E+00 0.  1.
         35    2    1    2    0    0  0.00000000000E+00  0.00000000000E+00 -0.82974510968E+03  0.87477936404E+03  0.27705954002E+03 0.  0.
         25    1    3    3    0    0  0.15979625672E+02 -0.50153751472E+02 -0.27297522463E+03  0.30279732575E+03  0.12000000000E+03 0.  0.
         25    1    3    3    0    0 -0.15979625672E+02  0.50153751472E+02 -0.55676988506E+03  0.57198203829E+03  0.12000000000E+03 0.  0.
<mgrwt>
<rscale>  0 0.27705954E+03</rscale>
<asrwt>0</asrwt>
<pdfrwt beam="1">  1        2 0.13111726E+00 0.27705954E+03</pdfrwt>
<pdfrwt beam="2">  1       -2 0.34641737E-02 0.27705954E+03</pdfrwt>
<totfact> 0.11122240E+04</totfact>
</mgrwt>
</event>
<event>
 5    1  0.1100736E+001  0.2745147E+03  0.7818608E-02  0.1098723E+00
         -2   -1    0    0    0  501 -0.00000000000E+00  0.00000000000E+00  0.10560734648E+03  0.10560734648E+03  0.00000000000E+00 0.  1.
          2   -1    0    0  501    0  0.00000000000E+00 -0.00000000000E+00 -0.17839266200E+03  0.17839266200E+03  0.00000000000E+00 0.  1.
         35    2    1    2    0    0  0.00000000000E+00  0.00000000000E+00 -0.72785315522E+02  0.28400000849E+03  0.27451466749E+03 0.  0.
         25    1    3    3    0    0  0.42845797858E+02 -0.37077238233E+02 -0.72662439146E+02  0.15129545285E+03  0.12000000000E+03 0.  0.
         25    1    3    3    0    0 -0.42845797858E+02  0.37077238233E+02 -0.12287637626E+00  0.13270455564E+03  0.12000000000E+03 0.  0.
<mgrwt>
<rscale>  0 0.27451467E+03</rscale>
<asrwt>0</asrwt>
<pdfrwt beam="1">  1        2 0.27445025E-01 0.27451467E+03</pdfrwt>
<pdfrwt beam="2">  1       -2 0.16247284E-01 0.27451467E+03</pdfrwt>
<totfact> 0.57565386E+03</totfact>
</mgrwt>
</event>
<event>
 5    1  0.1100736E+001  0.2746990E+03  0.7818608E-02  0.1098620E+00
         -2   -1    0    0    0  501 -0.00000000000E+00  0.00000000000E+00  0.62752443445E+01  0.62752443445E+01  0.00000000000E+00 0.  1.
          2   -1    0    0  501    0  0.00000000000E+00 -0.00000000000E+00 -0.30062399824E+04  0.30062399824E+04  0.00000000000E+00 0.  1.
         35    2    1    2    0    0  0.00000000000E+00  0.00000000000E+00 -0.29999647381E+04  0.30125152268E+04  0.27469903857E+03 0.  0.
         25    1    3    3    0    0 -0.18468302731E+02  0.37406747816E+01 -0.79693677559E+03  0.80614098962E+03  0.12000000000E+03 0.  0.
         25    1    3    3    0    0  0.18468302731E+02 -0.37406747816E+01 -0.22030279625E+04  0.22063742372E+04  0.12000000000E+03 0.  0.
<mgrwt>
<rscale>  0 0.27469904E+03</rscale>
<asrwt>0</asrwt>
<pdfrwt beam="1">  1        2 0.46249992E+00 0.27469904E+03</pdfrwt>
<pdfrwt beam="2">  1       -2 0.96541917E-03 0.27469904E+03</pdfrwt>
<totfact> 0.46358945E+03</totfact>
</mgrwt>
</event>
<event>
 5    1  0.1100736E+001  0.2748245E+03  0.7818608E-02  0.1098550E+00
         -2   -1    0    0    0  501 -0.00000000000E+00  0.00000000000E+00  0.25659107288E+02  0.25659107288E+02  0.00000000000E+00 0.  1.
          2   -1    0    0  501    0  0.00000000000E+00 -0.00000000000E+00 -0.73588389068E+03  0.73588389068E+03  0.00000000000E+00 0.  1.
         35    2    1    2    0    0  0.00000000000E+00  0.00000000000E+00 -0.71022478339E+03  0.76154299797E+03  0.27482448001E+03 0.  0.
         25    1    3    3    0    0  0.36257032652E+02  0.51514063553E+02 -0.41792665479E+03  0.43935288772E+03  0.12000000000E+03 0.  0.
         25    1    3    3    0    0 -0.36257032652E+02 -0.51514063553E+02 -0.29229812860E+03  0.32219011025E+03  0.12000000000E+03 0.  0.
<mgrwt>
<rscale>  0 0.27482448E+03</rscale>
<asrwt>0</asrwt>
<pdfrwt beam="1">  1        2 0.11321292E+00 0.27482448E+03</pdfrwt>
<pdfrwt beam="2">  1       -2 0.39475543E-02 0.27482448E+03</pdfrwt>
<totfact> 0.11012906E+04</totfact>
</mgrwt>
</event>
<event>
 5    1  0.1100736E+001  0.2747029E+03  0.7818608E-02  0.1098618E+00
         -2   -1    0    0    0  501 -0.00000000000E+00  0.00000000000E+00  0.10565696700E+04  0.10565696700E+04  0.00000000000E+00 0. -1.
          2   -1    0    0  501    0  0.00000000000E+00 -0.00000000000E+00 -0.17855343625E+02  0.17855343625E+02  0.00000000000E+00 0. -1.
         35    2    1    2    0    0  0.00000000000E+00  0.00000000000E+00  0.10387143264E+04  0.10744250136E+04  0.27470285417E+03 0.  0.
         25    1    3    3    0    0  0.33574296485E+02 -0.75113857490E+01  0.29529611563E+03  0.32059858111E+03  0.12000000000E+03 0.  0.
         25    1    3    3    0    0 -0.33574296485E+02  0.75113857490E+01  0.74341821076E+03  0.75382643254E+03  0.12000000000E+03 0.  0.
<mgrwt>
<rscale>  0 0.27470285E+03</rscale>
<asrwt>0</asrwt>
<pdfrwt beam="1">  1        2 0.27469768E-02 0.27470285E+03</pdfrwt>
<pdfrwt beam="2">  1       -2 0.16254913E+00 0.27470285E+03</pdfrwt>
<totfact> 0.90770000E+02</totfact>
</mgrwt>
</event>
<event>
 5    1  0.1100736E+001  0.2749064E+03  0.7818608E-02  0.1098504E+00
         -2   -1    0    0    0  501 -0.00000000000E+00  0.00000000000E+00  0.19830270783E+02  0.19830270783E+02  0.00000000000E+00 0. -1.
          2   -1    0    0  501    0  0.00000000000E+00 -0.00000000000E+00 -0.95275434263E+03  0.95275434263E+03  0.00000000000E+00 0. -1.
         35    2    1    2    0    0  0.00000000000E+00  0.00000000000E+00 -0.93292407185E+03  0.97258461342E+03  0.27490635936E+03 0.  0.
         25    1    3    3    0    0  0.43050102403E+02  0.50877897721E+02 -0.49185225841E+03  0.51064715400E+03  0.12000000000E+03 0.  0.
         25    1    3    3    0    0 -0.43050102403E+02 -0.50877897721E+02 -0.44107181345E+03  0.46193745941E+03  0.12000000000E+03 0.  0.
<mgrwt>
<rscale>  0 0.27490636E+03</rscale>
<asrwt>0</asrwt>
<pdfrwt beam="1">  1        2 0.14657760E+00 0.27490636E+03</pdfrwt>
<pdfrwt beam="2">  1       -2 0.30508106E-02 0.27490636E+03</pdfrwt>
<totfact> 0.11576247E+04</totfact>
</mgrwt>
</event>
<event>
 5    1  0.1100736E+001  0.2737534E+03  0.7818608E-02  0.1099150E+00
          1   -1    0    0  501    0  0.00000000000E+00  0.00000000000E+00  0.29303077539E+03  0.29303077539E+03  0.00000000000E+00 0. -1.
         -1   -1    0    0    0  501 -0.00000000000E+00 -0.00000000000E+00 -0.63936049226E+02  0.63936049226E+02  0.00000000000E+00 0. -1.
         35    2    1    2    0    0  0.00000000000E+00  0.00000000000E+00  0.22909472616E+03  0.35696682461E+03  0.27375339326E+03 0.  0.
         25    1    3    3    0    0  0.18066565432E+02 -0.62050167407E+02  0.98125282610E+02  0.16794402386E+03  0.12000000000E+03 0.  0.
         25    1    3    3    0    0 -0.18066565432E+02  0.62050167407E+02  0.13096944355E+03  0.18902280076E+03  0.12000000000E+03 0.  0.
<mgrwt>
<rscale>  0 0.27375339E+03</rscale>
<asrwt>0</asrwt>
<pdfrwt beam="1">  1        1 0.45081657E-01 0.27375339E+03</pdfrwt>
<pdfrwt beam="2">  1       -1 0.98363154E-02 0.27375339E+03</pdfrwt>
<totfact> 0.56069475E+03</totfact>
</mgrwt>
</event>
<event>
 5    1  0.1100736E+001  0.2757507E+03  0.7818608E-02  0.1098033E+00
         -2   -1    0    0    0  501 -0.00000000000E+00  0.00000000000E+00  0.15241480782E+03  0.15241480782E+03  0.00000000000E+00 0.  1.
          2   -1    0    0  501    0  0.00000000000E+00 -0.00000000000E+00 -0.12472285128E+03  0.12472285128E+03  0.00000000000E+00 0.  1.
         35    2    1    2    0    0  0.00000000000E+00  0.00000000000E+00  0.27691956533E+02  0.27713765910E+03  0.27575068021E+03 0.  0.
         25    1    3    3    0    0  0.27064629308E+02 -0.57395054736E+02 -0.10419258075E+02  0.13614421547E+03  0.12000000000E+03 0.  0.
         25    1    3    3    0    0 -0.27064629308E+02  0.57395054736E+02  0.38111214608E+02  0.14099344363E+03  0.12000000000E+03 0.  0.
<mgrwt>
<rscale>  0 0.27575068E+03</rscale>
<asrwt>0</asrwt>
<pdfrwt beam="1">  1        2 0.19188131E-01 0.27575068E+03</pdfrwt>
<pdfrwt beam="2">  1       -2 0.23448432E-01 0.27575068E+03</pdfrwt>
<totfact> 0.46107582E+03</totfact>
</mgrwt>
</event>
<event>
 5    1  0.1100736E+001  0.2748222E+03  0.7818608E-02  0.1098551E+00
          1   -1    0    0  501    0  0.00000000000E+00  0.00000000000E+00  0.22906551995E+02  0.22906551995E+02  0.00000000000E+00 0.  1.
         -1   -1    0    0    0  501 -0.00000000000E+00 -0.00000000000E+00 -0.82429713660E+03  0.82429713660E+03  0.00000000000E+00 0.  1.
         35    2    1    2    0    0  0.00000000000E+00  0.00000000000E+00 -0.80139058461E+03  0.84720368860E+03  0.27482216227E+03 0.  0.
         25    1    3    3    0    0 -0.29823528508E+02 -0.58174558372E+02 -0.35622658387E+03  0.38153781090E+03  0.12000000000E+03 0.  0.
         25    1    3    3    0    0  0.29823528508E+02  0.58174558372E+02 -0.44516400074E+03  0.46566587769E+03  0.12000000000E+03 0.  0.
<mgrwt>
<rscale>  0 0.27482216E+03</rscale>
<asrwt>0</asrwt>
<pdfrwt beam="1">  1        1 0.35240851E-02 0.27482216E+03</pdfrwt>
<pdfrwt beam="2">  1       -1 0.12681494E+00 0.27482216E+03</pdfrwt>
<totfact> 0.15709883E+03</totfact>
</mgrwt>
</event>
<event>
 5    1  0.1100736E+001  0.2742181E+03  0.7818608E-02  0.1098889E+00
          2   -1    0    0  501    0  0.00000000000E+00  0.00000000000E+00  0.71220454091E+02  0.71220454091E+02  0.00000000000E+00 0. -1.
         -2   -1    0    0    0  501 -0.00000000000E+00 -0.00000000000E+00 -0.26395362558E+03  0.26395362558E+03  0.00000000000E+00 0. -1.
         35    2    1    2    0    0  0.00000000000E+00  0.00000000000E+00 -0.19273317149E+03  0.33517407967E+03  0.27421813997E+03 0.  0.
         25    1    3    3    0    0  0.60994204598E+02  0.24351173730E+02 -0.10767685793E+03  0.17409071885E+03  0.12000000000E+03 0.  0.
         25    1    3    3    0    0 -0.60994204598E+02 -0.24351173730E+02 -0.85056313558E+02  0.16108336082E+03  0.12000000000E+03 0.  0.
<mgrwt>
<rscale>  0 0.27421814E+03</rscale>
<asrwt>0</asrwt>
<pdfrwt beam="1">  1        2 0.10956993E-01 0.27421814E+03</pdfrwt>
<pdfrwt beam="2">  1       -2 0.40608249E-01 0.27421814E+03</pdfrwt>
<totfact> 0.32935098E+03</totfact>
</mgrwt>
</event>
<event>
 5    1  0.1100736E+001  0.2745384E+03  0.7818608E-02  0.1098710E+00
          2   -1    0    0  501    0  0.00000000000E+00  0.00000000000E+00  0.39689792596E+03  0.39689792596E+03  0.00000000000E+00 0. -1.
         -2   -1    0    0    0  501 -0.00000000000E+00 -0.00000000000E+00 -0.47475264637E+02  0.47475264637E+02  0.00000000000E+00 0. -1.
         35    2    1    2    0    0  0.00000000000E+00  0.00000000000E+00  0.34942266132E+03  0.44437319060E+03  0.27453840583E+03 0.  0.
         25    1    3    3    0    0  0.77282859588E+00 -0.49593926882E+02  0.24678406016E+03  0.27885933228E+03  0.12000000000E+03 0.  0.
         25    1    3    3    0    0 -0.77282859588E+00  0.49593926882E+02  0.10263860116E+03  0.16551385832E+03  0.12000000000E+03 0.  0.
<mgrwt>
<rscale>  0 0.27453841E+03</rscale>
<asrwt>0</asrwt>
<pdfrwt beam="1">  1        2 0.61061217E-01 0.27453841E+03</pdfrwt>
<pdfrwt beam="2">  1       -2 0.73038871E-02 0.27453841E+03</pdfrwt>
<totfact> 0.87214253E+03</totfact>
</mgrwt>
</event>
<event>
 5    1  0.1100736E+001  0.2746093E+03  0.7818608E-02  0.1098670E+00
         -2   -1    0    0    0  501 -0.00000000000E+00  0.00000000000E+00  0.88658115312E+02  0.88658115312E+02  0.00000000000E+00 0. -1.
          2   -1    0    0  501    0  0.00000000000E+00 -0.00000000000E+00 -0.21264337234E+03  0.21264337234E+03  0.00000000000E+00 0. -1.
         35    2    1    2    0    0  0.00000000000E+00  0.00000000000E+00 -0.12398525703E+03  0.30130148765E+03  0.27460925421E+03 0.  0.
         25    1    3    3    0    0 -0.48769678032E+02  0.84338316803E+01 -0.12888148177E+02  0.13044429990E+03  0.12000000000E+03 0.  0.
         25    1    3    3    0    0  0.48769678032E+02 -0.84338316803E+01 -0.11109710885E+03  0.17085718775E+03  0.12000000000E+03 0.  0.
<mgrwt>
<rscale>  0 0.27460925E+03</rscale>
<asrwt>0</asrwt>
<pdfrwt beam="1">  1        2 0.32714365E-01 0.27460925E+03</pdfrwt>
<pdfrwt beam="2">  1       -2 0.13639710E-01 0.27460925E+03</pdfrwt>
<totfact> 0.63366361E+03</totfact>
</mgrwt>
</event>
<event>
 5    1  0.1100736E+001  0.2743623E+03  0.7818608E-02  0.1098809E+00
          1   -1    0    0  501    0  0.00000000000E+00  0.00000000000E+00  0.65861571679E+03  0.65861571679E+03  0.00000000000E+00 0. -1.
         -1   -1    0    0    0  501 -0.00000000000E+00 -0.00000000000E+00 -0.28573071787E+02  0.28573071787E+02  0.00000000000E+00 0. -1.
         35    2    1    2    0    0  0.00000000000E+00  0.00000000000E+00  0.63004264500E+03  0.68718878858E+03  0.27436234549E+03 0.  0.
         25    1    3    3    0    0  0.15784446664E+02 -0.63276355469E+02  0.28278698498E+03  0.31404064194E+03  0.12000000000E+03 0.  0.
         25    1    3    3    0    0 -0.15784446664E+02  0.63276355469E+02  0.34725566002E+03  0.37314814664E+03  0.12000000000E+03 0.  0.
<mgrwt>
<rscale>  0 0.27436235E+03</rscale>
<asrwt>0</asrwt>
<pdfrwt beam="1">  1        1 0.10132548E+00 0.27436235E+03</pdfrwt>
<pdfrwt beam="2">  1       -1 0.43958577E-02 0.27436235E+03</pdfrwt>
<totfact> 0.65577287E+03</totfact>
</mgrwt>
</event>
<event>
 5    1  0.1100736E+001  0.2726296E+03  0.7818608E-02  0.1099784E+00
         -2   -1    0    0    0  501 -0.00000000000E+00  0.00000000000E+00  0.94452896512E+02  0.94452896512E+02  0.00000000000E+00 0. -1.
          2   -1    0    0  501    0  0.00000000000E+00 -0.00000000000E+00 -0.19673004386E+03  0.19673004386E+03  0.00000000000E+00 0. -1.
         35    2    1    2    0    0  0.00000000000E+00  0.00000000000E+00 -0.10227714735E+03  0.29118294038E+03  0.27262958368E+03 0.  0.
         25    1    3    3    0    0 -0.59829417215E+02  0.21801724971E+02 -0.63167723294E+02  0.14981667345E+03  0.12000000000E+03 0.  0.
         25    1    3    3    0    0  0.59829417215E+02 -0.21801724971E+02 -0.39109424058E+02  0.14136626693E+03  0.12000000000E+03 0.  0.
<mgrwt>
<rscale>  0 0.27262958E+03</rscale>
<asrwt>0</asrwt>
<pdfrwt beam="1">  1        2 0.30266160E-01 0.27262958E+03</pdfrwt>
<pdfrwt beam="2">  1       -2 0.14531215E-01 0.27262958E+03</pdfrwt>
<totfact> 0.62166727E+03</totfact>
</mgrwt>
</event>
<event>
 5    1  0.1100736E+001  0.2747701E+03  0.7818608E-02  0.1098580E+00
          2   -1    0    0  501    0  0.00000000000E+00  0.00000000000E+00  0.96241510401E+03  0.96241510401E+03  0.00000000000E+00 0. -1.
         -2   -1    0    0    0  501 -0.00000000000E+00 -0.00000000000E+00 -0.19611755221E+02  0.19611755221E+02  0.00000000000E+00 0. -1.
         35    2    1    2    0    0  0.00000000000E+00  0.00000000000E+00  0.94280334879E+03  0.98202685923E+03  0.27477008164E+03 0.  0.
         25    1    3    3    0    0  0.10615505365E+01  0.40962108434E+02  0.28243133997E+03  0.30959083161E+03  0.12000000000E+03 0.  0.
         25    1    3    3    0    0 -0.10615505365E+01 -0.40962108434E+02  0.66037200882E+03  0.67243602762E+03  0.12000000000E+03 0.  0.
<mgrwt>
<rscale>  0 0.27477008E+03</rscale>
<asrwt>0</asrwt>
<pdfrwt beam="1">  1        2 0.14806383E+00 0.27477008E+03</pdfrwt>
<pdfrwt beam="2">  1       -2 0.30171938E-02 0.27477008E+03</pdfrwt>
<totfact> 0.11605986E+04</totfact>
</mgrwt>
</event>
<event>
 5    1  0.1100736E+001  0.2748007E+03  0.7818608E-02  0.1098563E+00
         -2   -1    0    0    0  501 -0.00000000000E+00  0.00000000000E+00  0.29323674568E+02  0.29323674568E+02  0.00000000000E+00 0. -1.
          2   -1    0    0  501    0  0.00000000000E+00 -0.00000000000E+00 -0.64380921399E+03  0.64380921399E+03  0.00000000000E+00 0. -1.
         35    2    1    2    0    0  0.00000000000E+00  0.00000000000E+00 -0.61448553943E+03  0.67313288856E+03  0.27480066867E+03 0.  0.
         25    1    3    3    0    0 -0.26662466635E+02  0.35733401878E+01 -0.15713632830E+03  0.19953817068E+03  0.12000000000E+03 0.  0.
         25    1    3    3    0    0  0.26662466635E+02 -0.35733401878E+01 -0.45734921112E+03  0.47359471788E+03  0.12000000000E+03 0.  0.
<mgrwt>
<rscale>  0 0.27480067E+03</rscale>
<asrwt>0</asrwt>
<pdfrwt beam="1">  1        2 0.99047573E-01 0.27480067E+03</pdfrwt>
<pdfrwt beam="2">  1       -2 0.45113345E-02 0.27480067E+03</pdfrwt>
<totfact> 0.10582543E+04</totfact>
</mgrwt>
</event>
<event>
 5    1  0.1100736E+001  0.2753367E+03  0.7818608E-02  0.1098264E+00
          2   -1    0    0  501    0  0.00000000000E+00  0.00000000000E+00  0.15083650461E+04  0.15083650461E+04  0.00000000000E+00 0. -1.
         -2   -1    0    0    0  501 -0.00000000000E+00 -0.00000000000E+00 -0.12564978280E+02  0.12564978280E+02  0.00000000000E+00 0. -1.
         35    2    1    2    0    0  0.00000000000E+00  0.00000000000E+00  0.14958000678E+04  0.15209300243E+04  0.27533669601E+03 0.  0.
         25    1    3    3    0    0  0.57007971087E+02  0.15505669893E+02  0.56786527759E+03  0.58340492633E+03  0.12000000000E+03 0.  0.
         25    1    3    3    0    0 -0.57007971087E+02 -0.15505669893E+02  0.92793479019E+03  0.93752509801E+03  0.12000000000E+03 0.  0.
<mgrwt>
<rscale>  0 0.27533670E+03</rscale>
<asrwt>0</asrwt>
<pdfrwt beam="1">  1        2 0.23205602E+00 0.27533670E+03</pdfrwt>
<pdfrwt beam="2">  1       -2 0.19330748E-02 0.27533670E+03</pdfrwt>
<totfact> 0.10976382E+04</totfact>
</mgrwt>
</event>
<event>
 5    1  0.1100736E+001  0.2750799E+03  0.7818608E-02  0.1098407E+00
          1   -1    0    0  501    0  0.00000000000E+00  0.00000000000E+00  0.16454206962E+04  0.16454206962E+04  0.00000000000E+00 0. -1.
         -1   -1    0    0    0  501 -0.00000000000E+00 -0.00000000000E+00 -0.11496903046E+02  0.11496903046E+02  0.00000000000E+00 0. -1.
         35    2    1    2    0    0  0.00000000000E+00  0.00000000000E+00  0.16339237932E+04  0.16569175993E+04  0.27507993176E+03 0.  0.
         25    1    3    3    0    0 -0.62605917537E+02  0.22530851869E+02  0.87413730332E+03  0.88484075700E+03  0.12000000000E+03 0.  0.
         25    1    3    3    0    0  0.62605917537E+02 -0.22530851869E+02  0.75978648988E+03  0.77207684229E+03  0.12000000000E+03 0.  0.
<mgrwt>
<rscale>  0 0.27507993E+03</rscale>
<asrwt>0</asrwt>
<pdfrwt beam="1">  1        1 0.25314146E+00 0.27507993E+03</pdfrwt>
<pdfrwt beam="2">  1       -1 0.17687556E-02 0.27507993E+03</pdfrwt>
<totfact> 0.47103736E+03</totfact>
</mgrwt>
</event>
<event>
 5    1  0.1100736E+001  0.2748924E+03  0.7818608E-02  0.1098512E+00
         -1   -1    0    0    0  501 -0.00000000000E+00  0.00000000000E+00  0.52352968056E+03  0.52352968056E+03  0.00000000000E+00 0. -1.
          1   -1    0    0  501    0  0.00000000000E+00 -0.00000000000E+00 -0.36084785426E+02  0.36084785426E+02  0.00000000000E+00 0. -1.
         35    2    1    2    0    0  0.00000000000E+00  0.00000000000E+00  0.48744489513E+03  0.55961446599E+03  0.27489238758E+03 0.  0.
         25    1    3    3    0    0  0.32755385889E+01  0.38253440786E+02  0.35554843862E+03  0.37721180667E+03  0.12000000000E+03 0.  0.
         25    1    3    3    0    0 -0.32755385889E+01 -0.38253440786E+02  0.13189645651E+03  0.18240265932E+03  0.12000000000E+03 0.  0.
<mgrwt>
<rscale>  0 0.27489239E+03</rscale>
<asrwt>0</asrwt>
<pdfrwt beam="1">  1        1 0.55515058E-02 0.27489239E+03</pdfrwt>
<pdfrwt beam="2">  1       -1 0.80543022E-01 0.27489239E+03</pdfrwt>
<totfact> 0.23104157E+03</totfact>
</mgrwt>
</event>
<event>
 5    1  0.1100736E+001  0.2737105E+03  0.7818608E-02  0.1099175E+00
          2   -1    0    0  501    0  0.00000000000E+00  0.00000000000E+00  0.11721401616E+03  0.11721401616E+03  0.00000000000E+00 0.  1.
         -2   -1    0    0    0  501 -0.00000000000E+00 -0.00000000000E+00 -0.15978765972E+03  0.15978765972E+03  0.00000000000E+00 0.  1.
         35    2    1    2    0    0  0.00000000000E+00  0.00000000000E+00 -0.42573643563E+02  0.27700167588E+03  0.27371045525E+03 0.  0.
         25    1    3    3    0    0  0.48183894035E+02 -0.32227255693E+02  0.10217382228E+02  0.13365881398E+03  0.12000000000E+03 0.  0.
         25    1    3    3    0    0 -0.48183894035E+02  0.32227255693E+02 -0.52791025791E+02  0.14334286190E+03  0.12000000000E+03 0.  0.
<mgrwt>
<rscale>  0 0.27371046E+03</rscale>
<asrwt>0</asrwt>
<pdfrwt beam="1">  1        2 0.18032926E-01 0.27371046E+03</pdfrwt>
<pdfrwt beam="2">  1       -2 0.24582717E-01 0.27371046E+03</pdfrwt>
<totfact> 0.45585801E+03</totfact>
</mgrwt>
</event>
<event>
 5    1  0.1100736E+001  0.2752129E+03  0.7818608E-02  0.1098333E+00
         -1   -1    0    0    0  501 -0.00000000000E+00  0.00000000000E+00  0.44316959660E+02  0.44316959660E+02  0.00000000000E+00 0.  1.
          1   -1    0    0  501    0  0.00000000000E+00 -0.00000000000E+00 -0.42727503259E+03  0.42727503259E+03  0.00000000000E+00 0.  1.
         35    2    1    2    0    0  0.00000000000E+00  0.00000000000E+00 -0.38295807293E+03  0.47159199225E+03  0.27521286586E+03 0.  0.
         25    1    3    3    0    0  0.28193050278E+02 -0.34245109493E+02 -0.27831334989E+03  0.30631013097E+03  0.12000000000E+03 0.  0.
         25    1    3    3    0    0 -0.28193050278E+02  0.34245109493E+02 -0.10464472304E+03  0.16528186128E+03  0.12000000000E+03 0.  0.
<mgrwt>
<rscale>  0 0.27521287E+03</rscale>
<asrwt>0</asrwt>
<pdfrwt beam="1">  1        1 0.65734622E-01 0.27521287E+03</pdfrwt>
<pdfrwt beam="2">  1       -1 0.68179937E-02 0.27521287E+03</pdfrwt>
<totfact> 0.60827619E+03</totfact>
</mgrwt>
</event>
<event>
 5    1  0.1100736E+001  0.2769224E+03  0.7818608E-02  0.1097382E+00
          2   -1    0    0  501    0  0.00000000000E+00  0.00000000000E+00  0.13000676850E+04  0.13000676850E+04  0.00000000000E+00 0. -1.
         -2   -1    0    0    0  501 -0.00000000000E+00 -0.00000000000E+00 -0.14746546300E+02  0.14746546300E+02  0.00000000000E+00 0. -1.
         35    2    1    2    0    0  0.00000000000E+00  0.00000000000E+00  0.12853211387E+04  0.13148142313E+04  0.27692243182E+03 0.  0.
         25    1    3    3    0    0 -0.36057239331E+02  0.44056731782E+02  0.45691987624E+03  0.47583284189E+03  0.12000000000E+03 0.  0.
         25    1    3    3    0    0  0.36057239331E+02 -0.44056731782E+02  0.82840126250E+03  0.83898138945E+03  0.12000000000E+03 0.  0.
<mgrwt>
<rscale>  0 0.27692243E+03</rscale>
<asrwt>0</asrwt>
<pdfrwt beam="1">  1        2 0.20001032E+00 0.27692243E+03</pdfrwt>
<pdfrwt beam="2">  1       -2 0.22687005E-02 0.27692243E+03</pdfrwt>
<totfact> 0.11252726E+04</totfact>
</mgrwt>
</event>
<event>
 5    1  0.1100736E+001  0.2820719E+03  0.7818608E-02  0.1094563E+00
          2   -1    0    0  501    0  0.00000000000E+00  0.00000000000E+00  0.15601954588E+04  0.15601954588E+04  0.00000000000E+00 0.  1.
         -2   -1    0    0    0  501 -0.00000000000E+00 -0.00000000000E+00 -0.12749130955E+02  0.12749130955E+02  0.00000000000E+00 0.  1.
         35    2    1    2    0    0  0.00000000000E+00  0.00000000000E+00  0.15474463279E+04  0.15729445898E+04  0.28207187893E+03 0.  0.
         25    1    3    3    0    0  0.22497147361E+02  0.22147827024E+02  0.39987628308E+03  0.41868566927E+03  0.12000000000E+03 0.  0.
         25    1    3    3    0    0 -0.22497147361E+02 -0.22147827024E+02  0.11475700448E+04  0.11542589205E+04  0.12000000000E+03 0.  0.
<mgrwt>
<rscale>  0 0.28207188E+03</rscale>
<asrwt>0</asrwt>
<pdfrwt beam="1">  1        2 0.24002992E+00 0.28207188E+03</pdfrwt>
<pdfrwt beam="2">  1       -2 0.19614060E-02 0.28207188E+03</pdfrwt>
<totfact> 0.10085857E+04</totfact>
</mgrwt>
</event>
<event>
 5    1  0.1100736E+001  0.2763072E+03  0.7818608E-02  0.1097723E+00
          2   -1    0    0  501    0  0.00000000000E+00  0.00000000000E+00  0.77452976901E+03  0.77452976901E+03  0.00000000000E+00 0. -1.
         -2   -1    0    0    0  501 -0.00000000000E+00 -0.00000000000E+00 -0.24642594332E+02  0.24642594332E+02  0.00000000000E+00 0. -1.
         35    2    1    2    0    0  0.00000000000E+00  0.00000000000E+00  0.74988717468E+03  0.79917236334E+03  0.27630724128E+03 0.  0.
         25    1    3    3    0    0  0.78386681612E+01  0.60238723622E+02  0.46623662657E+03  0.48524915301E+03  0.12000000000E+03 0.  0.
         25    1    3    3    0    0 -0.78386681612E+01 -0.60238723622E+02  0.28365054811E+03  0.31392321033E+03  0.12000000000E+03 0.  0.
<mgrwt>
<rscale>  0 0.27630724E+03</rscale>
<asrwt>0</asrwt>
<pdfrwt beam="1">  1        2 0.11915841E+00 0.27630724E+03</pdfrwt>
<pdfrwt beam="2">  1       -2 0.37911690E-02 0.27630724E+03</pdfrwt>
<totfact> 0.10981807E+04</totfact>
</mgrwt>
</event>
<event>
 5    1  0.1100736E+001  0.2751577E+03  0.7818608E-02  0.1098363E+00
         -2   -1    0    0    0  501 -0.00000000000E+00  0.00000000000E+00  0.26911126887E+02  0.26911126887E+02  0.00000000000E+00 0.  1.
          2   -1    0    0  501    0  0.00000000000E+00 -0.00000000000E+00 -0.70335005755E+03  0.70335005755E+03  0.00000000000E+00 0.  1.
         35    2    1    2    0    0  0.00000000000E+00  0.00000000000E+00 -0.67643893066E+03  0.73026118444E+03  0.27515771946E+03 0.  0.
         25    1    3    3    0    0 -0.39864166591E+02  0.35463135789E+02 -0.22940149147E+03  0.26433280172E+03  0.12000000000E+03 0.  0.
         25    1    3    3    0    0  0.39864166591E+02 -0.35463135789E+02 -0.44703743920E+03  0.46592838272E+03  0.12000000000E+03 0.  0.
<mgrwt>
<rscale>  0 0.27515772E+03</rscale>
<asrwt>0</asrwt>
<pdfrwt beam="1">  1        2 0.10820770E+00 0.27515772E+03</pdfrwt>
<pdfrwt beam="2">  1       -2 0.41401734E-02 0.27515772E+03</pdfrwt>
<totfact> 0.10835081E+04</totfact>
</mgrwt>
</event>
<event>
 5    1  0.1100736E+001  0.2747213E+03  0.7818608E-02  0.1098607E+00
          1   -1    0    0  501    0  0.00000000000E+00  0.00000000000E+00  0.62710547403E+03  0.62710547403E+03  0.00000000000E+00 0. -1.
         -1   -1    0    0    0  501 -0.00000000000E+00 -0.00000000000E+00 -0.30087357128E+02  0.30087357128E+02  0.00000000000E+00 0. -1.
         35    2    1    2    0    0  0.00000000000E+00  0.00000000000E+00  0.59701811690E+03  0.65719283116E+03  0.27472128679E+03 0.  0.
         25    1    3    3    0    0  0.57187235760E+02  0.32451890270E+02  0.26975851183E+03  0.30247836257E+03  0.12000000000E+03 0.  0.
         25    1    3    3    0    0 -0.57187235760E+02 -0.32451890270E+02  0.32725960507E+03  0.35471446859E+03  0.12000000000E+03 0.  0.
<mgrwt>
<rscale>  0 0.27472129E+03</rscale>
<asrwt>0</asrwt>
<pdfrwt beam="1">  1        1 0.96477756E-01 0.27472129E+03</pdfrwt>
<pdfrwt beam="2">  1       -1 0.46288246E-02 0.27472129E+03</pdfrwt>
<totfact> 0.65084126E+03</totfact>
</mgrwt>
</event>
<event>
 5    1  0.1100736E+001  0.2744915E+03  0.7818608E-02  0.1098736E+00
          1   -1    0    0  501    0  0.00000000000E+00  0.00000000000E+00  0.15893606107E+04  0.15893606107E+04  0.00000000000E+00 0.  1.
         -1   -1    0    0    0  501 -0.00000000000E+00 -0.00000000000E+00 -0.11851556410E+02  0.11851556410E+02  0.00000000000E+00 0.  1.
         35    2    1    2    0    0  0.00000000000E+00  0.00000000000E+00  0.15775090542E+04  0.16012121671E+04  0.27449150757E+03 0.  0.
         25    1    3    3    0    0 -0.64418532514E+02  0.16917334048E+02  0.79268247342E+03  0.80447588353E+03  0.12000000000E+03 0.  0.
         25    1    3    3    0    0  0.64418532514E+02 -0.16917334048E+02  0.78482658083E+03  0.79673628354E+03  0.12000000000E+03 0.  0.
<mgrwt>
<rscale>  0 0.27449151E+03</rscale>
<asrwt>0</asrwt>
<pdfrwt beam="1">  1        1 0.24451685E+00 0.27449151E+03</pdfrwt>
<pdfrwt beam="2">  1       -1 0.18233176E-02 0.27449151E+03</pdfrwt>
<totfact> 0.49041062E+03</totfact>
</mgrwt>
</event>
<event>
 5    1  0.1100736E+001  0.2750447E+03  0.7818608E-02  0.1098427E+00
         -2   -1    0    0    0  501 -0.00000000000E+00  0.00000000000E+00  0.12079711126E+02  0.12079711126E+02  0.00000000000E+00 0.  1.
          2   -1    0    0  501    0  0.00000000000E+00 -0.00000000000E+00 -0.15656333515E+04  0.15656333515E+04  0.00000000000E+00 0.  1.
         35    2    1    2    0    0  0.00000000000E+00  0.00000000000E+00 -0.15535536404E+04  0.15777130627E+04  0.27504471357E+03 0.  0.
         25    1    3    3    0    0  0.57603302698E+02  0.22321625919E+02 -0.92810866344E+03  0.93787103944E+03  0.12000000000E+03 0.  0.
         25    1    3    3    0    0 -0.57603302698E+02 -0.22321625919E+02 -0.62544497698E+03  0.63984202323E+03  0.12000000000E+03 0.  0.
<mgrwt>
<rscale>  0 0.27504471E+03</rscale>
<asrwt>0</asrwt>
<pdfrwt beam="1">  1        2 0.24086660E+00 0.27504471E+03</pdfrwt>
<pdfrwt beam="2">  1       -2 0.18584176E-02 0.27504471E+03</pdfrwt>
<totfact> 0.10840650E+04</totfact>
</mgrwt>
</event>
<event>
 5    1  0.1100736E+001  0.2754485E+03  0.7818608E-02  0.1098201E+00
          2   -1    0    0  501    0  0.00000000000E+00  0.00000000000E+00  0.25207113963E+03  0.25207113963E+03  0.00000000000E+00 0. -1.
         -2   -1    0    0    0  501 -0.00000000000E+00 -0.00000000000E+00 -0.75248487126E+02  0.75248487126E+02  0.00000000000E+00 0. -1.
         35    2    1    2    0    0  0.00000000000E+00  0.00000000000E+00  0.17682265251E+03  0.32731962676E+03  0.27544852082E+03 0.  0.
         25    1    3    3    0    0 -0.64162740731E+02  0.34004168514E+01  0.11332493390E+03  0.17711849360E+03  0.12000000000E+03 0.  0.
         25    1    3    3    0    0  0.64162740731E+02 -0.34004168514E+01  0.63497718604E+02  0.15020113315E+03  0.12000000000E+03 0.  0.
<mgrwt>
<rscale>  0 0.27544852E+03</rscale>
<asrwt>0</asrwt>
<pdfrwt beam="1">  1        2 0.38780175E-01 0.27544852E+03</pdfrwt>
<pdfrwt beam="2">  1       -2 0.11576690E-01 0.27544852E+03</pdfrwt>
<totfact> 0.68752106E+03</totfact>
</mgrwt>
</event>
<event>
 5    1  0.1100736E+001  0.2759820E+03  0.7818608E-02  0.1097904E+00
          1   -1    0    0  501    0  0.00000000000E+00  0.00000000000E+00  0.38596290590E+03  0.38596290590E+03  0.00000000000E+00 0.  1.
         -1   -1    0    0    0  501 -0.00000000000E+00 -0.00000000000E+00 -0.49335104284E+02  0.49335104284E+02  0.00000000000E+00 0.  1.
         35    2    1    2    0    0  0.00000000000E+00  0.00000000000E+00  0.33662780162E+03  0.43529801018E+03  0.27598202994E+03 0.  0.
         25    1    3    3    0    0 -0.67708767753E+02 -0.75109742020E+01  0.16956407773E+03  0.21861580094E+03  0.12000000000E+03 0.  0.
         25    1    3    3    0    0  0.67708767753E+02  0.75109742020E+01  0.16706372388E+03  0.21668220924E+03  0.12000000000E+03 0.  0.
<mgrwt>
<rscale>  0 0.27598203E+03</rscale>
<asrwt>0</asrwt>
<pdfrwt beam="1">  1        1 0.59378907E-01 0.27598203E+03</pdfrwt>
<pdfrwt beam="2">  1       -1 0.75900163E-02 0.27598203E+03</pdfrwt>
<totfact> 0.58896650E+03</totfact>
</mgrwt>
</event>
<event>
 5    1  0.1100736E+001  0.2753850E+03  0.7818608E-02  0.1098237E+00
          2   -1    0    0  501    0  0.00000000000E+00  0.00000000000E+00  0.70754051131E+03  0.70754051131E+03  0.00000000000E+00 0. -1.
         -2   -1    0    0    0  501 -0.00000000000E+00 -0.00000000000E+00 -0.26795950161E+02  0.26795950161E+02  0.00000000000E+00 0. -1.
         35    2    1    2    0    0  0.00000000000E+00  0.00000000000E+00  0.68074456114E+03  0.73433646147E+03  0.27538496893E+03 0.  0.
         25    1    3    3    0    0  0.57534203897E+02 -0.28458251593E+02  0.28449078551E+03  0.31536496911E+03  0.12000000000E+03 0.  0.
         25    1    3    3    0    0 -0.57534203897E+02  0.28458251593E+02  0.39625377564E+03  0.41897149236E+03  0.12000000000E+03 0.  0.
<mgrwt>
<rscale>  0 0.27538497E+03</rscale>
<asrwt>0</asrwt>
<pdfrwt beam="1">  1        2 0.10885237E+00 0.27538497E+03</pdfrwt>
<pdfrwt beam="2">  1       -2 0.41224544E-02 0.27538497E+03</pdfrwt>
<totfact> 0.10827104E+04</totfact>
</mgrwt>
</event>
<event>
 5    1  0.1100736E+001  0.2749910E+03  0.7818608E-02  0.1098457E+00
         -2   -1    0    0    0  501 -0.00000000000E+00  0.00000000000E+00  0.16963999242E+02  0.16963999242E+02  0.00000000000E+00 0. -1.
          2   -1    0    0  501    0  0.00000000000E+00 -0.00000000000E+00 -0.11144192831E+04  0.11144192831E+04  0.00000000000E+00 0. -1.
         35    2    1    2    0    0  0.00000000000E+00  0.00000000000E+00 -0.10974552838E+04  0.11313832823E+04  0.27499096620E+03 0.  0.
         25    1    3    3    0    0 -0.23615350761E+02 -0.55617216307E+01 -0.80620219633E+03  0.81544503120E+03  0.12000000000E+03 0.  0.
         25    1    3    3    0    0  0.23615350761E+02  0.55617216307E+01 -0.29125308748E+03  0.31593825109E+03  0.12000000000E+03 0.  0.
<mgrwt>
<rscale>  0 0.27499097E+03</rscale>
<asrwt>0</asrwt>
<pdfrwt beam="1">  1        2 0.17144907E+00 0.27499097E+03</pdfrwt>
<pdfrwt beam="2">  1       -2 0.26098467E-02 0.27499097E+03</pdfrwt>
<totfact> 0.11657675E+04</totfact>
</mgrwt>
</event>
<event>
 5    1  0.1100736E+001  0.2756250E+03  0.7818608E-02  0.1098103E+00
         -1   -1    0    0    0  501 -0.00000000000E+00  0.00000000000E+00  0.57072591309E+01  0.57072591309E+01  0.00000000000E+00 0.  1.
          1   -1    0    0  501    0  0.00000000000E+00 -0.00000000000E+00 -0.33277407296E+04  0.33277407296E+04  0.00000000000E+00 0.  1.
         35    2    1    2    0    0  0.00000000000E+00  0.00000000000E+00 -0.33220334705E+04  0.33334479888E+04  0.27562495289E+03 0.  0.
         25    1    3    3    0    0 -0.48232976116E+02 -0.39134947241E+02 -0.13332867130E+04  0.13401161976E+04  0.12000000000E+03 0.  0.
         25    1    3    3    0    0  0.48232976116E+02  0.39134947241E+02 -0.19887467575E+04  0.19933317911E+04  0.12000000000E+03 0.  0.
<mgrwt>
<rscale>  0 0.27562495E+03</rscale>
<asrwt>0</asrwt>
<pdfrwt beam="1">  1        1 0.51196145E+00 0.27562495E+03</pdfrwt>
<pdfrwt beam="2">  1       -1 0.87803758E-03 0.27562495E+03</pdfrwt>
<totfact> 0.95696943E+02</totfact>
</mgrwt>
</event>
<event>
 5    1  0.1100736E+001  0.2748996E+03  0.7818608E-02  0.1098508E+00
         -2   -1    0    0    0  501 -0.00000000000E+00  0.00000000000E+00  0.15055492104E+02  0.15055492104E+02  0.00000000000E+00 0. -1.
          2   -1    0    0  501    0  0.00000000000E+00 -0.00000000000E+00 -0.12548544627E+04  0.12548544627E+04  0.00000000000E+00 0. -1.
         35    2    1    2    0    0  0.00000000000E+00  0.00000000000E+00 -0.12397989706E+04  0.12699099548E+04  0.27489962863E+03 0.  0.
         25    1    3    3    0    0 -0.20772746929E+02 -0.25964023057E+02 -0.35105914018E+03  0.37248913731E+03  0.12000000000E+03 0.  0.
         25    1    3    3    0    0  0.20772746929E+02  0.25964023057E+02 -0.88873983042E+03  0.89742081750E+03  0.12000000000E+03 0.  0.
<mgrwt>
<rscale>  0 0.27489963E+03</rscale>
<asrwt>0</asrwt>
<pdfrwt beam="1">  1        2 0.19305456E+00 0.27489963E+03</pdfrwt>
<pdfrwt beam="2">  1       -2 0.23162292E-02 0.27489963E+03</pdfrwt>
<totfact> 0.11562609E+04</totfact>
</mgrwt>
</event>
<event>
 5    1  0.1100736E+001  0.2719518E+03  0.7818608E-02  0.1100168E+00
         -2   -1    0    0    0  501 -0.00000000000E+00  0.00000000000E+00  0.12496462321E+02  0.12496462321E+02  0.00000000000E+00 0. -1.
          2   -1    0    0  501    0  0.00000000000E+00 -0.00000000000E+00 -0.14795748343E+04  0.14795748343E+04  0.00000000000E+00 0. -1.
         35    2    1    2    0    0  0.00000000000E+00  0.00000000000E+00 -0.14670783720E+04  0.14920712967E+04  0.27195184256E+03 0.  0.
         25    1    3    3    0    0 -0.62954398039E+02  0.11228634716E+02 -0.73169732793E+03  0.74422464227E+03  0.12000000000E+03 0.  0.
         25    1    3    3    0    0  0.62954398039E+02 -0.11228634716E+02 -0.73538104410E+03  0.74784665439E+03  0.12000000000E+03 0.  0.
<mgrwt>
<rscale>  0 0.27195184E+03</rscale>
<asrwt>0</asrwt>
<pdfrwt beam="1">  1        2 0.22762684E+00 0.27195184E+03</pdfrwt>
<pdfrwt beam="2">  1       -2 0.19225332E-02 0.27195184E+03</pdfrwt>
<totfact> 0.11461811E+04</totfact>
</mgrwt>
</event>
<event>
 5    1  0.1100736E+001  0.2761379E+03  0.7818608E-02  0.1097817E+00
          2   -1    0    0  501    0  0.00000000000E+00  0.00000000000E+00  0.53178262350E+02  0.53178262350E+02  0.00000000000E+00 0.  1.
         -2   -1    0    0    0  501 -0.00000000000E+00 -0.00000000000E+00 -0.35847423658E+03  0.35847423658E+03  0.00000000000E+00 0.  1.
         35    2    1    2    0    0  0.00000000000E+00  0.00000000000E+00 -0.30529597423E+03  0.41165249893E+03  0.27613791481E+03 0.  0.
         25    1    3    3    0    0 -0.47594455089E+02 -0.33498932626E+02 -0.20589147002E+03  0.24531348937E+03  0.12000000000E+03 0.  0.
         25    1    3    3    0    0  0.47594455089E+02  0.33498932626E+02 -0.99404504210E+02  0.16633900955E+03  0.12000000000E+03 0.  0.
<mgrwt>
<rscale>  0 0.27613791E+03</rscale>
<asrwt>0</asrwt>
<pdfrwt beam="1">  1        2 0.81812714E-02 0.27613791E+03</pdfrwt>
<pdfrwt beam="2">  1       -2 0.55149881E-01 0.27613791E+03</pdfrwt>
<totfact> 0.25934420E+03</totfact>
</mgrwt>
</event>
<event>
 5    1  0.1100736E+001  0.2745745E+03  0.7818608E-02  0.1098690E+00
         -2   -1    0    0    0  501 -0.00000000000E+00  0.00000000000E+00  0.17056887886E+02  0.17056887886E+02  0.00000000000E+00 0. -1.
          2   -1    0    0  501    0  0.00000000000E+00 -0.00000000000E+00 -0.11049958128E+04  0.11049958128E+04  0.00000000000E+00 0. -1.
         35    2    1    2    0    0  0.00000000000E+00  0.00000000000E+00 -0.10879389249E+04  0.11220527006E+04  0.27457450495E+03 0.  0.
         25    1    3    3    0    0 -0.43120089365E+02  0.43849830787E+02 -0.64940153108E+03  0.66325296707E+03  0.12000000000E+03 0.  0.
         25    1    3    3    0    0  0.43120089365E+02 -0.43849830787E+02 -0.43853739379E+03  0.45879973357E+03  0.12000000000E+03 0.  0.
<mgrwt>
<rscale>  0 0.27457450E+03</rscale>
<asrwt>0</asrwt>
<pdfrwt beam="1">  1        2 0.16999941E+00 0.27457450E+03</pdfrwt>
<pdfrwt beam="2">  1       -2 0.26241357E-02 0.27457450E+03</pdfrwt>
<totfact> 0.11710992E+04</totfact>
</mgrwt>
</event>
<event>
 5    1  0.1100736E+001  0.2750093E+03  0.7818608E-02  0.1098446E+00
          2   -1    0    0  501    0  0.00000000000E+00  0.00000000000E+00  0.98187030206E+03  0.98187030206E+03  0.00000000000E+00 0.  1.
         -2   -1    0    0    0  501 -0.00000000000E+00 -0.00000000000E+00 -0.19256643018E+02  0.19256643018E+02  0.00000000000E+00 0.  1.
         35    2    1    2    0    0  0.00000000000E+00  0.00000000000E+00  0.96261365904E+03  0.10011269451E+04  0.27500927910E+03 0.  0.
         25    1    3    3    0    0  0.63885013783E+02  0.82716928505E+01  0.41244666674E+03  0.43435235558E+03  0.12000000000E+03 0.  0.
         25    1    3    3    0    0 -0.63885013783E+02 -0.82716928505E+01  0.55016699229E+03  0.56677458950E+03  0.12000000000E+03 0.  0.
<mgrwt>
<rscale>  0 0.27500928E+03</rscale>
<asrwt>0</asrwt>
<pdfrwt beam="1">  1        2 0.15105693E+00 0.27500928E+03</pdfrwt>
<pdfrwt beam="2">  1       -2 0.29625612E-02 0.27500928E+03</pdfrwt>
<totfact> 0.11599081E+04</totfact>
</mgrwt>
</event>
<event>
 5    1  0.1100736E+001  0.2751454E+03  0.7818608E-02  0.1098370E+00
         -1   -1    0    0    0  501 -0.00000000000E+00  0.00000000000E+00  0.82319204889E+02  0.82319204889E+02  0.00000000000E+00 0. -1.
          1   -1    0    0  501    0  0.00000000000E+00 -0.00000000000E+00 -0.22991284534E+03  0.22991284534E+03  0.00000000000E+00 0. -1.
         35    2    1    2    0    0  0.00000000000E+00  0.00000000000E+00 -0.14759364045E+03  0.31223205023E+03  0.27514536247E+03 0.  0.
         25    1    3    3    0    0 -0.13008262112E+02 -0.46022808174E+02 -0.12749201616E+03  0.18149801085E+03  0.12000000000E+03 0.  0.
         25    1    3    3    0    0  0.13008262112E+02  0.46022808174E+02 -0.20101624290E+02  0.13073403939E+03  0.12000000000E+03 0.  0.
<mgrwt>
<rscale>  0 0.27514536E+03</rscale>
<asrwt>0</asrwt>
<pdfrwt beam="1">  1        1 0.35371207E-01 0.27514536E+03</pdfrwt>
<pdfrwt beam="2">  1       -1 0.12664493E-01 0.27514536E+03</pdfrwt>
<totfact> 0.51326503E+03</totfact>
</mgrwt>
</event>
<event>
 5    1  0.1100736E+001  0.2848605E+03  0.7818608E-02  0.1093063E+00
          2   -1    0    0  501    0  0.00000000000E+00  0.00000000000E+00  0.33961828740E+03  0.33961828740E+03  0.00000000000E+00 0.  1.
         -2   -1    0    0    0  501 -0.00000000000E+00 -0.00000000000E+00 -0.59732879144E+02  0.59732879144E+02  0.00000000000E+00 0.  1.
         35    2    1    2    0    0  0.00000000000E+00  0.00000000000E+00  0.27988540826E+03  0.39935116655E+03  0.28486051405E+03 0.  0.
         25    1    3    3    0    0  0.31749367229E+02 -0.57007258429E+01  0.23753331222E+03  0.26807199595E+03  0.12000000000E+03 0.  0.
         25    1    3    3    0    0 -0.31749367229E+02  0.57007258429E+01  0.42352096034E+02  0.13127917060E+03  0.12000000000E+03 0.  0.
<mgrwt>
<rscale>  0 0.28486051E+03</rscale>
<asrwt>0</asrwt>
<pdfrwt beam="1">  1        2 0.52248966E-01 0.28486051E+03</pdfrwt>
<pdfrwt beam="2">  1       -2 0.91896739E-02 0.28486051E+03</pdfrwt>
<totfact> 0.72151723E+03</totfact>
</mgrwt>
</event>
<event>
 5    1  0.1100736E+001  0.2743856E+03  0.7818608E-02  0.1098796E+00
         -1   -1    0    0    0  501 -0.00000000000E+00  0.00000000000E+00  0.38144077222E+03  0.38144077222E+03  0.00000000000E+00 0. -1.
          1   -1    0    0  501    0  0.00000000000E+00 -0.00000000000E+00 -0.49344130986E+02  0.49344130986E+02  0.00000000000E+00 0. -1.
         35    2    1    2    0    0  0.00000000000E+00  0.00000000000E+00  0.33209664124E+03  0.43078490321E+03  0.27438559312E+03 0.  0.
         25    1    3    3    0    0 -0.13920063265E+01  0.63655874779E+02  0.13593645175E+03  0.19217889320E+03  0.12000000000E+03 0.  0.
         25    1    3    3    0    0  0.13920063265E+01 -0.63655874779E+02  0.19616018949E+03  0.23860601001E+03  0.12000000000E+03 0.  0.
<mgrwt>
<rscale>  0 0.27438559E+03</rscale>
<asrwt>0</asrwt>
<pdfrwt beam="1">  1        1 0.75914050E-02 0.27438559E+03</pdfrwt>
<pdfrwt beam="2">  1       -1 0.58683194E-01 0.27438559E+03</pdfrwt>
<totfact> 0.28250927E+03</totfact>
</mgrwt>
</event>
<event>
 5    1  0.1100736E+001  0.2693945E+03  0.7818608E-02  0.1101627E+00
          2   -1    0    0  501    0  0.00000000000E+00  0.00000000000E+00  0.78599507980E+03  0.78599507980E+03  0.00000000000E+00 0.  1.
         -2   -1    0    0    0  501 -0.00000000000E+00 -0.00000000000E+00 -0.23083280962E+02  0.23083280962E+02  0.00000000000E+00 0.  1.
         35    2    1    2    0    0  0.00000000000E+00  0.00000000000E+00  0.76291179884E+03  0.80907836076E+03  0.26939447108E+03 0.  0.
         25    1    3    3    0    0  0.59129370200E+02  0.14242885216E+02  0.40142360138E+03  0.42336751167E+03  0.12000000000E+03 0.  0.
         25    1    3    3    0    0 -0.59129370200E+02 -0.14242885216E+02  0.36148819746E+03  0.38571084909E+03  0.12000000000E+03 0.  0.
<mgrwt>
<rscale>  0 0.26939447E+03</rscale>
<asrwt>0</asrwt>
<pdfrwt beam="1">  1        2 0.12092230E+00 0.26939447E+03</pdfrwt>
<pdfrwt beam="2">  1       -2 0.35512746E-02 0.26939447E+03</pdfrwt>
<totfact> 0.11879084E+04</totfact>
</mgrwt>
</event>
<event>
 5    1  0.1100736E+001  0.2698310E+03  0.7818608E-02  0.1101376E+00
          1   -1    0    0  501    0  0.00000000000E+00  0.00000000000E+00  0.23425407378E+04  0.23425407378E+04  0.00000000000E+00 0.  1.
         -1   -1    0    0    0  501 -0.00000000000E+00 -0.00000000000E+00 -0.77702750849E+01  0.77702750849E+01  0.00000000000E+00 0.  1.
         35    2    1    2    0    0  0.00000000000E+00  0.00000000000E+00  0.23347704627E+04  0.23503110129E+04  0.26983095397E+03 0.  0.
         25    1    3    3    0    0  0.24363412652E+02 -0.40932074481E+02  0.82632625955E+03  0.83635165918E+03  0.12000000000E+03 0.  0.
         25    1    3    3    0    0 -0.24363412652E+02  0.40932074481E+02  0.15084442032E+04  0.15139593537E+04  0.12000000000E+03 0.  0.
<mgrwt>
<rscale>  0 0.26983095E+03</rscale>
<asrwt>0</asrwt>
<pdfrwt beam="1">  1        1 0.36039032E+00 0.26983095E+03</pdfrwt>
<pdfrwt beam="2">  1       -1 0.11954288E-02 0.26983095E+03</pdfrwt>
<totfact> 0.29271953E+03</totfact>
</mgrwt>
</event>
<event>
 5    1  0.1100736E+001  0.2749509E+03  0.7818608E-02  0.1098479E+00
          4   -1    0    0  501    0  0.00000000000E+00  0.00000000000E+00  0.27553882693E+03  0.27553882693E+03  0.00000000000E+00 0. -1.
         -4   -1    0    0    0  501 -0.00000000000E+00 -0.00000000000E+00 -0.68591062544E+02  0.68591062544E+02  0.00000000000E+00 0. -1.
         35    2    1    2    0    0  0.00000000000E+00  0.00000000000E+00  0.20694776439E+03  0.34412988948E+03  0.27495091134E+03 0.  0.
         25    1    3    3    0    0 -0.30144941666E+02  0.31154860518E+02  0.16754037907E+03  0.21059231102E+03  0.12000000000E+03 0.  0.
         25    1    3    3    0    0  0.30144941666E+02 -0.31154860518E+02  0.39407385315E+02  0.13353757845E+03  0.12000000000E+03 0.  0.
<mgrwt>
<rscale>  0 0.27495091E+03</rscale>
<asrwt>0</asrwt>
<pdfrwt beam="1">  1        4 0.42390588E-01 0.27495091E+03</pdfrwt>
<pdfrwt beam="2">  1       -4 0.10552471E-01 0.27495091E+03</pdfrwt>
<totfact> 0.70352955E+02</totfact>
</mgrwt>
</event>
<event>
 5    1  0.1100736E+001  0.2795167E+03  0.7818608E-02  0.1095953E+00
         -1   -1    0    0    0  501 -0.00000000000E+00  0.00000000000E+00  0.10296493616E+02  0.10296493616E+02  0.00000000000E+00 0.  1.
          1   -1    0    0  501    0  0.00000000000E+00 -0.00000000000E+00 -0.18969945429E+04  0.18969945429E+04  0.00000000000E+00 0.  1.
         35    2    1    2    0    0  0.00000000000E+00  0.00000000000E+00 -0.18866980492E+04  0.19072910365E+04  0.27951666998E+03 0.  0.
         25    1    3    3    0    0  0.26816265192E+01  0.69364191289E+02 -0.82247230237E+03  0.83407389979E+03  0.12000000000E+03 0.  0.
         25    1    3    3    0    0 -0.26816265192E+01 -0.69364191289E+02 -0.10642257469E+04  0.10732171367E+04  0.12000000000E+03 0.  0.
<mgrwt>
<rscale>  0 0.27951667E+03</rscale>
<asrwt>0</asrwt>
<pdfrwt beam="1">  1        1 0.29184534E+00 0.27951667E+03</pdfrwt>
<pdfrwt beam="2">  1       -1 0.15840758E-02 0.27951667E+03</pdfrwt>
<totfact> 0.37937957E+03</totfact>
</mgrwt>
</event>
<event>
 5    1  0.1100736E+001  0.2750804E+03  0.7818608E-02  0.1098407E+00
          2   -1    0    0  501    0  0.00000000000E+00  0.00000000000E+00  0.95182518292E+03  0.95182518292E+03  0.00000000000E+00 0. -1.
         -2   -1    0    0    0  501 -0.00000000000E+00 -0.00000000000E+00 -0.19874770298E+02  0.19874770298E+02  0.00000000000E+00 0. -1.
         35    2    1    2    0    0  0.00000000000E+00  0.00000000000E+00  0.93195041262E+03  0.97169995321E+03  0.27508040188E+03 0.  0.
         25    1    3    3    0    0 -0.66803207924E+02 -0.46992057160E+01  0.44582003978E+03  0.46651930184E+03  0.12000000000E+03 0.  0.
         25    1    3    3    0    0  0.66803207924E+02  0.46992057160E+01  0.48613037284E+03  0.50518065137E+03  0.12000000000E+03 0.  0.
<mgrwt>
<rscale>  0 0.27508040E+03</rscale>
<asrwt>0</asrwt>
<pdfrwt beam="1">  1        2 0.14643461E+00 0.27508040E+03</pdfrwt>
<pdfrwt beam="2">  1       -2 0.30576577E-02 0.27508040E+03</pdfrwt>
<totfact> 0.11553401E+04</totfact>
</mgrwt>
</event>
<event>
 5    1  0.1100736E+001  0.2775897E+03  0.7818608E-02  0.1097013E+00
          2   -1    0    0  501    0  0.00000000000E+00  0.00000000000E+00  0.83453630156E+03  0.83453630156E+03  0.00000000000E+00 0. -1.
         -2   -1    0    0    0  501 -0.00000000000E+00 -0.00000000000E+00 -0.23083496136E+02  0.23083496136E+02  0.00000000000E+00 0. -1.
         35    2    1    2    0    0  0.00000000000E+00  0.00000000000E+00  0.81145280542E+03  0.85761979770E+03  0.27758973679E+03 0.  0.
         25    1    3    3    0    0 -0.41856366927E+02  0.49387490892E+00  0.23338153441E+03  0.26574261979E+03  0.12000000000E+03 0.  0.
         25    1    3    3    0    0  0.41856366927E+02 -0.49387490892E+00  0.57807127101E+03  0.59187717791E+03  0.12000000000E+03 0.  0.
<mgrwt>
<rscale>  0 0.27758974E+03</rscale>
<asrwt>0</asrwt>
<pdfrwt beam="1">  1        2 0.12839018E+00 0.27758974E+03</pdfrwt>
<pdfrwt beam="2">  1       -2 0.35513077E-02 0.27758974E+03</pdfrwt>
<totfact> 0.11014092E+04</totfact>
</mgrwt>
</event>
<event>
 5    1  0.1100736E+001  0.2700130E+03  0.7818608E-02  0.1101272E+00
          2   -1    0    0  501    0  0.00000000000E+00  0.00000000000E+00  0.19979990242E+03  0.19979990242E+03  0.00000000000E+00 0. -1.
         -2   -1    0    0    0  501 -0.00000000000E+00 -0.00000000000E+00 -0.91225033641E+02  0.91225033641E+02  0.00000000000E+00 0. -1.
         35    2    1    2    0    0  0.00000000000E+00  0.00000000000E+00  0.10857486878E+03  0.29102493606E+03  0.27001298354E+03 0.  0.
         25    1    3    3    0    0  0.14777346715E+02 -0.59169375784E+02  0.65455619622E+02  0.14967906716E+03  0.12000000000E+03 0.  0.
         25    1    3    3    0    0 -0.14777346715E+02  0.59169375784E+02  0.43119249157E+02  0.14134586890E+03  0.12000000000E+03 0.  0.
<mgrwt>
<rscale>  0 0.27001298E+03</rscale>
<asrwt>0</asrwt>
<pdfrwt beam="1">  1        2 0.30738446E-01 0.27001298E+03</pdfrwt>
<pdfrwt beam="2">  1       -2 0.14034621E-01 0.27001298E+03</pdfrwt>
<totfact> 0.64691194E+03</totfact>
</mgrwt>
</event>
<event>
 5    1  0.1100736E+001  0.2748228E+03  0.7818608E-02  0.1098551E+00
          2   -1    0    0  501    0  0.00000000000E+00  0.00000000000E+00  0.12791851745E+03  0.12791851745E+03  0.00000000000E+00 0. -1.
         -2   -1    0    0    0  501 -0.00000000000E+00 -0.00000000000E+00 -0.14760875183E+03  0.14760875183E+03  0.00000000000E+00 0. -1.
         35    2    1    2    0    0  0.00000000000E+00  0.00000000000E+00 -0.19690234375E+02  0.27552726928E+03  0.27482279889E+03 0.  0.
         25    1    3    3    0    0  0.58695630734E+02  0.97918053369E+01 -0.40596796300E+02  0.13996126746E+03  0.12000000000E+03 0.  0.
         25    1    3    3    0    0 -0.58695630734E+02 -0.97918053369E+01  0.20906561925E+02  0.13556600182E+03  0.12000000000E+03 0.  0.
<mgrwt>
<rscale>  0 0.27482280E+03</rscale>
<asrwt>0</asrwt>
<pdfrwt beam="1">  1        2 0.19679772E-01 0.27482280E+03</pdfrwt>
<pdfrwt beam="2">  1       -2 0.22709039E-01 0.27482280E+03</pdfrwt>
<totfact> 0.47355393E+03</totfact>
</mgrwt>
</event>
<event>
 5    1  0.1100736E+001  0.2747936E+03  0.7818608E-02  0.1098567E+00
          2   -1    0    0  501    0  0.00000000000E+00  0.00000000000E+00  0.11669319443E+04  0.11669319443E+04  0.00000000000E+00 0. -1.
         -2   -1    0    0    0  501 -0.00000000000E+00 -0.00000000000E+00 -0.16177364448E+02  0.16177364448E+02  0.00000000000E+00 0. -1.
         35    2    1    2    0    0  0.00000000000E+00  0.00000000000E+00  0.11507545799E+04  0.11831093088E+04  0.27479361964E+03 0.  0.
         25    1    3    3    0    0  0.80883985638E+01 -0.56755559007E+02  0.72397869172E+03  0.73609222367E+03  0.12000000000E+03 0.  0.
         25    1    3    3    0    0 -0.80883985638E+01  0.56755559007E+02  0.42677588817E+03  0.44701708512E+03  0.12000000000E+03 0.  0.
<mgrwt>
<rscale>  0 0.27479362E+03</rscale>
<asrwt>0</asrwt>
<pdfrwt beam="1">  1        2 0.17952793E+00 0.27479362E+03</pdfrwt>
<pdfrwt beam="2">  1       -2 0.24888262E-02 0.27479362E+03</pdfrwt>
<totfact> 0.11660859E+04</totfact>
</mgrwt>
</event>
<event>
 5    1  0.1100736E+001  0.2749836E+03  0.7818608E-02  0.1098461E+00
         -1   -1    0    0    0  501 -0.00000000000E+00  0.00000000000E+00  0.12184734335E+03  0.12184734335E+03  0.00000000000E+00 0.  1.
          1   -1    0    0  501    0  0.00000000000E+00 -0.00000000000E+00 -0.15514493215E+03  0.15514493215E+03  0.00000000000E+00 0.  1.
         35    2    1    2    0    0  0.00000000000E+00  0.00000000000E+00 -0.33297588799E+02  0.27699227550E+03  0.27498362000E+03 0.  0.
         25    1    3    3    0    0 -0.44171497894E+02  0.47304688814E+02  0.12331471332E+01  0.13634652714E+03  0.12000000000E+03 0.  0.
         25    1    3    3    0    0  0.44171497894E+02 -0.47304688814E+02 -0.34530735933E+02  0.14064574837E+03  0.12000000000E+03 0.  0.
<mgrwt>
<rscale>  0 0.27498362E+03</rscale>
<asrwt>0</asrwt>
<pdfrwt beam="1">  1        1 0.23868451E-01 0.27498362E+03</pdfrwt>
<pdfrwt beam="2">  1       -1 0.18745745E-01 0.27498362E+03</pdfrwt>
<totfact> 0.45231088E+03</totfact>
</mgrwt>
</event>
<event>
 5    1  0.1100736E+001  0.2749023E+03  0.7818608E-02  0.1098506E+00
         -1   -1    0    0    0  501 -0.00000000000E+00  0.00000000000E+00  0.40628535529E+03  0.40628535529E+03  0.00000000000E+00 0.  1.
          1   -1    0    0  501    0  0.00000000000E+00 -0.00000000000E+00 -0.46501348801E+02  0.46501348801E+02  0.00000000000E+00 0.  1.
         35    2    1    2    0    0  0.00000000000E+00  0.00000000000E+00  0.35978400649E+03  0.45278670409E+03  0.27490228823E+03 0.  0.
         25    1    3    3    0    0 -0.15730345153E+02 -0.64742259296E+02  0.16780943091E+03  0.21679254830E+03  0.12000000000E+03 0.  0.
         25    1    3    3    0    0  0.15730345153E+02  0.64742259296E+02  0.19197457559E+03  0.23599415579E+03  0.12000000000E+03 0.  0.
<mgrwt>
<rscale>  0 0.27490229E+03</rscale>
<asrwt>0</asrwt>
<pdfrwt beam="1">  1        1 0.71540540E-02 0.27490229E+03</pdfrwt>
<pdfrwt beam="2">  1       -1 0.62505437E-01 0.27490229E+03</pdfrwt>
<totfact> 0.27125144E+03</totfact>
</mgrwt>
</event>
<event>
 5    1  0.1100736E+001  0.2758626E+03  0.7818608E-02  0.1097970E+00
         -2   -1    0    0    0  501 -0.00000000000E+00  0.00000000000E+00  0.15679262444E+03  0.15679262444E+03  0.00000000000E+00 0.  1.
          2   -1    0    0  501    0  0.00000000000E+00 -0.00000000000E+00 -0.12133890800E+03  0.12133890800E+03  0.00000000000E+00 0.  1.
         35    2    1    2    0    0  0.00000000000E+00  0.00000000000E+00  0.35453716447E+02  0.27813153244E+03  0.27586261676E+03 0.  0.
         25    1    3    3    0    0  0.61694122630E+02  0.27973336907E+02  0.23807505997E+02  0.13984087273E+03  0.12000000000E+03 0.  0.
         25    1    3    3    0    0 -0.61694122630E+02 -0.27973336907E+02  0.11646210450E+02  0.13829065971E+03  0.12000000000E+03 0.  0.
<mgrwt>
<rscale>  0 0.27586262E+03</rscale>
<asrwt>0</asrwt>
<pdfrwt beam="1">  1        2 0.18667524E-01 0.27586262E+03</pdfrwt>
<pdfrwt beam="2">  1       -2 0.24121942E-01 0.27586262E+03</pdfrwt>
<totfact> 0.45290129E+03</totfact>
</mgrwt>
</event>
<event>
 5    1  0.1100736E+001  0.2720022E+03  0.7818608E-02  0.1100139E+00
          2   -1    0    0  501    0  0.00000000000E+00  0.00000000000E+00  0.97445415149E+03  0.97445415149E+03  0.00000000000E+00 0. -1.
         -2   -1    0    0    0  501 -0.00000000000E+00 -0.00000000000E+00 -0.18981187562E+02  0.18981187562E+02  0.00000000000E+00 0. -1.
         35    2    1    2    0    0  0.00000000000E+00  0.00000000000E+00  0.95547296393E+03  0.99343533905E+03  0.27200218396E+03 0.  0.
         25    1    3    3    0    0 -0.21289647455E+02  0.58237633674E+02  0.41982398802E+03  0.44101819915E+03  0.12000000000E+03 0.  0.
         25    1    3    3    0    0  0.21289647455E+02 -0.58237633674E+02  0.53564897591E+03  0.55241713990E+03  0.12000000000E+03 0.  0.
<mgrwt>
<rscale>  0 0.27200218E+03</rscale>
<asrwt>0</asrwt>
<pdfrwt beam="1">  1        2 0.14991598E+00 0.27200218E+03</pdfrwt>
<pdfrwt beam="2">  1       -2 0.29201835E-02 0.27200218E+03</pdfrwt>
<totfact> 0.11971949E+04</totfact>
</mgrwt>
</event>
<event>
 5    1  0.1100736E+001  0.2723202E+03  0.7818608E-02  0.1099959E+00
          1   -1    0    0  501    0  0.00000000000E+00  0.00000000000E+00  0.96349999232E+02  0.96349999232E+02  0.00000000000E+00 0.  1.
         -1   -1    0    0    0  501 -0.00000000000E+00 -0.00000000000E+00 -0.19241897342E+03  0.19241897342E+03  0.00000000000E+00 0.  1.
         35    2    1    2    0    0  0.00000000000E+00  0.00000000000E+00 -0.96068974193E+02  0.28876897266E+03  0.27232016408E+03 0.  0.
         25    1    3    3    0    0 -0.41757916984E+02  0.11380094764E+02 -0.98516079331E+02  0.16117893186E+03  0.12000000000E+03 0.  0.
         25    1    3    3    0    0  0.41757916984E+02 -0.11380094764E+02  0.24471051381E+01  0.12759004080E+03  0.12000000000E+03 0.  0.
<mgrwt>
<rscale>  0 0.27232016E+03</rscale>
<asrwt>0</asrwt>
<pdfrwt beam="1">  1        1 0.14823077E-01 0.27232016E+03</pdfrwt>
<pdfrwt beam="2">  1       -1 0.29602919E-01 0.27232016E+03</pdfrwt>
<totfact> 0.39333797E+03</totfact>
</mgrwt>
</event>
<event>
 5    1  0.1100736E+001  0.2789628E+03  0.7818608E-02  0.1096257E+00
         -1   -1    0    0    0  501 -0.00000000000E+00  0.00000000000E+00  0.26741366476E+03  0.26741366476E+03  0.00000000000E+00 0. -1.
          1   -1    0    0  501    0  0.00000000000E+00 -0.00000000000E+00 -0.72752683358E+02  0.72752683358E+02  0.00000000000E+00 0. -1.
         35    2    1    2    0    0  0.00000000000E+00  0.00000000000E+00  0.19466098141E+03  0.34016634812E+03  0.27896280525E+03 0.  0.
         25    1    3    3    0    0 -0.70474181915E+02 -0.93926003286E+01  0.97915827298E+02  0.17041813428E+03  0.12000000000E+03 0.  0.
         25    1    3    3    0    0  0.70474181915E+02  0.93926003286E+01  0.96745154108E+02  0.16974821384E+03  0.12000000000E+03 0.  0.
<mgrwt>
<rscale>  0 0.27896281E+03</rscale>
<asrwt>0</asrwt>
<pdfrwt beam="1">  1        1 0.11192721E-01 0.27896281E+03</pdfrwt>
<pdfrwt beam="2">  1       -1 0.41140563E-01 0.27896281E+03</pdfrwt>
<totfact> 0.32223203E+03</totfact>
</mgrwt>
</event>
<event>
 5    1  0.1100736E+001  0.2774939E+03  0.7818608E-02  0.1097066E+00
          2   -1    0    0  501    0  0.00000000000E+00  0.00000000000E+00  0.77703671453E+03  0.77703671453E+03  0.00000000000E+00 0.  1.
         -2   -1    0    0    0  501 -0.00000000000E+00 -0.00000000000E+00 -0.24774524413E+02  0.24774524413E+02  0.00000000000E+00 0.  1.
         35    2    1    2    0    0  0.00000000000E+00  0.00000000000E+00  0.75226219012E+03  0.80181123895E+03  0.27749389222E+03 0.  0.
         25    1    3    3    0    0  0.14070677109E+02  0.24805913071E+02  0.55972974387E+03  0.57315853256E+03  0.12000000000E+03 0.  0.
         25    1    3    3    0    0 -0.14070677109E+02 -0.24805913071E+02  0.19253244625E+03  0.22865270639E+03  0.12000000000E+03 0.  0.
<mgrwt>
<rscale>  0 0.27749389E+03</rscale>
<asrwt>0</asrwt>
<pdfrwt beam="1">  1        2 0.11954409E+00 0.27749389E+03</pdfrwt>
<pdfrwt beam="2">  1       -2 0.38114659E-02 0.27749389E+03</pdfrwt>
<totfact> 0.10851541E+04</totfact>
</mgrwt>
</event>
<event>
 5    1  0.1100736E+001  0.2749452E+03  0.7818608E-02  0.1098482E+00
          1   -1    0    0  501    0  0.00000000000E+00  0.00000000000E+00  0.10094081057E+04  0.10094081057E+04  0.00000000000E+00 0.  1.
         -1   -1    0    0    0  501 -0.00000000000E+00 -0.00000000000E+00 -0.18722566780E+02  0.18722566780E+02  0.00000000000E+00 0.  1.
         35    2    1    2    0    0  0.00000000000E+00  0.00000000000E+00  0.99068553888E+03  0.10281306724E+04  0.27494516302E+03 0.  0.
         25    1    3    3    0    0 -0.14846036754E+02 -0.48539258907E+02  0.65929100157E+03  0.67204247575E+03  0.12000000000E+03 0.  0.
         25    1    3    3    0    0  0.14846036754E+02  0.48539258907E+02  0.33139453731E+03  0.35608819669E+03  0.12000000000E+03 0.  0.
<mgrwt>
<rscale>  0 0.27494516E+03</rscale>
<asrwt>0</asrwt>
<pdfrwt beam="1">  1        1 0.15529351E+00 0.27494516E+03</pdfrwt>
<pdfrwt beam="2">  1       -1 0.28803957E-02 0.27494516E+03</pdfrwt>
<totfact> 0.62987203E+03</totfact>
</mgrwt>
</event>
<event>
 5    1  0.1100736E+001  0.2733057E+03  0.7818608E-02  0.1099402E+00
          2   -1    0    0  501    0  0.00000000000E+00  0.00000000000E+00  0.28354252174E+04  0.28354252174E+04  0.00000000000E+00 0.  1.
         -2   -1    0    0    0  501 -0.00000000000E+00 -0.00000000000E+00 -0.65859598096E+01  0.65859598096E+01  0.00000000000E+00 0.  1.
         35    2    1    2    0    0  0.00000000000E+00  0.00000000000E+00  0.28288392576E+04  0.28420111772E+04  0.27330566423E+03 0.  0.
         25    1    3    3    0    0  0.85673784981E+01  0.61963426914E+02  0.16120297111E+04  0.16176998039E+04  0.12000000000E+03 0.  0.
         25    1    3    3    0    0 -0.85673784981E+01 -0.61963426914E+02  0.12168095465E+04  0.12243113733E+04  0.12000000000E+03 0.  0.
<mgrwt>
<rscale>  0 0.27330566E+03</rscale>
<asrwt>0</asrwt>
<pdfrwt beam="1">  1        2 0.43621829E+00 0.27330566E+03</pdfrwt>
<pdfrwt beam="2">  1       -2 0.10132268E-02 0.27330566E+03</pdfrwt>
<totfact> 0.54387727E+03</totfact>
</mgrwt>
</event>
<event>
 5    1  0.1100736E+001  0.2761510E+03  0.7818608E-02  0.1097810E+00
         -1   -1    0    0    0  501 -0.00000000000E+00  0.00000000000E+00  0.33322823555E+03  0.33322823555E+03  0.00000000000E+00 0.  1.
          1   -1    0    0  501    0  0.00000000000E+00 -0.00000000000E+00 -0.57212573999E+02  0.57212573999E+02  0.00000000000E+00 0.  1.
         35    2    1    2    0    0  0.00000000000E+00  0.00000000000E+00  0.27601566155E+03  0.39044080955E+03  0.27615101003E+03 0.  0.
         25    1    3    3    0    0 -0.33710588616E+02 -0.29811413450E+02  0.65365866975E+02  0.14386737199E+03  0.12000000000E+03 0.  0.
         25    1    3    3    0    0  0.33710588616E+02  0.29811413450E+02  0.21064979458E+03  0.24657343756E+03  0.12000000000E+03 0.  0.
<mgrwt>
<rscale>  0 0.27615101E+03</rscale>
<asrwt>0</asrwt>
<pdfrwt beam="1">  1        1 0.88019347E-02 0.27615101E+03</pdfrwt>
<pdfrwt beam="2">  1       -1 0.51265881E-01 0.27615101E+03</pdfrwt>
<totfact> 0.29817208E+03</totfact>
</mgrwt>
</event>
<event>
 5    1  0.1100736E+001  0.2756920E+03  0.7818608E-02  0.1098065E+00
          1   -1    0    0  501    0  0.00000000000E+00  0.00000000000E+00  0.45290676635E+03  0.45290676635E+03  0.00000000000E+00 0. -1.
         -1   -1    0    0    0  501 -0.00000000000E+00 -0.00000000000E+00 -0.41954581172E+02  0.41954581172E+02  0.00000000000E+00 0. -1.
         35    2    1    2    0    0  0.00000000000E+00  0.00000000000E+00  0.41095218517E+03  0.49486134752E+03  0.27569195630E+03 0.  0.
         25    1    3    3    0    0  0.97938699242E+00  0.57961786126E+01  0.32677949582E+03  0.34816575618E+03  0.12000000000E+03 0.  0.
         25    1    3    3    0    0 -0.97938699242E+00 -0.57961786126E+01  0.84172689350E+02  0.14669559134E+03  0.12000000000E+03 0.  0.
<mgrwt>
<rscale>  0 0.27569196E+03</rscale>
<asrwt>0</asrwt>
<pdfrwt beam="1">  1        1 0.69677961E-01 0.27569196E+03</pdfrwt>
<pdfrwt beam="2">  1       -1 0.64545513E-02 0.27569196E+03</pdfrwt>
<totfact> 0.61275762E+03</totfact>
</mgrwt>
</event>
<event>
 5    1  0.1100736E+001  0.2754736E+03  0.7818608E-02  0.1098187E+00
         -2   -1    0    0    0  501 -0.00000000000E+00  0.00000000000E+00  0.19419987301E+02  0.19419987301E+02  0.00000000000E+00 0.  1.
          2   -1    0    0  501    0  0.00000000000E+00 -0.00000000000E+00 -0.97690176653E+03  0.97690176653E+03  0.00000000000E+00 0.  1.
         35    2    1    2    0    0  0.00000000000E+00  0.00000000000E+00 -0.95748177923E+03  0.99632175383E+03  0.27547355518E+03 0.  0.
         25    1    3    3    0    0 -0.62138831024E+02 -0.26629231002E+02 -0.47500032071E+03  0.49456612797E+03  0.12000000000E+03 0.  0.
         25    1    3    3    0    0  0.62138831024E+02  0.26629231002E+02 -0.48248145852E+03  0.50175562586E+03  0.12000000000E+03 0.  0.
<mgrwt>
<rscale>  0 0.27547356E+03</rscale>
<asrwt>0</asrwt>
<pdfrwt beam="1">  1        2 0.15029260E+00 0.27547356E+03</pdfrwt>
<pdfrwt beam="2">  1       -2 0.29876899E-02 0.27547356E+03</pdfrwt>
<totfact> 0.11536196E+04</totfact>
</mgrwt>
</event>
<event>
 5    1  0.1100736E+001  0.2749870E+03  0.7818608E-02  0.1098459E+00
         -1   -1    0    0    0  501 -0.00000000000E+00  0.00000000000E+00  0.17824041459E+02  0.17824041459E+02  0.00000000000E+00 0. -1.
          1   -1    0    0  501    0  0.00000000000E+00 -0.00000000000E+00 -0.10606160991E+04  0.10606160991E+04  0.00000000000E+00 0. -1.
         35    2    1    2    0    0  0.00000000000E+00  0.00000000000E+00 -0.10427920576E+04  0.10784401406E+04  0.27498702022E+03 0.  0.
         25    1    3    3    0    0  0.28378372904E+02  0.44331583287E+02 -0.35809502327E+03  0.38131701643E+03  0.12000000000E+03 0.  0.
         25    1    3    3    0    0 -0.28378372904E+02 -0.44331583287E+02 -0.68469703438E+03  0.69712312414E+03  0.12000000000E+03 0.  0.
<mgrwt>
<rscale>  0 0.27498702E+03</rscale>
<asrwt>0</asrwt>
<pdfrwt beam="1">  1        1 0.16317171E+00 0.27498702E+03</pdfrwt>
<pdfrwt beam="2">  1       -1 0.27421601E-02 0.27498702E+03</pdfrwt>
<totfact> 0.62075334E+03</totfact>
</mgrwt>
</event>
<event>
 5    1  0.1100736E+001  0.2882206E+03  0.7818608E-02  0.1091282E+00
          2   -1    0    0  501    0  0.00000000000E+00  0.00000000000E+00  0.17280983237E+04  0.17280983237E+04  0.00000000000E+00 0.  1.
         -2   -1    0    0    0  501 -0.00000000000E+00 -0.00000000000E+00 -0.12017705479E+02  0.12017705479E+02  0.00000000000E+00 0.  1.
         35    2    1    2    0    0  0.00000000000E+00  0.00000000000E+00  0.17160806182E+04  0.17401160292E+04  0.28822058700E+03 0.  0.
         25    1    3    3    0    0  0.21112377778E+02 -0.72983942897E+02  0.71072314541E+03  0.72477567415E+03  0.12000000000E+03 0.  0.
         25    1    3    3    0    0 -0.21112377778E+02  0.72983942897E+02  0.10053574728E+04  0.10153403551E+04  0.12000000000E+03 0.  0.
<mgrwt>
<rscale>  0 0.28822059E+03</rscale>
<asrwt>0</asrwt>
<pdfrwt beam="1">  1        2 0.26586108E+00 0.28822059E+03</pdfrwt>
<pdfrwt beam="2">  1       -2 0.18488791E-02 0.28822059E+03</pdfrwt>
<totfact> 0.89688744E+03</totfact>
</mgrwt>
</event>
<event>
 5    1  0.1100736E+001  0.2752320E+03  0.7818608E-02  0.1098322E+00
         -1   -1    0    0    0  501 -0.00000000000E+00  0.00000000000E+00  0.89042933901E+02  0.89042933901E+02  0.00000000000E+00 0. -1.
          1   -1    0    0  501    0  0.00000000000E+00 -0.00000000000E+00 -0.21268569985E+03  0.21268569985E+03  0.00000000000E+00 0. -1.
         35    2    1    2    0    0  0.00000000000E+00  0.00000000000E+00 -0.12364276595E+03  0.30172863375E+03  0.27523196554E+03 0.  0.
         25    1    3    3    0    0  0.64447094139E+02 -0.19535741717E+02 -0.63747067148E+02  0.15165342633E+03  0.12000000000E+03 0.  0.
         25    1    3    3    0    0 -0.64447094139E+02  0.19535741717E+02 -0.59895698799E+02  0.15007520742E+03  0.12000000000E+03 0.  0.
<mgrwt>
<rscale>  0 0.27523197E+03</rscale>
<asrwt>0</asrwt>
<pdfrwt beam="1">  1        1 0.32720876E-01 0.27523197E+03</pdfrwt>
<pdfrwt beam="2">  1       -1 0.13698913E-01 0.27523197E+03</pdfrwt>
<totfact> 0.50035159E+03</totfact>
</mgrwt>
</event>
<event>
 5    1  0.1100736E+001  0.2766186E+03  0.7818608E-02  0.1097550E+00
          2   -1    0    0  501    0  0.00000000000E+00  0.00000000000E+00  0.35364724081E+04  0.35364724081E+04  0.00000000000E+00 0. -1.
         -2   -1    0    0    0  501 -0.00000000000E+00 -0.00000000000E+00 -0.54091926497E+01  0.54091926497E+01  0.00000000000E+00 0. -1.
         35    2    1    2    0    0  0.00000000000E+00  0.00000000000E+00  0.35310632155E+04  0.35418816008E+04  0.27661858619E+03 0.  0.
         25    1    3    3    0    0  0.47145858184E+02  0.48413129381E+02  0.19289533787E+04  0.19338634130E+04  0.12000000000E+03 0.  0.
         25    1    3    3    0    0 -0.47145858184E+02 -0.48413129381E+02  0.16021098368E+04  0.16080181878E+04  0.12000000000E+03 0.  0.
<mgrwt>
<rscale>  0 0.27661859E+03</rscale>
<asrwt>0</asrwt>
<pdfrwt beam="1">  1        2 0.54407083E+00 0.27661859E+03</pdfrwt>
<pdfrwt beam="2">  1       -2 0.83218631E-03 0.27661859E+03</pdfrwt>
<totfact> 0.26689074E+03</totfact>
</mgrwt>
</event>
<event>
 5    1  0.1100736E+001  0.2744623E+03  0.7818608E-02  0.1098753E+00
          2   -1    0    0  501    0  0.00000000000E+00  0.00000000000E+00  0.93457626930E+03  0.93457626930E+03  0.00000000000E+00 0.  1.
         -2   -1    0    0    0  501 -0.00000000000E+00 -0.00000000000E+00 -0.20150723362E+02  0.20150723362E+02  0.00000000000E+00 0.  1.
         35    2    1    2    0    0  0.00000000000E+00  0.00000000000E+00  0.91442554594E+03  0.95472699267E+03  0.27446229514E+03 0.  0.
         25    1    3    3    0    0 -0.21157057808E+02 -0.22944062551E+01  0.23777524616E+03  0.26718898383E+03  0.12000000000E+03 0.  0.
         25    1    3    3    0    0  0.21157057808E+02  0.22944062551E+01  0.67665029978E+03  0.68753800883E+03  0.12000000000E+03 0.  0.
<mgrwt>
<rscale>  0 0.27446230E+03</rscale>
<asrwt>0</asrwt>
<pdfrwt beam="1">  1        2 0.14378093E+00 0.27446230E+03</pdfrwt>
<pdfrwt beam="2">  1       -2 0.31001120E-02 0.27446230E+03</pdfrwt>
<totfact> 0.11604609E+04</totfact>
</mgrwt>
</event>
<event>
 5    1  0.1100736E+001  0.2737435E+03  0.7818608E-02  0.1099156E+00
          3   -1    0    0  501    0  0.00000000000E+00  0.00000000000E+00  0.13682817878E+03  0.13682817878E+03  0.00000000000E+00 0.  1.
         -3   -1    0    0    0  501 -0.00000000000E+00 -0.00000000000E+00 -0.13691531073E+03  0.13691531073E+03  0.00000000000E+00 0.  1.
         35    2    1    2    0    0  0.00000000000E+00  0.00000000000E+00 -0.87131950146E-01  0.27374348952E+03  0.27374347565E+03 0.  0.
         25    1    3    3    0    0 -0.35203539496E+02 -0.53290527094E+02  0.15915856643E+02  0.13686666491E+03  0.12000000000E+03 0.  0.
         25    1    3    3    0    0  0.35203539496E+02  0.53290527094E+02 -0.16002988593E+02  0.13687682461E+03  0.12000000000E+03 0.  0.
<mgrwt>
<rscale>  0 0.27374348E+03</rscale>
<asrwt>0</asrwt>
<pdfrwt beam="1">  1        3 0.21050489E-01 0.27374348E+03</pdfrwt>
<pdfrwt beam="2">  1       -3 0.21063894E-01 0.27374348E+03</pdfrwt>
<totfact> 0.10656997E+03</totfact>
</mgrwt>
</event>
<event>
 5    1  0.1100736E+001  0.2781182E+03  0.7818608E-02  0.1096721E+00
          2   -1    0    0  501    0  0.00000000000E+00  0.00000000000E+00  0.89931097749E+03  0.89931097749E+03  0.00000000000E+00 0. -1.
         -2   -1    0    0    0  501 -0.00000000000E+00 -0.00000000000E+00 -0.21502502928E+02  0.21502502928E+02  0.00000000000E+00 0. -1.
         35    2    1    2    0    0  0.00000000000E+00  0.00000000000E+00  0.87780847456E+03  0.92081348042E+03  0.27811822613E+03 0.  0.
         25    1    3    3    0    0 -0.29609797645E+02  0.89957089437E+01  0.23003646979E+03  0.26129378165E+03  0.12000000000E+03 0.  0.
         25    1    3    3    0    0  0.29609797645E+02 -0.89957089437E+01  0.64777200477E+03  0.65951969877E+03  0.12000000000E+03 0.  0.
<mgrwt>
<rscale>  0 0.27811823E+03</rscale>
<asrwt>0</asrwt>
<pdfrwt beam="1">  1        2 0.13835551E+00 0.27811823E+03</pdfrwt>
<pdfrwt beam="2">  1       -2 0.33080781E-02 0.27811823E+03</pdfrwt>
<totfact> 0.11099799E+04</totfact>
</mgrwt>
</event>
<event>
 5    1  0.1100736E+001  0.2745369E+03  0.7818608E-02  0.1098711E+00
         -1   -1    0    0    0  501 -0.00000000000E+00  0.00000000000E+00  0.80797644361E+02  0.80797644361E+02  0.00000000000E+00 0. -1.
          1   -1    0    0  501    0  0.00000000000E+00 -0.00000000000E+00 -0.23320770719E+03  0.23320770719E+03  0.00000000000E+00 0. -1.
         35    2    1    2    0    0  0.00000000000E+00  0.00000000000E+00 -0.15241006283E+03  0.31400535155E+03  0.27453694387E+03 0.  0.
         25    1    3    3    0    0 -0.58175834843E+02 -0.31327126111E+02 -0.86229569107E+02  0.16186832667E+03  0.12000000000E+03 0.  0.
         25    1    3    3    0    0  0.58175834843E+02  0.31327126111E+02 -0.66180493719E+02  0.15213702488E+03  0.12000000000E+03 0.  0.
<mgrwt>
<rscale>  0 0.27453694E+03</rscale>
<asrwt>0</asrwt>
<pdfrwt beam="1">  1        1 0.35878109E-01 0.27453694E+03</pdfrwt>
<pdfrwt beam="2">  1       -1 0.12430407E-01 0.27453694E+03</pdfrwt>
<totfact> 0.51908669E+03</totfact>
</mgrwt>
</event>
<event>
 5    1  0.1100736E+001  0.2711505E+03  0.7818608E-02  0.1100623E+00
          1   -1    0    0  501    0  0.00000000000E+00  0.00000000000E+00  0.20989176537E+02  0.20989176537E+02  0.00000000000E+00 0.  1.
         -1   -1    0    0    0  501 -0.00000000000E+00 -0.00000000000E+00 -0.87572006265E+03  0.87572006265E+03  0.00000000000E+00 0.  1.
         35    2    1    2    0    0  0.00000000000E+00  0.00000000000E+00 -0.85473088611E+03  0.89670923919E+03  0.27115046002E+03 0.  0.
         25    1    3    3    0    0 -0.61071993894E+02  0.10257653113E+02 -0.38745612223E+03  0.41031360511E+03  0.12000000000E+03 0.  0.
         25    1    3    3    0    0  0.61071993894E+02 -0.10257653113E+02 -0.46727476389E+03  0.48639563408E+03  0.12000000000E+03 0.  0.
<mgrwt>
<rscale>  0 0.27115046E+03</rscale>
<asrwt>0</asrwt>
<pdfrwt beam="1">  1        1 0.32291046E-02 0.27115046E+03</pdfrwt>
<pdfrwt beam="2">  1       -1 0.13472614E+00 0.27115046E+03</pdfrwt>
<totfact> 0.15292815E+03</totfact>
</mgrwt>
</event>
<event>
 5    1  0.1100736E+001  0.2749632E+03  0.7818608E-02  0.1098472E+00
          2   -1    0    0  501    0  0.00000000000E+00  0.00000000000E+00  0.14140628144E+03  0.14140628144E+03  0.00000000000E+00 0. -1.
         -2   -1    0    0    0  501 -0.00000000000E+00 -0.00000000000E+00 -0.13366581709E+03  0.13366581709E+03  0.00000000000E+00 0. -1.
         35    2    1    2    0    0  0.00000000000E+00  0.00000000000E+00  0.77404643503E+01  0.27507209853E+03  0.27496316953E+03 0.  0.
         25    1    3    3    0    0 -0.23694177035E+02  0.49971219729E+02 -0.34127038586E+02  0.13646681497E+03  0.12000000000E+03 0.  0.
         25    1    3    3    0    0  0.23694177035E+02 -0.49971219729E+02  0.41867502936E+02  0.13860528355E+03  0.12000000000E+03 0.  0.
<mgrwt>
<rscale>  0 0.27496317E+03</rscale>
<asrwt>0</asrwt>
<pdfrwt beam="1">  1        2 0.21754813E-01 0.27496317E+03</pdfrwt>
<pdfrwt beam="2">  1       -2 0.20563972E-01 0.27496317E+03</pdfrwt>
<totfact> 0.50141863E+03</totfact>
</mgrwt>
</event>
<event>
 5    1  0.1100736E+001  0.2769447E+03  0.7818608E-02  0.1097369E+00
         -2   -1    0    0    0  501 -0.00000000000E+00  0.00000000000E+00  0.54247957997E+02  0.54247957997E+02  0.00000000000E+00 0.  1.
          2   -1    0    0  501    0  0.00000000000E+00 -0.00000000000E+00 -0.35346209310E+03  0.35346209310E+03  0.00000000000E+00 0.  1.
         35    2    1    2    0    0  0.00000000000E+00  0.00000000000E+00 -0.29921413511E+03  0.40771005110E+03  0.27694473658E+03 0.  0.
         25    1    3    3    0    0 -0.48539332867E+02 -0.23170889066E+02 -0.85747414772E+02  0.15698909540E+03  0.12000000000E+03 0.  0.
         25    1    3    3    0    0  0.48539332867E+02  0.23170889066E+02 -0.21346672033E+03  0.25072095570E+03  0.12000000000E+03 0.  0.
<mgrwt>
<rscale>  0 0.27694474E+03</rscale>
<asrwt>0</asrwt>
<pdfrwt beam="1">  1        2 0.54378783E-01 0.27694474E+03</pdfrwt>
<pdfrwt beam="2">  1       -2 0.83458397E-02 0.27694474E+03</pdfrwt>
<totfact> 0.80332439E+03</totfact>
</mgrwt>
</event>
<event>
 5    1  0.1100736E+001  0.2757817E+03  0.7818608E-02  0.1098015E+00
         -1   -1    0    0    0  501 -0.00000000000E+00  0.00000000000E+00  0.10143618476E+03  0.10143618476E+03  0.00000000000E+00 0.  1.
          1   -1    0    0  501    0  0.00000000000E+00 -0.00000000000E+00 -0.18744678234E+03  0.18744678234E+03  0.00000000000E+00 0.  1.
         35    2    1    2    0    0  0.00000000000E+00  0.00000000000E+00 -0.86010597580E+02  0.28888296710E+03  0.27578169951E+03 0.  0.
         25    1    3    3    0    0  0.29300084603E+02 -0.60885146908E+02 -0.50292084287E+02  0.14661101532E+03  0.12000000000E+03 0.  0.
         25    1    3    3    0    0 -0.29300084603E+02  0.60885146908E+02 -0.35718513293E+02  0.14227195178E+03  0.12000000000E+03 0.  0.
<mgrwt>
<rscale>  0 0.27578170E+03</rscale>
<asrwt>0</asrwt>
<pdfrwt beam="1">  1        1 0.28837966E-01 0.27578170E+03</pdfrwt>
<pdfrwt beam="2">  1       -1 0.15605567E-01 0.27578170E+03</pdfrwt>
<totfact> 0.47735731E+03</totfact>
</mgrwt>
</event>
<event>
 5    1  0.1100736E+001  0.2749793E+03  0.7818608E-02  0.1098463E+00
         -2   -1    0    0    0  501 -0.00000000000E+00  0.00000000000E+00  0.12411879093E+02  0.12411879093E+02  0.00000000000E+00 0.  1.
          2   -1    0    0  501    0  0.00000000000E+00 -0.00000000000E+00 -0.15230090576E+04  0.15230090576E+04  0.00000000000E+00 0.  1.
         35    2    1    2    0    0  0.00000000000E+00  0.00000000000E+00 -0.15105971785E+04  0.15354209367E+04  0.27497930308E+03 0.  0.
         25    1    3    3    0    0 -0.41031879545E+02 -0.50541720674E+02 -0.84625124873E+03  0.85719266017E+03  0.12000000000E+03 0.  0.
         25    1    3    3    0    0  0.41031879545E+02  0.50541720674E+02 -0.66434592975E+03  0.67822827650E+03  0.12000000000E+03 0.  0.
<mgrwt>
<rscale>  0 0.27497930E+03</rscale>
<asrwt>0</asrwt>
<pdfrwt beam="1">  1        2 0.23430901E+00 0.27497930E+03</pdfrwt>
<pdfrwt beam="2">  1       -2 0.19095205E-02 0.27497930E+03</pdfrwt>
<totfact> 0.10976126E+04</totfact>
</mgrwt>
</event>
<event>
 5    1  0.1100736E+001  0.2746520E+03  0.7818608E-02  0.1098646E+00
         -2   -1    0    0    0  501 -0.00000000000E+00  0.00000000000E+00  0.28529397040E+02  0.28529397040E+02  0.00000000000E+00 0.  1.
          2   -1    0    0  501    0  0.00000000000E+00 -0.00000000000E+00 -0.66101752535E+03  0.66101752535E+03  0.00000000000E+00 0.  1.
         35    2    1    2    0    0  0.00000000000E+00  0.00000000000E+00 -0.63248812831E+03  0.68954692239E+03  0.27465200841E+03 0.  0.
         25    1    3    3    0    0  0.31222636791E+02 -0.10026552559E+02 -0.17021643407E+03  0.21082936046E+03  0.12000000000E+03 0.  0.
         25    1    3    3    0    0 -0.31222636791E+02  0.10026552559E+02 -0.46227169424E+03  0.47871756193E+03  0.12000000000E+03 0.  0.
<mgrwt>
<rscale>  0 0.27465201E+03</rscale>
<asrwt>0</asrwt>
<pdfrwt beam="1">  1        2 0.10169499E+00 0.27465201E+03</pdfrwt>
<pdfrwt beam="2">  1       -2 0.43891384E-02 0.27465201E+03</pdfrwt>
<totfact> 0.10690489E+04</totfact>
</mgrwt>
</event>
<event>
 5    1  0.1100736E+001  0.2724103E+03  0.7818608E-02  0.1099908E+00
         -2   -1    0    0    0  501 -0.00000000000E+00  0.00000000000E+00  0.25190380147E+02  0.25190380147E+02  0.00000000000E+00 0.  1.
          2   -1    0    0  501    0  0.00000000000E+00 -0.00000000000E+00 -0.73646554891E+03  0.73646554891E+03  0.00000000000E+00 0.  1.
         35    2    1    2    0    0  0.00000000000E+00  0.00000000000E+00 -0.71127516876E+03  0.76165592905E+03  0.27241033124E+03 0.  0.
         25    1    3    3    0    0  0.61378740361E+02 -0.11924682750E+02 -0.39915983506E+03  0.42147137715E+03  0.12000000000E+03 0.  0.
         25    1    3    3    0    0 -0.61378740361E+02  0.11924682750E+02 -0.31211533370E+03  0.34018455191E+03  0.12000000000E+03 0.  0.
<mgrwt>
<rscale>  0 0.27241033E+03</rscale>
<asrwt>0</asrwt>
<pdfrwt beam="1">  1        2 0.11330237E+00 0.27241033E+03</pdfrwt>
<pdfrwt beam="2">  1       -2 0.38754440E-02 0.27241033E+03</pdfrwt>
<totfact> 0.11307594E+04</totfact>
</mgrwt>
</event>
<event>
 5    1  0.1100736E+001  0.2767259E+03  0.7818608E-02  0.1097491E+00
          1   -1    0    0  501    0  0.00000000000E+00  0.00000000000E+00  0.15812645171E+04  0.15812645171E+04  0.00000000000E+00 0. -1.
         -1   -1    0    0    0  501 -0.00000000000E+00 -0.00000000000E+00 -0.12106957261E+02  0.12106957261E+02  0.00000000000E+00 0. -1.
         35    2    1    2    0    0  0.00000000000E+00  0.00000000000E+00  0.15691575599E+04  0.15933714744E+04  0.27672587105E+03 0.  0.
         25    1    3    3    0    0  0.27431040669E+02  0.26074268091E+02  0.45321072823E+03  0.47035337102E+03  0.12000000000E+03 0.  0.
         25    1    3    3    0    0 -0.27431040669E+02 -0.26074268091E+02  0.11159468316E+04  0.11230181034E+04  0.12000000000E+03 0.  0.
<mgrwt>
<rscale>  0 0.27672587E+03</rscale>
<asrwt>0</asrwt>
<pdfrwt beam="1">  1        1 0.24327130E+00 0.27672587E+03</pdfrwt>
<pdfrwt beam="2">  1       -1 0.18626101E-02 0.27672587E+03</pdfrwt>
<totfact> 0.48126451E+03</totfact>
</mgrwt>
</event>
<event>
 5    1  0.1100736E+001  0.2759455E+03  0.7818608E-02  0.1097924E+00
          2   -1    0    0  501    0  0.00000000000E+00  0.00000000000E+00  0.75942389651E+03  0.75942389651E+03  0.00000000000E+00 0.  1.
         -2   -1    0    0    0  501 -0.00000000000E+00 -0.00000000000E+00 -0.25067004944E+02  0.25067004944E+02  0.00000000000E+00 0.  1.
         35    2    1    2    0    0  0.00000000000E+00  0.00000000000E+00  0.73435689157E+03  0.78449090145E+03  0.27594552048E+03 0.  0.
         25    1    3    3    0    0  0.14341895494E+01 -0.50089870684E+02  0.23611305727E+03  0.26955598279E+03  0.12000000000E+03 0.  0.
         25    1    3    3    0    0 -0.14341895494E+01  0.50089870684E+02  0.49824383430E+03  0.51493491867E+03  0.12000000000E+03 0.  0.
<mgrwt>
<rscale>  0 0.27594552E+03</rscale>
<asrwt>0</asrwt>
<pdfrwt beam="1">  1        2 0.11683443E+00 0.27594552E+03</pdfrwt>
<pdfrwt beam="2">  1       -2 0.38564629E-02 0.27594552E+03</pdfrwt>
<totfact> 0.10970658E+04</totfact>
</mgrwt>
</event>
<event>
 5    1  0.1100736E+001  0.2758943E+03  0.7818608E-02  0.1097953E+00
         -2   -1    0    0    0  501 -0.00000000000E+00  0.00000000000E+00  0.19083171405E+02  0.19083171405E+02  0.00000000000E+00 0. -1.
          2   -1    0    0  501    0  0.00000000000E+00 -0.00000000000E+00 -0.99718311128E+03  0.99718311128E+03  0.00000000000E+00 0. -1.
         35    2    1    2    0    0  0.00000000000E+00  0.00000000000E+00 -0.97809993987E+03  0.10162662827E+04  0.27589430030E+03 0.  0.
         25    1    3    3    0    0 -0.41218642134E+02 -0.27984138730E+02 -0.65974228050E+03  0.67241502449E+03  0.12000000000E+03 0.  0.
         25    1    3    3    0    0  0.41218642134E+02  0.27984138730E+02 -0.31835765937E+03  0.34385125819E+03  0.12000000000E+03 0.  0.
<mgrwt>
<rscale>  0 0.27589430E+03</rscale>
<asrwt>0</asrwt>
<pdfrwt beam="1">  1        2 0.15341279E+00 0.27589430E+03</pdfrwt>
<pdfrwt beam="2">  1       -2 0.29358725E-02 0.27589430E+03</pdfrwt>
<totfact> 0.11504985E+04</totfact>
</mgrwt>
</event>
<event>
 5    1  0.1100736E+001  0.2783751E+03  0.7818608E-02  0.1096580E+00
         -2   -1    0    0    0  501 -0.00000000000E+00  0.00000000000E+00  0.26989102155E+02  0.26989102155E+02  0.00000000000E+00 0. -1.
          2   -1    0    0  501    0  0.00000000000E+00 -0.00000000000E+00 -0.71781466553E+03  0.71781466553E+03  0.00000000000E+00 0. -1.
         35    2    1    2    0    0  0.00000000000E+00  0.00000000000E+00 -0.69082556338E+03  0.74480376769E+03  0.27837509469E+03 0.  0.
         25    1    3    3    0    0 -0.52825222309E+02  0.43446640345E+02 -0.29945429974E+03  0.32977415348E+03  0.12000000000E+03 0.  0.
         25    1    3    3    0    0  0.52825222309E+02 -0.43446640345E+02 -0.39137126364E+03  0.41502961421E+03  0.12000000000E+03 0.  0.
<mgrwt>
<rscale>  0 0.27837509E+03</rscale>
<asrwt>0</asrwt>
<pdfrwt beam="1">  1        2 0.11043303E+00 0.27837509E+03</pdfrwt>
<pdfrwt beam="2">  1       -2 0.41521695E-02 0.27837509E+03</pdfrwt>
<totfact> 0.10527786E+04</totfact>
</mgrwt>
</event>
<event>
 5    1  0.1100736E+001  0.2752540E+03  0.7818608E-02  0.1098310E+00
          2   -1    0    0  501    0  0.00000000000E+00  0.00000000000E+00  0.99718271651E+03  0.99718271651E+03  0.00000000000E+00 0.  1.
         -2   -1    0    0    0  501 -0.00000000000E+00 -0.00000000000E+00 -0.18994701451E+02  0.18994701451E+02  0.00000000000E+00 0.  1.
         35    2    1    2    0    0  0.00000000000E+00  0.00000000000E+00  0.97818801505E+03  0.10161774180E+04  0.27525397721E+03 0.  0.
         25    1    3    3    0    0  0.12102900149E+02  0.43758289284E+02  0.67294025301E+03  0.68506193310E+03  0.12000000000E+03 0.  0.
         25    1    3    3    0    0 -0.12102900149E+02 -0.43758289284E+02  0.30524776205E+03  0.33111548485E+03  0.12000000000E+03 0.  0.
<mgrwt>
<rscale>  0 0.27525398E+03</rscale>
<asrwt>0</asrwt>
<pdfrwt beam="1">  1        2 0.15341269E+00 0.27525398E+03</pdfrwt>
<pdfrwt beam="2">  1       -2 0.29222625E-02 0.27525398E+03</pdfrwt>
<totfact> 0.11583932E+04</totfact>
</mgrwt>
</event>
<event>
 5    1  0.1100736E+001  0.2755766E+03  0.7818608E-02  0.1098130E+00
          2   -1    0    0  501    0  0.00000000000E+00  0.00000000000E+00  0.44368755623E+03  0.44368755623E+03  0.00000000000E+00 0. -1.
         -2   -1    0    0    0  501 -0.00000000000E+00 -0.00000000000E+00 -0.42790505949E+02  0.42790505949E+02  0.00000000000E+00 0. -1.
         35    2    1    2    0    0  0.00000000000E+00  0.00000000000E+00  0.40089705028E+03  0.48647806218E+03  0.27557659563E+03 0.  0.
         25    1    3    3    0    0 -0.55986290507E+02  0.33164255574E+02  0.23353489736E+03  0.27050486291E+03  0.12000000000E+03 0.  0.
         25    1    3    3    0    0  0.55986290507E+02 -0.33164255574E+02  0.16736215292E+03  0.21597319927E+03  0.12000000000E+03 0.  0.
<mgrwt>
<rscale>  0 0.27557660E+03</rscale>
<asrwt>0</asrwt>
<pdfrwt beam="1">  1        2 0.68259621E-01 0.27557660E+03</pdfrwt>
<pdfrwt beam="2">  1       -2 0.65831551E-02 0.27557660E+03</pdfrwt>
<totfact> 0.90702625E+03</totfact>
</mgrwt>
</event>
<event>
 5    1  0.1100736E+001  0.2754801E+03  0.7818608E-02  0.1098184E+00
          2   -1    0    0  501    0  0.00000000000E+00  0.00000000000E+00  0.17554870081E+04  0.17554870081E+04  0.00000000000E+00 0. -1.
         -2   -1    0    0    0  501 -0.00000000000E+00 -0.00000000000E+00 -0.10807438369E+02  0.10807438369E+02  0.00000000000E+00 0. -1.
         35    2    1    2    0    0  0.00000000000E+00  0.00000000000E+00  0.17446795698E+04  0.17662944465E+04  0.27548007295E+03 0.  0.
         25    1    3    3    0    0  0.43721372479E+02 -0.51159010329E+02  0.83004450490E+03  0.84136952813E+03  0.12000000000E+03 0.  0.
         25    1    3    3    0    0 -0.43721372479E+02  0.51159010329E+02  0.91463506486E+03  0.92492491837E+03  0.12000000000E+03 0.  0.
<mgrwt>
<rscale>  0 0.27548007E+03</rscale>
<asrwt>0</asrwt>
<pdfrwt beam="1">  1        2 0.27007470E+00 0.27548007E+03</pdfrwt>
<pdfrwt beam="2">  1       -2 0.16626842E-02 0.27548007E+03</pdfrwt>
<totfact> 0.10132923E+04</totfact>
</mgrwt>
</event>
<event>
 5    1  0.1100736E+001  0.2779795E+03  0.7818608E-02  0.1096798E+00
         -2   -1    0    0    0  501 -0.00000000000E+00  0.00000000000E+00  0.69773910675E+02  0.69773910675E+02  0.00000000000E+00 0.  1.
          2   -1    0    0  501    0  0.00000000000E+00 -0.00000000000E+00 -0.27686776120E+03  0.27686776120E+03  0.00000000000E+00 0.  1.
         35    2    1    2    0    0  0.00000000000E+00  0.00000000000E+00 -0.20709385052E+03  0.34664167187E+03  0.27797947002E+03 0.  0.
         25    1    3    3    0    0 -0.97605265309E+01 -0.60824692975E+02 -0.61753937771E+02  0.14835248560E+03  0.12000000000E+03 0.  0.
         25    1    3    3    0    0  0.97605265309E+01  0.60824692975E+02 -0.14533991275E+03  0.19828918627E+03  0.12000000000E+03 0.  0.
<mgrwt>
<rscale>  0 0.27797947E+03</rscale>
<asrwt>0</asrwt>
<pdfrwt beam="1">  1        2 0.42595039E-01 0.27797947E+03</pdfrwt>
<pdfrwt beam="2">  1       -2 0.10734448E-01 0.27797947E+03</pdfrwt>
<totfact> 0.70169533E+03</totfact>
</mgrwt>
</event>
<event>
 4    1  0.1100736E+001  0.3285232E+03  0.7818608E-02  0.1071792E+00
          1   -1    0    0  501    0  0.00000000000E+00  0.00000000000E+00  0.18457352061E+04  0.18457352061E+04  0.00000000000E+00 0. -1.
         -1   -1    0    0    0  501 -0.00000000000E+00 -0.00000000000E+00 -0.14618497913E+02  0.14618497913E+02  0.00000000000E+00 0. -1.
         25    1    1    2    0    0 -0.10172648323E+02 -0.24719372984E+02  0.29867044475E+03  0.32298384594E+03  0.12000000000E+03 0.  0.
         25    1    1    2    0    0  0.10172648323E+02  0.24719372984E+02  0.15324462634E+04  0.15373698581E+04  0.12000000000E+03 0.  0.
<mgrwt>
<rscale>  0 0.32852322E+03</rscale>
<asrwt>0</asrwt>
<pdfrwt beam="1">  1        1 0.28395908E+00 0.32852322E+03</pdfrwt>
<pdfrwt beam="2">  1       -1 0.22490011E-02 0.32852322E+03</pdfrwt>
<totfact> 0.24487666E+03</totfact>
</mgrwt>
</event>
<event>
 5    1  0.1100736E+001  0.2748693E+03  0.7818608E-02  0.1098525E+00
         -1   -1    0    0    0  501 -0.00000000000E+00  0.00000000000E+00  0.15898169263E+02  0.15898169263E+02  0.00000000000E+00 0. -1.
          1   -1    0    0  501    0  0.00000000000E+00 -0.00000000000E+00 -0.11880794040E+04  0.11880794040E+04  0.00000000000E+00 0. -1.
         35    2    1    2    0    0  0.00000000000E+00  0.00000000000E+00 -0.11721812347E+04  0.12039775732E+04  0.27486933232E+03 0.  0.
         25    1    3    3    0    0  0.38848200676E+01 -0.41009484252E+02 -0.35466867495E+03  0.37667856140E+03  0.12000000000E+03 0.  0.
         25    1    3    3    0    0 -0.38848200676E+01  0.41009484252E+02 -0.81751255976E+03  0.82729901184E+03  0.12000000000E+03 0.  0.
<mgrwt>
<rscale>  0 0.27486933E+03</rscale>
<asrwt>0</asrwt>
<pdfrwt beam="1">  1        1 0.18278148E+00 0.27486933E+03</pdfrwt>
<pdfrwt beam="2">  1       -1 0.24458717E-02 0.27486933E+03</pdfrwt>
<totfact> 0.59528076E+03</totfact>
</mgrwt>
</event>
<event>
 5    1  0.1100736E+001  0.2742886E+03  0.7818608E-02  0.1098850E+00
          2   -1    0    0  501    0  0.00000000000E+00  0.00000000000E+00  0.75908061919E+03  0.75908061919E+03  0.00000000000E+00 0. -1.
         -2   -1    0    0    0  501 -0.00000000000E+00 -0.00000000000E+00 -0.24778072242E+02  0.24778072242E+02  0.00000000000E+00 0. -1.
         35    2    1    2    0    0  0.00000000000E+00  0.00000000000E+00  0.73430254695E+03  0.78385869144E+03  0.27428856644E+03 0.  0.
         25    1    3    3    0    0 -0.53461942932E+02  0.13463624415E+02  0.47289353484E+03  0.49098650065E+03  0.12000000000E+03 0.  0.
         25    1    3    3    0    0  0.53461942932E+02 -0.13463624415E+02  0.26140901211E+03  0.29287219079E+03  0.12000000000E+03 0.  0.
<mgrwt>
<rscale>  0 0.27428857E+03</rscale>
<asrwt>0</asrwt>
<pdfrwt beam="1">  1        2 0.11678162E+00 0.27428857E+03</pdfrwt>
<pdfrwt beam="2">  1       -2 0.38120117E-02 0.27428857E+03</pdfrwt>
<totfact> 0.11167216E+04</totfact>
</mgrwt>
</event>
<event>
 5    1  0.1100736E+001  0.2744531E+03  0.7818608E-02  0.1098758E+00
         -2   -1    0    0    0  501 -0.00000000000E+00  0.00000000000E+00  0.97897473291E+01  0.97897473291E+01  0.00000000000E+00 0. -1.
          2   -1    0    0  501    0  0.00000000000E+00 -0.00000000000E+00 -0.19235553965E+04  0.19235553965E+04  0.00000000000E+00 0. -1.
         35    2    1    2    0    0  0.00000000000E+00  0.00000000000E+00 -0.19137656491E+04  0.19333451438E+04  0.27445306560E+03 0.  0.
         25    1    3    3    0    0 -0.14258354607E+02 -0.63148339429E+02 -0.10660380399E+04  0.10747223437E+04  0.12000000000E+03 0.  0.
         25    1    3    3    0    0  0.14258354607E+02  0.63148339429E+02 -0.84772760923E+03  0.85862280013E+03  0.12000000000E+03 0.  0.
<mgrwt>
<rscale>  0 0.27445307E+03</rscale>
<asrwt>0</asrwt>
<pdfrwt beam="1">  1        2 0.29593154E+00 0.27445307E+03</pdfrwt>
<pdfrwt beam="2">  1       -2 0.15061153E-02 0.27445307E+03</pdfrwt>
<totfact> 0.95580194E+03</totfact>
</mgrwt>
</event>
<event>
 5    1  0.1100736E+001  0.2753146E+03  0.7818608E-02  0.1098276E+00
         -1   -1    0    0    0  501 -0.00000000000E+00  0.00000000000E+00  0.16069513590E+03  0.16069513590E+03  0.00000000000E+00 0. -1.
          1   -1    0    0  501    0  0.00000000000E+00 -0.00000000000E+00 -0.11792228091E+03  0.11792228091E+03  0.00000000000E+00 0. -1.
         35    2    1    2    0    0  0.00000000000E+00  0.00000000000E+00  0.42772854992E+02  0.27861741680E+03  0.27531463423E+03 0.  0.
         25    1    3    3    0    0  0.21371275845E+02 -0.35572924573E+02  0.75197355788E+02  0.14756966731E+03  0.12000000000E+03 0.  0.
         25    1    3    3    0    0 -0.21371275845E+02  0.35572924573E+02 -0.32424500796E+02  0.13104774949E+03  0.12000000000E+03 0.  0.
<mgrwt>
<rscale>  0 0.27531463E+03</rscale>
<asrwt>0</asrwt>
<pdfrwt beam="1">  1        1 0.18141889E-01 0.27531463E+03</pdfrwt>
<pdfrwt beam="2">  1       -1 0.24722328E-01 0.27531463E+03</pdfrwt>
<totfact> 0.40907223E+03</totfact>
</mgrwt>
</event>
<event>
 5    1  0.1100736E+001  0.2784349E+03  0.7818608E-02  0.1096547E+00
          4   -1    0    0  501    0  0.00000000000E+00  0.00000000000E+00  0.64961798226E+02  0.64961798226E+02  0.00000000000E+00 0. -1.
         -4   -1    0    0    0  501 -0.00000000000E+00 -0.00000000000E+00 -0.29835220136E+03  0.29835220136E+03  0.00000000000E+00 0. -1.
         35    2    1    2    0    0  0.00000000000E+00  0.00000000000E+00 -0.23339040314E+03  0.36331399959E+03  0.27843487932E+03 0.  0.
         25    1    3    3    0    0  0.21930384778E+02  0.53270311636E+02 -0.16990383567E+03  0.21583785872E+03  0.12000000000E+03 0.  0.
         25    1    3    3    0    0 -0.21930384778E+02 -0.53270311636E+02 -0.63486567461E+02  0.14747614087E+03  0.12000000000E+03 0.  0.
<mgrwt>
<rscale>  0 0.27843488E+03</rscale>
<asrwt>0</asrwt>
<pdfrwt beam="1">  1        4 0.99941225E-02 0.27843488E+03</pdfrwt>
<pdfrwt beam="2">  1       -4 0.45900340E-01 0.27843488E+03</pdfrwt>
<totfact> 0.65854476E+02</totfact>
</mgrwt>
</event>
<event>
 5    1  0.1100736E+001  0.2753398E+03  0.7818608E-02  0.1098262E+00
         -1   -1    0    0    0  501 -0.00000000000E+00  0.00000000000E+00  0.16716808791E+02  0.16716808791E+02  0.00000000000E+00 0.  1.
          1   -1    0    0  501    0  0.00000000000E+00 -0.00000000000E+00 -0.11337691213E+04  0.11337691213E+04  0.00000000000E+00 0.  1.
         35    2    1    2    0    0  0.00000000000E+00  0.00000000000E+00 -0.11170523125E+04  0.11504859301E+04  0.27533980181E+03 0.  0.
         25    1    3    3    0    0 -0.28642344064E+02  0.28072971853E+02 -0.33179040068E+03  0.35509624837E+03  0.12000000000E+03 0.  0.
         25    1    3    3    0    0  0.28642344064E+02 -0.28072971853E+02 -0.78526191185E+03  0.79538968174E+03  0.12000000000E+03 0.  0.
<mgrwt>
<rscale>  0 0.27533980E+03</rscale>
<asrwt>0</asrwt>
<pdfrwt beam="1">  1        1 0.17442605E+00 0.27533980E+03</pdfrwt>
<pdfrwt beam="2">  1       -1 0.25718163E-02 0.27533980E+03</pdfrwt>
<totfact> 0.60410615E+03</totfact>
</mgrwt>
</event>
<event>
 5    1  0.1100736E+001  0.2749693E+03  0.7818608E-02  0.1098469E+00
         -2   -1    0    0    0  501 -0.00000000000E+00  0.00000000000E+00  0.18172175580E+02  0.18172175580E+02  0.00000000000E+00 0. -1.
          2   -1    0    0  501    0  0.00000000000E+00 -0.00000000000E+00 -0.10401631775E+04  0.10401631775E+04  0.00000000000E+00 0. -1.
         35    2    1    2    0    0  0.00000000000E+00  0.00000000000E+00 -0.10219910020E+04  0.10583353531E+04  0.27496929206E+03 0.  0.
         25    1    3    3    0    0  0.52459539938E+01  0.28325994682E+02 -0.74423337354E+03  0.75439591482E+03  0.12000000000E+03 0.  0.
         25    1    3    3    0    0 -0.52459539938E+01 -0.28325994682E+02 -0.27775762841E+03  0.30393943829E+03  0.12000000000E+03 0.  0.
<mgrwt>
<rscale>  0 0.27496929E+03</rscale>
<asrwt>0</asrwt>
<pdfrwt beam="1">  1        2 0.16002515E+00 0.27496929E+03</pdfrwt>
<pdfrwt beam="2">  1       -2 0.27957186E-02 0.27496929E+03</pdfrwt>
<totfact> 0.11649362E+04</totfact>
</mgrwt>
</event>
<event>
 5    1  0.1100736E+001  0.2752448E+03  0.7818608E-02  0.1098315E+00
         -2   -1    0    0    0  501 -0.00000000000E+00  0.00000000000E+00  0.75410558717E+02  0.75410558717E+02  0.00000000000E+00 0.  1.
          2   -1    0    0  501    0  0.00000000000E+00 -0.00000000000E+00 -0.25115750533E+03  0.25115750533E+03  0.00000000000E+00 0.  1.
         35    2    1    2    0    0  0.00000000000E+00  0.00000000000E+00 -0.17574694662E+03  0.32656806405E+03  0.27524482050E+03 0.  0.
         25    1    3    3    0    0  0.28310266150E+02 -0.56686493097E+02 -0.11506131885E+03  0.17791553267E+03  0.12000000000E+03 0.  0.
         25    1    3    3    0    0 -0.28310266150E+02  0.56686493097E+02 -0.60685627769E+02  0.14865253138E+03  0.12000000000E+03 0.  0.
<mgrwt>
<rscale>  0 0.27524482E+03</rscale>
<asrwt>0</asrwt>
<pdfrwt beam="1">  1        2 0.38639616E-01 0.27524482E+03</pdfrwt>
<pdfrwt beam="2">  1       -2 0.11601624E-01 0.27524482E+03</pdfrwt>
<totfact> 0.68781887E+03</totfact>
</mgrwt>
</event>
<event>
 5    1  0.1100736E+001  0.2754473E+03  0.7818608E-02  0.1098202E+00
         -4   -1    0    0    0  501 -0.00000000000E+00  0.00000000000E+00  0.32201692936E+03  0.32201692936E+03  0.00000000000E+00 0.  1.
          4   -1    0    0  501    0  0.00000000000E+00 -0.00000000000E+00 -0.58903120470E+02  0.58903120470E+02  0.00000000000E+00 0.  1.
         35    2    1    2    0    0  0.00000000000E+00  0.00000000000E+00  0.26311380889E+03  0.38092004983E+03  0.27544728703E+03 0.  0.
         25    1    3    3    0    0 -0.45907431854E+02 -0.37725664268E+02  0.17609198966E+03  0.22122184988E+03  0.12000000000E+03 0.  0.
         25    1    3    3    0    0  0.45907431854E+02  0.37725664268E+02  0.87021819233E+02  0.15969819995E+03  0.12000000000E+03 0.  0.
<mgrwt>
<rscale>  0 0.27544729E+03</rscale>
<asrwt>0</asrwt>
<pdfrwt beam="1">  1        4 0.90620187E-02 0.27544729E+03</pdfrwt>
<pdfrwt beam="2">  1       -4 0.49541065E-01 0.27544729E+03</pdfrwt>
<totfact> 0.66414864E+02</totfact>
</mgrwt>
</event>
<event>
 5    1  0.1100736E+001  0.2748930E+03  0.7818608E-02  0.1098511E+00
          1   -1    0    0  501    0  0.00000000000E+00  0.00000000000E+00  0.19324689939E+03  0.19324689939E+03  0.00000000000E+00 0. -1.
         -1   -1    0    0    0  501 -0.00000000000E+00 -0.00000000000E+00 -0.97758534841E+02  0.97758534841E+02  0.00000000000E+00 0. -1.
         35    2    1    2    0    0  0.00000000000E+00  0.00000000000E+00  0.95488364545E+02  0.29100543423E+03  0.27489295187E+03 0.  0.
         25    1    3    3    0    0 -0.44415098711E+01  0.66417178677E+02  0.39505670604E+02  0.14279939301E+03  0.12000000000E+03 0.  0.
         25    1    3    3    0    0  0.44415098711E+01 -0.66417178677E+02  0.55982693941E+02  0.14820604122E+03  0.12000000000E+03 0.  0.
<mgrwt>
<rscale>  0 0.27489295E+03</rscale>
<asrwt>0</asrwt>
<pdfrwt beam="1">  1        1 0.29730292E-01 0.27489295E+03</pdfrwt>
<pdfrwt beam="2">  1       -1 0.15039775E-01 0.27489295E+03</pdfrwt>
<totfact> 0.48704970E+03</totfact>
</mgrwt>
</event>
<event>
 5    1  0.1100736E+001  0.2767288E+03  0.7818608E-02  0.1097489E+00
         -1   -1    0    0    0  501 -0.00000000000E+00  0.00000000000E+00  0.73881373544E+02  0.73881373544E+02  0.00000000000E+00 0.  1.
          1   -1    0    0  501    0  0.00000000000E+00 -0.00000000000E+00 -0.25912767931E+03  0.25912767931E+03  0.00000000000E+00 0.  1.
         35    2    1    2    0    0  0.00000000000E+00  0.00000000000E+00 -0.18524630576E+03  0.33300905285E+03  0.27672881217E+03 0.  0.
         25    1    3    3    0    0 -0.42006707652E+02 -0.49788508731E+02 -0.11956508633E+03  0.18149178758E+03  0.12000000000E+03 0.  0.
         25    1    3    3    0    0  0.42006707652E+02  0.49788508731E+02 -0.65681219431E+02  0.15151726527E+03  0.12000000000E+03 0.  0.
<mgrwt>
<rscale>  0 0.27672881E+03</rscale>
<asrwt>0</asrwt>
<pdfrwt beam="1">  1        1 0.39865797E-01 0.27672881E+03</pdfrwt>
<pdfrwt beam="2">  1       -1 0.11366365E-01 0.27672881E+03</pdfrwt>
<totfact> 0.52306545E+03</totfact>
</mgrwt>
</event>
<event>
 5    1  0.1100736E+001  0.2747870E+03  0.7818608E-02  0.1098571E+00
          3   -1    0    0  501    0  0.00000000000E+00  0.00000000000E+00  0.28612370180E+02  0.28612370180E+02  0.00000000000E+00 0. -1.
         -3   -1    0    0    0  501 -0.00000000000E+00 -0.00000000000E+00 -0.65974877082E+03  0.65974877082E+03  0.00000000000E+00 0. -1.
         35    2    1    2    0    0  0.00000000000E+00  0.00000000000E+00 -0.63113640064E+03  0.68836114100E+03  0.27478701612E+03 0.  0.
         25    1    3    3    0    0  0.64379132228E+02  0.96963952470E+01 -0.27689884344E+03  0.30872586909E+03  0.12000000000E+03 0.  0.
         25    1    3    3    0    0 -0.64379132228E+02 -0.96963952470E+01 -0.35423755719E+03  0.37963527190E+03  0.12000000000E+03 0.  0.
<mgrwt>
<rscale>  0 0.27478702E+03</rscale>
<asrwt>0</asrwt>
<pdfrwt beam="1">  1        3 0.44019032E-02 0.27478702E+03</pdfrwt>
<pdfrwt beam="2">  1       -3 0.10149981E+00 0.27478702E+03</pdfrwt>
<totfact> 0.61937648E+02</totfact>
</mgrwt>
</event>
<event>
 5    1  0.1100736E+001  0.2751231E+03  0.7818608E-02  0.1098383E+00
          2   -1    0    0  501    0  0.00000000000E+00  0.00000000000E+00  0.75783918231E+02  0.75783918231E+02  0.00000000000E+00 0. -1.
         -2   -1    0    0    0  501 -0.00000000000E+00 -0.00000000000E+00 -0.24969910084E+03  0.24969910084E+03  0.00000000000E+00 0. -1.
         35    2    1    2    0    0  0.00000000000E+00  0.00000000000E+00 -0.17391518261E+03  0.32548301907E+03  0.27512307239E+03 0.  0.
         25    1    3    3    0    0 -0.52572760714E+02  0.34062994713E+01 -0.37500103010E+02  0.13631491397E+03  0.12000000000E+03 0.  0.
         25    1    3    3    0    0  0.52572760714E+02 -0.34062994713E+01 -0.13641507960E+03  0.18916810510E+03  0.12000000000E+03 0.  0.
<mgrwt>
<rscale>  0 0.27512307E+03</rscale>
<asrwt>0</asrwt>
<pdfrwt beam="1">  1        2 0.11659064E-01 0.27512307E+03</pdfrwt>
<pdfrwt beam="2">  1       -2 0.38415247E-01 0.27512307E+03</pdfrwt>
<totfact> 0.33930284E+03</totfact>
</mgrwt>
</event>
<event>
 5    1  0.1100736E+001  0.2752845E+03  0.7818608E-02  0.1098293E+00
          2   -1    0    0  501    0  0.00000000000E+00  0.00000000000E+00  0.26954328259E+03  0.26954328259E+03  0.00000000000E+00 0. -1.
         -2   -1    0    0    0  501 -0.00000000000E+00 -0.00000000000E+00 -0.70286996108E+02  0.70286996108E+02  0.00000000000E+00 0. -1.
         35    2    1    2    0    0  0.00000000000E+00  0.00000000000E+00  0.19925628648E+03  0.33983027869E+03  0.27528449033E+03 0.  0.
         25    1    3    3    0    0 -0.65378788470E+02 -0.77817848871E+01  0.11753626943E+03  0.18041540064E+03  0.12000000000E+03 0.  0.
         25    1    3    3    0    0  0.65378788470E+02  0.77817848871E+01  0.81720017051E+02  0.15941487805E+03  0.12000000000E+03 0.  0.
<mgrwt>
<rscale>  0 0.27528449E+03</rscale>
<asrwt>0</asrwt>
<pdfrwt beam="1">  1        2 0.41468197E-01 0.27528449E+03</pdfrwt>
<pdfrwt beam="2">  1       -2 0.10813384E-01 0.27528449E+03</pdfrwt>
<totfact> 0.71356482E+03</totfact>
</mgrwt>
</event>
<event>
 5    1  0.1100736E+001  0.2744408E+03  0.7818608E-02  0.1098765E+00
         -1   -1    0    0    0  501 -0.00000000000E+00  0.00000000000E+00  0.24726402086E+02  0.24726402086E+02  0.00000000000E+00 0. -1.
          1   -1    0    0  501    0  0.00000000000E+00 -0.00000000000E+00 -0.76151119154E+03  0.76151119154E+03  0.00000000000E+00 0. -1.
         35    2    1    2    0    0  0.00000000000E+00  0.00000000000E+00 -0.73678478945E+03  0.78623759362E+03  0.27444075437E+03 0.  0.
         25    1    3    3    0    0  0.38644865147E+02  0.32386090426E+02 -0.24393860678E+03  0.27649290829E+03  0.12000000000E+03 0.  0.
         25    1    3    3    0    0 -0.38644865147E+02 -0.32386090426E+02 -0.49284618267E+03  0.50974468534E+03  0.12000000000E+03 0.  0.
<mgrwt>
<rscale>  0 0.27444075E+03</rscale>
<asrwt>0</asrwt>
<pdfrwt beam="1">  1        1 0.11715557E+00 0.27444075E+03</pdfrwt>
<pdfrwt beam="2">  1       -1 0.38040616E-02 0.27444075E+03</pdfrwt>
<totfact> 0.65728954E+03</totfact>
</mgrwt>
</event>
<event>
 5    1  0.1100736E+001  0.2738505E+03  0.7818608E-02  0.1099096E+00
          1   -1    0    0  501    0  0.00000000000E+00  0.00000000000E+00  0.72122653927E+03  0.72122653927E+03  0.00000000000E+00 0. -1.
         -1   -1    0    0    0  501 -0.00000000000E+00 -0.00000000000E+00 -0.25995334585E+02  0.25995334585E+02  0.00000000000E+00 0. -1.
         35    2    1    2    0    0  0.00000000000E+00  0.00000000000E+00  0.69523120469E+03  0.74722187386E+03  0.27385050813E+03 0.  0.
         25    1    3    3    0    0  0.29898160476E+02 -0.44273081648E+02  0.24213154888E+03  0.27546631867E+03  0.12000000000E+03 0.  0.
         25    1    3    3    0    0 -0.29898160476E+02  0.44273081648E+02  0.45309965581E+03  0.47175555519E+03  0.12000000000E+03 0.  0.
<mgrwt>
<rscale>  0 0.27385051E+03</rscale>
<asrwt>0</asrwt>
<pdfrwt beam="1">  1        1 0.11095791E+00 0.27385051E+03</pdfrwt>
<pdfrwt beam="2">  1       -1 0.39992828E-02 0.27385051E+03</pdfrwt>
<totfact> 0.66164505E+03</totfact>
</mgrwt>
</event>
<event>
 5    1  0.1100736E+001  0.2747711E+03  0.7818608E-02  0.1098580E+00
          1   -1    0    0  501    0  0.00000000000E+00  0.00000000000E+00  0.66911199523E+03  0.66911199523E+03  0.00000000000E+00 0. -1.
         -1   -1    0    0    0  501 -0.00000000000E+00 -0.00000000000E+00 -0.28208718733E+02  0.28208718733E+02  0.00000000000E+00 0. -1.
         35    2    1    2    0    0  0.00000000000E+00  0.00000000000E+00  0.64090327650E+03  0.69732071397E+03  0.27477111984E+03 0.  0.
         25    1    3    3    0    0  0.54371220140E+02  0.17313851247E+01  0.41924977118E+03  0.43946512707E+03  0.12000000000E+03 0.  0.
         25    1    3    3    0    0 -0.54371220140E+02 -0.17313851247E+01  0.22165350532E+03  0.25785558690E+03  0.12000000000E+03 0.  0.
<mgrwt>
<rscale>  0 0.27477112E+03</rscale>
<asrwt>0</asrwt>
<pdfrwt beam="1">  1        1 0.10294030E+00 0.27477112E+03</pdfrwt>
<pdfrwt beam="2">  1       -1 0.43398034E-02 0.27477112E+03</pdfrwt>
<totfact> 0.65349471E+03</totfact>
</mgrwt>
</event>
<event>
 5    1  0.1100736E+001  0.2761814E+03  0.7818608E-02  0.1097793E+00
         -3   -1    0    0    0  501 -0.00000000000E+00  0.00000000000E+00  0.39970128699E+02  0.39970128699E+02  0.00000000000E+00 0. -1.
          3   -1    0    0  501    0  0.00000000000E+00 -0.00000000000E+00 -0.47708228881E+03  0.47708228881E+03  0.00000000000E+00 0. -1.
         35    2    1    2    0    0  0.00000000000E+00  0.00000000000E+00 -0.43711216011E+03  0.51705241751E+03  0.27618139317E+03 0.  0.
         25    1    3    3    0    0 -0.46576493674E+02 -0.40557937984E+02 -0.16382258205E+03  0.21225492806E+03  0.12000000000E+03 0.  0.
         25    1    3    3    0    0  0.46576493674E+02  0.40557937984E+02 -0.27328957806E+03  0.30479748945E+03  0.12000000000E+03 0.  0.
<mgrwt>
<rscale>  0 0.27618139E+03</rscale>
<asrwt>0</asrwt>
<pdfrwt beam="1">  1        3 0.73397275E-01 0.27618139E+03</pdfrwt>
<pdfrwt beam="2">  1       -3 0.61492505E-02 0.27618139E+03</pdfrwt>
<totfact> 0.74832406E+02</totfact>
</mgrwt>
</event>
<event>
 5    1  0.1100736E+001  0.2753203E+03  0.7818608E-02  0.1098273E+00
          2   -1    0    0  501    0  0.00000000000E+00  0.00000000000E+00  0.88838395626E+03  0.88838395626E+03  0.00000000000E+00 0. -1.
         -2   -1    0    0    0  501 -0.00000000000E+00 -0.00000000000E+00 -0.21331229725E+02  0.21331229725E+02  0.00000000000E+00 0. -1.
         35    2    1    2    0    0  0.00000000000E+00  0.00000000000E+00  0.86705272653E+03  0.90971518598E+03  0.27532033892E+03 0.  0.
         25    1    3    3    0    0  0.51801081618E+02  0.28090367833E+02  0.32504461546E+03  0.35146325961E+03  0.12000000000E+03 0.  0.
         25    1    3    3    0    0 -0.51801081618E+02 -0.28090367833E+02  0.54200811107E+03  0.55825192637E+03  0.12000000000E+03 0.  0.
<mgrwt>
<rscale>  0 0.27532034E+03</rscale>
<asrwt>0</asrwt>
<pdfrwt beam="1">  1        2 0.13667443E+00 0.27532034E+03</pdfrwt>
<pdfrwt beam="2">  1       -2 0.32817283E-02 0.27532034E+03</pdfrwt>
<totfact> 0.11414156E+04</totfact>
</mgrwt>
</event>
<event>
 5    1  0.1100736E+001  0.2752687E+03  0.7818608E-02  0.1098301E+00
         -2   -1    0    0    0  501 -0.00000000000E+00  0.00000000000E+00  0.63076453650E+03  0.63076453650E+03  0.00000000000E+00 0.  1.
          2   -1    0    0  501    0  0.00000000000E+00 -0.00000000000E+00 -0.30032150298E+02  0.30032150298E+02  0.00000000000E+00 0.  1.
         35    2    1    2    0    0  0.00000000000E+00  0.00000000000E+00  0.60073238620E+03  0.66079668680E+03  0.27526870772E+03 0.  0.
         25    1    3    3    0    0 -0.27567425725E+02 -0.59634527059E+02  0.33653220193E+03  0.36327697796E+03  0.12000000000E+03 0.  0.
         25    1    3    3    0    0  0.27567425725E+02  0.59634527059E+02  0.26420018427E+03  0.29751970884E+03  0.12000000000E+03 0.  0.
<mgrwt>
<rscale>  0 0.27526871E+03</rscale>
<asrwt>0</asrwt>
<pdfrwt beam="1">  1        2 0.46203313E-02 0.27526871E+03</pdfrwt>
<pdfrwt beam="2">  1       -2 0.97040688E-01 0.27526871E+03</pdfrwt>
<totfact> 0.16047874E+03</totfact>
</mgrwt>
</event>
<event>
 5    1  0.1100736E+001  0.2740811E+03  0.7818608E-02  0.1098966E+00
         -1   -1    0    0    0  501 -0.00000000000E+00  0.00000000000E+00  0.12953649201E+03  0.12953649201E+03  0.00000000000E+00 0. -1.
          1   -1    0    0  501    0  0.00000000000E+00 -0.00000000000E+00 -0.14497936320E+03  0.14497936320E+03  0.00000000000E+00 0. -1.
         35    2    1    2    0    0  0.00000000000E+00  0.00000000000E+00 -0.15442871181E+02  0.27451585521E+03  0.27408114217E+03 0.  0.
         25    1    3    3    0    0  0.61148331350E+02 -0.14913812260E+02  0.12770190602E+02  0.13610517254E+03  0.12000000000E+03 0.  0.
         25    1    3    3    0    0 -0.61148331350E+02  0.14913812260E+02 -0.28213061783E+02  0.13841068267E+03  0.12000000000E+03 0.  0.
<mgrwt>
<rscale>  0 0.27408114E+03</rscale>
<asrwt>0</asrwt>
<pdfrwt beam="1">  1        1 0.22304517E-01 0.27408114E+03</pdfrwt>
<pdfrwt beam="2">  1       -1 0.19928691E-01 0.27408114E+03</pdfrwt>
<totfact> 0.44662004E+03</totfact>
</mgrwt>
</event>
<event>
 5    1  0.1100736E+001  0.2749954E+03  0.7818608E-02  0.1098454E+00
         -2   -1    0    0    0  501 -0.00000000000E+00  0.00000000000E+00  0.76123810875E+02  0.76123810875E+02  0.00000000000E+00 0.  1.
          2   -1    0    0  501    0  0.00000000000E+00 -0.00000000000E+00 -0.24835346713E+03  0.24835346713E+03  0.00000000000E+00 0.  1.
         35    2    1    2    0    0  0.00000000000E+00  0.00000000000E+00 -0.17222965625E+03  0.32447727800E+03  0.27499536259E+03 0.  0.
         25    1    3    3    0    0 -0.39722490098E+02  0.54108297260E+02 -0.85916297895E+02  0.16213326092E+03  0.12000000000E+03 0.  0.
         25    1    3    3    0    0  0.39722490098E+02 -0.54108297260E+02 -0.86313358356E+02  0.16234401708E+03  0.12000000000E+03 0.  0.
<mgrwt>
<rscale>  0 0.27499536E+03</rscale>
<asrwt>0</asrwt>
<pdfrwt beam="1">  1        2 0.38208226E-01 0.27499536E+03</pdfrwt>
<pdfrwt beam="2">  1       -2 0.11711355E-01 0.27499536E+03</pdfrwt>
<totfact> 0.68571842E+03</totfact>
</mgrwt>
</event>
<event>
 5    1  0.1100736E+001  0.2701098E+03  0.7818608E-02  0.1101217E+00
          2   -1    0    0  501    0  0.00000000000E+00  0.00000000000E+00  0.41207067111E+03  0.41207067111E+03  0.00000000000E+00 0. -1.
         -2   -1    0    0    0  501 -0.00000000000E+00 -0.00000000000E+00 -0.44263845136E+02  0.44263845136E+02  0.00000000000E+00 0. -1.
         35    2    1    2    0    0  0.00000000000E+00  0.00000000000E+00  0.36780682597E+03  0.45633451625E+03  0.27010984707E+03 0.  0.
         25    1    3    3    0    0  0.48556522389E+02 -0.15612056583E+02  0.24335540269E+03  0.27608571893E+03  0.12000000000E+03 0.  0.
         25    1    3    3    0    0 -0.48556522389E+02  0.15612056583E+02  0.12445142328E+03  0.18024879732E+03  0.12000000000E+03 0.  0.
<mgrwt>
<rscale>  0 0.27010985E+03</rscale>
<asrwt>0</asrwt>
<pdfrwt beam="1">  1        2 0.63395485E-01 0.27010985E+03</pdfrwt>
<pdfrwt beam="2">  1       -2 0.68098226E-02 0.27010985E+03</pdfrwt>
<totfact> 0.93261937E+03</totfact>
</mgrwt>
</event>
<event>
 5    1  0.1100736E+001  0.2766279E+03  0.7818608E-02  0.1097545E+00
          1   -1    0    0  501    0  0.00000000000E+00  0.00000000000E+00  0.61027485895E+03  0.61027485895E+03  0.00000000000E+00 0. -1.
         -1   -1    0    0    0  501 -0.00000000000E+00 -0.00000000000E+00 -0.31347767850E+02  0.31347767850E+02  0.00000000000E+00 0. -1.
         35    2    1    2    0    0  0.00000000000E+00  0.00000000000E+00  0.57892709110E+03  0.64162262680E+03  0.27662794221E+03 0.  0.
         25    1    3    3    0    0 -0.31655148198E+02  0.60966551846E+02  0.29742628066E+03  0.32799597753E+03  0.12000000000E+03 0.  0.
         25    1    3    3    0    0  0.31655148198E+02 -0.60966551846E+02  0.28150081044E+03  0.31362664927E+03  0.12000000000E+03 0.  0.
<mgrwt>
<rscale>  0 0.27662794E+03</rscale>
<asrwt>0</asrwt>
<pdfrwt beam="1">  1        1 0.93888431E-01 0.27662794E+03</pdfrwt>
<pdfrwt beam="2">  1       -1 0.48227340E-02 0.27662794E+03</pdfrwt>
<totfact> 0.63601275E+03</totfact>
</mgrwt>
</event>
<event>
 5    1  0.1100736E+001  0.2743736E+03  0.7818608E-02  0.1098802E+00
          2   -1    0    0  501    0  0.00000000000E+00  0.00000000000E+00  0.17875641691E+04  0.17875641691E+04  0.00000000000E+00 0.  1.
         -2   -1    0    0    0  501 -0.00000000000E+00 -0.00000000000E+00 -0.10528415582E+02  0.10528415582E+02  0.00000000000E+00 0.  1.
         35    2    1    2    0    0  0.00000000000E+00  0.00000000000E+00  0.17770357535E+04  0.17980925847E+04  0.27437360261E+03 0.  0.
         25    1    3    3    0    0  0.41703398684E+02  0.34954015793E+00  0.54919598513E+03  0.56369808029E+03  0.12000000000E+03 0.  0.
         25    1    3    3    0    0 -0.41703398684E+02 -0.34954015793E+00  0.12278397684E+04  0.12343945044E+04  0.12000000000E+03 0.  0.
<mgrwt>
<rscale>  0 0.27437360E+03</rscale>
<asrwt>0</asrwt>
<pdfrwt beam="1">  1        2 0.27500963E+00 0.27437360E+03</pdfrwt>
<pdfrwt beam="2">  1       -2 0.16197577E-02 0.27437360E+03</pdfrwt>
<totfact> 0.10127490E+04</totfact>
</mgrwt>
</event>
<event>
 5    1  0.1100736E+001  0.2749879E+03  0.7818608E-02  0.1098458E+00
          1   -1    0    0  501    0  0.00000000000E+00  0.00000000000E+00  0.63191506940E+02  0.63191506940E+02  0.00000000000E+00 0. -1.
         -1   -1    0    0    0  501 -0.00000000000E+00 -0.00000000000E+00 -0.29916340583E+03  0.29916340583E+03  0.00000000000E+00 0. -1.
         35    2    1    2    0    0  0.00000000000E+00  0.00000000000E+00 -0.23597189889E+03  0.36235491277E+03  0.27498790109E+03 0.  0.
         25    1    3    3    0    0 -0.24768166731E+02 -0.62167812984E+02 -0.12474202087E+03  0.18557712904E+03  0.12000000000E+03 0.  0.
         25    1    3    3    0    0  0.24768166731E+02  0.62167812984E+02 -0.11122987803E+03  0.17677778373E+03  0.12000000000E+03 0.  0.
<mgrwt>
<rscale>  0 0.27498790E+03</rscale>
<asrwt>0</asrwt>
<pdfrwt beam="1">  1        1 0.97217705E-02 0.27498790E+03</pdfrwt>
<pdfrwt beam="2">  1       -1 0.46025138E-01 0.27498790E+03</pdfrwt>
<totfact> 0.31788432E+03</totfact>
</mgrwt>
</event>
<event>
 5    1  0.1100736E+001  0.2747617E+03  0.7818608E-02  0.1098585E+00
          1   -1    0    0  501    0  0.00000000000E+00  0.00000000000E+00  0.65639019638E+03  0.65639019638E+03  0.00000000000E+00 0. -1.
         -1   -1    0    0    0  501 -0.00000000000E+00 -0.00000000000E+00 -0.28753480674E+02  0.28753480674E+02  0.00000000000E+00 0. -1.
         35    2    1    2    0    0  0.00000000000E+00  0.00000000000E+00  0.62763671571E+03  0.68514367706E+03  0.27476173552E+03 0.  0.
         25    1    3    3    0    0  0.12483834137E+01  0.66872183262E+02  0.31440565659E+03  0.34310984284E+03  0.12000000000E+03 0.  0.
         25    1    3    3    0    0 -0.12483834137E+01 -0.66872183262E+02  0.31323105912E+03  0.34203383422E+03  0.12000000000E+03 0.  0.
<mgrwt>
<rscale>  0 0.27476174E+03</rscale>
<asrwt>0</asrwt>
<pdfrwt beam="1">  1        1 0.10098310E+00 0.27476174E+03</pdfrwt>
<pdfrwt beam="2">  1       -1 0.44236129E-02 0.27476174E+03</pdfrwt>
<totfact> 0.65282014E+03</totfact>
</mgrwt>
</event>
<event>
 5    1  0.1100736E+001  0.2752440E+03  0.7818608E-02  0.1098315E+00
          1   -1    0    0  501    0  0.00000000000E+00  0.00000000000E+00  0.81546555721E+03  0.81546555721E+03  0.00000000000E+00 0.  1.
         -1   -1    0    0    0  501 -0.00000000000E+00 -0.00000000000E+00 -0.23225769006E+02  0.23225769006E+02  0.00000000000E+00 0.  1.
         35    2    1    2    0    0  0.00000000000E+00  0.00000000000E+00  0.79223978820E+03  0.83869132621E+03  0.27524399840E+03 0.  0.
         25    1    3    3    0    0  0.59603573595E+02 -0.26303535743E+02  0.44848653977E+03  0.46881194346E+03  0.12000000000E+03 0.  0.
         25    1    3    3    0    0 -0.59603573595E+02  0.26303535743E+02  0.34375324843E+03  0.36987938275E+03  0.12000000000E+03 0.  0.
<mgrwt>
<rscale>  0 0.27524400E+03</rscale>
<asrwt>0</asrwt>
<pdfrwt beam="1">  1        1 0.12545622E+00 0.27524400E+03</pdfrwt>
<pdfrwt beam="2">  1       -1 0.35731959E-02 0.27524400E+03</pdfrwt>
<totfact> 0.64959452E+03</totfact>
</mgrwt>
</event>
<event>
 5    1  0.1100736E+001  0.2778443E+03  0.7818608E-02  0.1096872E+00
          2   -1    0    0  501    0  0.00000000000E+00  0.00000000000E+00  0.25975257618E+04  0.25975257618E+04  0.00000000000E+00 0. -1.
         -2   -1    0    0    0  501 -0.00000000000E+00 -0.00000000000E+00 -0.74299017713E+01  0.74299017713E+01  0.00000000000E+00 0. -1.
         35    2    1    2    0    0  0.00000000000E+00  0.00000000000E+00  0.25900958600E+04  0.26049556636E+04  0.27784428199E+03 0.  0.
         25    1    3    3    0    0  0.33902072769E+02  0.58609102273E+02  0.11286518783E+04  0.11370309758E+04  0.12000000000E+03 0.  0.
         25    1    3    3    0    0 -0.33902072769E+02 -0.58609102273E+02  0.14614439817E+04  0.14679246878E+04  0.12000000000E+03 0.  0.
<mgrwt>
<rscale>  0 0.27784428E+03</rscale>
<asrwt>0</asrwt>
<pdfrwt beam="1">  1        2 0.39961862E+00 0.27784428E+03</pdfrwt>
<pdfrwt beam="2">  1       -2 0.11430639E-02 0.27784428E+03</pdfrwt>
<totfact> 0.62180039E+03</totfact>
</mgrwt>
</event>
<event>
 5    1  0.1100736E+001  0.2741794E+03  0.7818608E-02  0.1098911E+00
         -2   -1    0    0    0  501 -0.00000000000E+00  0.00000000000E+00  0.25081657139E+02  0.25081657139E+02  0.00000000000E+00 0.  1.
          2   -1    0    0  501    0  0.00000000000E+00 -0.00000000000E+00 -0.74929603503E+03  0.74929603503E+03  0.00000000000E+00 0.  1.
         35    2    1    2    0    0  0.00000000000E+00  0.00000000000E+00 -0.72421437789E+03  0.77437769217E+03  0.27417940292E+03 0.  0.
         25    1    3    3    0    0  0.20456636719E+00 -0.56262154581E+02 -0.46108490137E+03  0.47975489383E+03  0.12000000000E+03 0.  0.
         25    1    3    3    0    0 -0.20456636719E+00  0.56262154581E+02 -0.26312947652E+03  0.29462279834E+03  0.12000000000E+03 0.  0.
<mgrwt>
<rscale>  0 0.27417940E+03</rscale>
<asrwt>0</asrwt>
<pdfrwt beam="1">  1        2 0.11527632E+00 0.27417940E+03</pdfrwt>
<pdfrwt beam="2">  1       -2 0.38587164E-02 0.27417940E+03</pdfrwt>
<totfact> 0.11143200E+04</totfact>
</mgrwt>
</event>
<event>
 5    1  0.1100736E+001  0.2747246E+03  0.7818608E-02  0.1098606E+00
         -3   -1    0    0    0  501 -0.00000000000E+00  0.00000000000E+00  0.11826393561E+03  0.11826393561E+03  0.00000000000E+00 0. -1.
          3   -1    0    0  501    0  0.00000000000E+00 -0.00000000000E+00 -0.15954481266E+03  0.15954481266E+03  0.00000000000E+00 0. -1.
         35    2    1    2    0    0  0.00000000000E+00  0.00000000000E+00 -0.41280877054E+02  0.27780874827E+03  0.27472457081E+03 0.  0.
         25    1    3    3    0    0  0.53779641245E+01  0.39286197121E+02 -0.75059734215E+02  0.14699078707E+03  0.12000000000E+03 0.  0.
         25    1    3    3    0    0 -0.53779641245E+01 -0.39286197121E+02  0.33778857161E+02  0.13081796120E+03  0.12000000000E+03 0.  0.
<mgrwt>
<rscale>  0 0.27472457E+03</rscale>
<asrwt>0</asrwt>
<pdfrwt beam="1">  1        3 0.24545356E-01 0.27472457E+03</pdfrwt>
<pdfrwt beam="2">  1       -3 0.18194452E-01 0.27472457E+03</pdfrwt>
<totfact> 0.10478698E+03</totfact>
</mgrwt>
</event>
<event>
 5    1  0.1100736E+001  0.2767945E+03  0.7818608E-02  0.1097453E+00
         -3   -1    0    0    0  501 -0.00000000000E+00  0.00000000000E+00  0.39149595355E+03  0.39149595355E+03  0.00000000000E+00 0.  1.
          3   -1    0    0  501    0  0.00000000000E+00 -0.00000000000E+00 -0.48924656152E+02  0.48924656152E+02  0.00000000000E+00 0.  1.
         35    2    1    2    0    0  0.00000000000E+00  0.00000000000E+00  0.34257129740E+03  0.44042060970E+03  0.27679454411E+03 0.  0.
         25    1    3    3    0    0 -0.30835387005E+01  0.68809423680E+02  0.16636596592E+03  0.21638363990E+03  0.12000000000E+03 0.  0.
         25    1    3    3    0    0  0.30835387005E+01 -0.68809423680E+02  0.17620533148E+03  0.22403696980E+03  0.12000000000E+03 0.  0.
<mgrwt>
<rscale>  0 0.27679454E+03</rscale>
<asrwt>0</asrwt>
<pdfrwt beam="1">  1        3 0.75268704E-02 0.27679454E+03</pdfrwt>
<pdfrwt beam="2">  1       -3 0.60230145E-01 0.27679454E+03</pdfrwt>
<totfact> 0.81847928E+02</totfact>
</mgrwt>
</event>
<event>
 5    1  0.1100736E+001  0.2752730E+03  0.7818608E-02  0.1098299E+00
          1   -1    0    0  501    0  0.00000000000E+00  0.00000000000E+00  0.96753900443E+03  0.96753900443E+03  0.00000000000E+00 0.  1.
         -1   -1    0    0    0  501 -0.00000000000E+00 -0.00000000000E+00 -0.19579375573E+02  0.19579375573E+02  0.00000000000E+00 0.  1.
         35    2    1    2    0    0  0.00000000000E+00  0.00000000000E+00  0.94795962886E+03  0.98711838000E+03  0.27527302482E+03 0.  0.
         25    1    3    3    0    0  0.36503352891E+02 -0.54181170924E+02  0.41443606624E+03  0.43637752813E+03  0.12000000000E+03 0.  0.
         25    1    3    3    0    0 -0.36503352891E+02  0.54181170924E+02  0.53352356261E+03  0.55074085187E+03  0.12000000000E+03 0.  0.
<mgrwt>
<rscale>  0 0.27527302E+03</rscale>
<asrwt>0</asrwt>
<pdfrwt beam="1">  1        1 0.14885212E+00 0.27527302E+03</pdfrwt>
<pdfrwt beam="2">  1       -1 0.30122124E-02 0.27527302E+03</pdfrwt>
<totfact> 0.63401932E+03</totfact>
</mgrwt>
</event>
<event>
 5    1  0.1100736E+001  0.2747609E+03  0.7818608E-02  0.1098585E+00
          2   -1    0    0  501    0  0.00000000000E+00  0.00000000000E+00  0.65864214728E+03  0.65864214728E+03  0.00000000000E+00 0. -1.
         -2   -1    0    0    0  501 -0.00000000000E+00 -0.00000000000E+00 -0.28655002513E+02  0.28655002513E+02  0.00000000000E+00 0. -1.
         35    2    1    2    0    0  0.00000000000E+00  0.00000000000E+00  0.62998714477E+03  0.68729714979E+03  0.27476093161E+03 0.  0.
         25    1    3    3    0    0 -0.15767825846E+02  0.33781463206E+02  0.45389836452E+03  0.47097084506E+03  0.12000000000E+03 0.  0.
         25    1    3    3    0    0  0.15767825846E+02 -0.33781463206E+02  0.17608878025E+03  0.21632630473E+03  0.12000000000E+03 0.  0.
<mgrwt>
<rscale>  0 0.27476093E+03</rscale>
<asrwt>0</asrwt>
<pdfrwt beam="1">  1        2 0.10132955E+00 0.27476093E+03</pdfrwt>
<pdfrwt beam="2">  1       -2 0.44084624E-02 0.27476093E+03</pdfrwt>
<totfact> 0.10665600E+04</totfact>
</mgrwt>
</event>
<event>
 5    1  0.1100736E+001  0.2752300E+03  0.7818608E-02  0.1098323E+00
          2   -1    0    0  501    0  0.00000000000E+00  0.00000000000E+00  0.21821915201E+03  0.21821915201E+03  0.00000000000E+00 0.  1.
         -2   -1    0    0    0  501 -0.00000000000E+00 -0.00000000000E+00 -0.86783787682E+02  0.86783787682E+02  0.00000000000E+00 0.  1.
         35    2    1    2    0    0  0.00000000000E+00  0.00000000000E+00  0.13143536433E+03  0.30500293970E+03  0.27522997334E+03 0.  0.
         25    1    3    3    0    0 -0.19078226422E+02 -0.64601533912E+02  0.66537768402E+02  0.15285487081E+03  0.12000000000E+03 0.  0.
         25    1    3    3    0    0  0.19078226422E+02  0.64601533912E+02  0.64897595931E+02  0.15214806888E+03  0.12000000000E+03 0.  0.
<mgrwt>
<rscale>  0 0.27522997E+03</rscale>
<asrwt>0</asrwt>
<pdfrwt beam="1">  1        2 0.33572177E-01 0.27522997E+03</pdfrwt>
<pdfrwt beam="2">  1       -2 0.13351352E-01 0.27522997E+03</pdfrwt>
<totfact> 0.63798506E+03</totfact>
</mgrwt>
</event>
<event>
 5    1  0.1100736E+001  0.2750076E+03  0.7818608E-02  0.1098447E+00
         -1   -1    0    0    0  501 -0.00000000000E+00  0.00000000000E+00  0.14349463108E+02  0.14349463108E+02  0.00000000000E+00 0.  1.
          1   -1    0    0  501    0  0.00000000000E+00 -0.00000000000E+00 -0.13176312344E+04  0.13176312344E+04  0.00000000000E+00 0.  1.
         35    2    1    2    0    0  0.00000000000E+00  0.00000000000E+00 -0.13032817713E+04  0.13319806975E+04  0.27500764199E+03 0.  0.
         25    1    3    3    0    0 -0.49199439825E+02 -0.78844023118E+01 -0.43371056959E+03  0.45275557076E+03  0.12000000000E+03 0.  0.
         25    1    3    3    0    0  0.49199439825E+02  0.78844023118E+01 -0.86957120172E+03  0.87922512677E+03  0.12000000000E+03 0.  0.
<mgrwt>
<rscale>  0 0.27500764E+03</rscale>
<asrwt>0</asrwt>
<pdfrwt beam="1">  1        1 0.20271251E+00 0.27500764E+03</pdfrwt>
<pdfrwt beam="2">  1       -1 0.22076096E-02 0.27500764E+03</pdfrwt>
<totfact> 0.56297661E+03</totfact>
</mgrwt>
</event>
<event>
 5    1  0.1100736E+001  0.2750858E+03  0.7818608E-02  0.1098404E+00
         -2   -1    0    0    0  501 -0.00000000000E+00  0.00000000000E+00  0.69951969870E+01  0.69951969870E+01  0.00000000000E+00 0.  1.
          2   -1    0    0  501    0  0.00000000000E+00 -0.00000000000E+00 -0.27044344173E+04  0.27044344173E+04  0.00000000000E+00 0.  1.
         35    2    1    2    0    0  0.00000000000E+00  0.00000000000E+00 -0.26974392203E+04  0.27114296143E+04  0.27508581561E+03 0.  0.
         25    1    3    3    0    0  0.39251974914E+02 -0.17440894689E+02 -0.83910516101E+03  0.84872985901E+03  0.12000000000E+03 0.  0.
         25    1    3    3    0    0 -0.39251974914E+02  0.17440894689E+02 -0.18583340593E+04  0.18626997553E+04  0.12000000000E+03 0.  0.
<mgrwt>
<rscale>  0 0.27508582E+03</rscale>
<asrwt>0</asrwt>
<pdfrwt beam="1">  1        2 0.41606675E+00 0.27508582E+03</pdfrwt>
<pdfrwt beam="2">  1       -2 0.10761844E-02 0.27508582E+03</pdfrwt>
<totfact> 0.59155716E+03</totfact>
</mgrwt>
</event>
<event>
 5    1  0.1100736E+001  0.2742633E+03  0.7818608E-02  0.1098864E+00
          2   -1    0    0  501    0  0.00000000000E+00  0.00000000000E+00  0.22476515187E+03  0.22476515187E+03  0.00000000000E+00 0.  1.
         -2   -1    0    0    0  501 -0.00000000000E+00 -0.00000000000E+00 -0.83665516520E+02  0.83665516520E+02  0.00000000000E+00 0.  1.
         35    2    1    2    0    0  0.00000000000E+00  0.00000000000E+00  0.14109963535E+03  0.30843066839E+03  0.27426332257E+03 0.  0.
         25    1    3    3    0    0  0.22821013247E+01 -0.56158441253E+02  0.30851809891E+02  0.13605444750E+03  0.12000000000E+03 0.  0.
         25    1    3    3    0    0 -0.22821013247E+01  0.56158441253E+02  0.11024782546E+03  0.17237622089E+03  0.12000000000E+03 0.  0.
<mgrwt>
<rscale>  0 0.27426332E+03</rscale>
<asrwt>0</asrwt>
<pdfrwt beam="1">  1        2 0.34579254E-01 0.27426332E+03</pdfrwt>
<pdfrwt beam="2">  1       -2 0.12871618E-01 0.27426332E+03</pdfrwt>
<totfact> 0.65566735E+03</totfact>
</mgrwt>
</event>
<event>
 5    1  0.1100736E+001  0.2750709E+03  0.7818608E-02  0.1098412E+00
          2   -1    0    0  501    0  0.00000000000E+00  0.00000000000E+00  0.26650855043E+02  0.26650855043E+02  0.00000000000E+00 0. -1.
         -2   -1    0    0    0  501 -0.00000000000E+00 -0.00000000000E+00 -0.70977077033E+03  0.70977077033E+03  0.00000000000E+00 0. -1.
         35    2    1    2    0    0  0.00000000000E+00  0.00000000000E+00 -0.68311991529E+03  0.73642162538E+03  0.27507088479E+03 0.  0.
         25    1    3    3    0    0  0.13030961509E+02  0.65197622960E+02 -0.31540241248E+03  0.34394653334E+03  0.12000000000E+03 0.  0.
         25    1    3    3    0    0 -0.13030961509E+02 -0.65197622960E+02 -0.36771750281E+03  0.39247509203E+03  0.12000000000E+03 0.  0.
<mgrwt>
<rscale>  0 0.27507088E+03</rscale>
<asrwt>0</asrwt>
<pdfrwt beam="1">  1        2 0.41001311E-02 0.27507088E+03</pdfrwt>
<pdfrwt beam="2">  1       -2 0.10919551E+00 0.27507088E+03</pdfrwt>
<totfact> 0.14277994E+03</totfact>
</mgrwt>
</event>
<event>
 5    1  0.1100736E+001  0.2746412E+03  0.7818608E-02  0.1098652E+00
         -2   -1    0    0    0  501 -0.00000000000E+00  0.00000000000E+00  0.17372117673E+02  0.17372117673E+02  0.00000000000E+00 0.  1.
          2   -1    0    0  501    0  0.00000000000E+00 -0.00000000000E+00 -0.10854721657E+04  0.10854721657E+04  0.00000000000E+00 0.  1.
         35    2    1    2    0    0  0.00000000000E+00  0.00000000000E+00 -0.10681000480E+04  0.11028442834E+04  0.27464122191E+03 0.  0.
         25    1    3    3    0    0  0.17698731317E+02 -0.19322798242E+02 -0.28748105523E+03  0.31262113290E+03  0.12000000000E+03 0.  0.
         25    1    3    3    0    0 -0.17698731317E+02  0.19322798242E+02 -0.78061899278E+03  0.79022315045E+03  0.12000000000E+03 0.  0.
<mgrwt>
<rscale>  0 0.27464122E+03</rscale>
<asrwt>0</asrwt>
<pdfrwt beam="1">  1        2 0.16699575E+00 0.27464122E+03</pdfrwt>
<pdfrwt beam="2">  1       -2 0.26726329E-02 0.27464122E+03</pdfrwt>
<totfact> 0.11702971E+04</totfact>
</mgrwt>
</event>
<event>
 5    1  0.1100736E+001  0.2743512E+03  0.7818608E-02  0.1098815E+00
         -2   -1    0    0    0  501 -0.00000000000E+00  0.00000000000E+00  0.51534067743E+02  0.51534067743E+02  0.00000000000E+00 0. -1.
          2   -1    0    0  501    0  0.00000000000E+00 -0.00000000000E+00 -0.36514004802E+03  0.36514004802E+03  0.00000000000E+00 0. -1.
         35    2    1    2    0    0  0.00000000000E+00  0.00000000000E+00 -0.31360598027E+03  0.41667411576E+03  0.27435124910E+03 0.  0.
         25    1    3    3    0    0 -0.53445080039E+02  0.37857053687E+02 -0.17396021480E+03  0.22125028684E+03  0.12000000000E+03 0.  0.
         25    1    3    3    0    0  0.53445080039E+02 -0.37857053687E+02 -0.13964576548E+03  0.19542382892E+03  0.12000000000E+03 0.  0.
<mgrwt>
<rscale>  0 0.27435125E+03</rscale>
<asrwt>0</asrwt>
<pdfrwt beam="1">  1        2 0.56175393E-01 0.27435125E+03</pdfrwt>
<pdfrwt beam="2">  1       -2 0.79283180E-02 0.27435125E+03</pdfrwt>
<totfact> 0.84011645E+03</totfact>
</mgrwt>
</event>
<event>
 5    1  0.1100736E+001  0.2740065E+03  0.7818608E-02  0.1099008E+00
         -1   -1    0    0    0  501 -0.00000000000E+00  0.00000000000E+00  0.47796988168E+02  0.47796988168E+02  0.00000000000E+00 0.  1.
          1   -1    0    0  501    0  0.00000000000E+00 -0.00000000000E+00 -0.39270033582E+03  0.39270033582E+03  0.00000000000E+00 0.  1.
         35    2    1    2    0    0  0.00000000000E+00  0.00000000000E+00 -0.34490334766E+03  0.44049732399E+03  0.27400652040E+03 0.  0.
         25    1    3    3    0    0  0.64914001353E+02  0.11777952227E+01 -0.19244556838E+03  0.23590360650E+03  0.12000000000E+03 0.  0.
         25    1    3    3    0    0 -0.64914001353E+02 -0.11777952227E+01 -0.15245777928E+03  0.20459371749E+03  0.12000000000E+03 0.  0.
<mgrwt>
<rscale>  0 0.27400652E+03</rscale>
<asrwt>0</asrwt>
<pdfrwt beam="1">  1        1 0.60415437E-01 0.27400652E+03</pdfrwt>
<pdfrwt beam="2">  1       -1 0.73533827E-02 0.27400652E+03</pdfrwt>
<totfact> 0.60439655E+03</totfact>
</mgrwt>
</event>
<event>
 5    1  0.1100736E+001  0.2749705E+03  0.7818608E-02  0.1098468E+00
         -1   -1    0    0    0  501 -0.00000000000E+00  0.00000000000E+00  0.16094580872E+02  0.16094580872E+02  0.00000000000E+00 0.  1.
          1   -1    0    0  501    0  0.00000000000E+00 -0.00000000000E+00 -0.11744443355E+04  0.11744443355E+04  0.00000000000E+00 0.  1.
         35    2    1    2    0    0  0.00000000000E+00  0.00000000000E+00 -0.11583497546E+04  0.11905389164E+04  0.27497046633E+03 0.  0.
         25    1    3    3    0    0 -0.52340633030E+02 -0.34344750391E+02 -0.47462495816E+03  0.49354630447E+03  0.12000000000E+03 0.  0.
         25    1    3    3    0    0  0.52340633030E+02  0.34344750391E+02 -0.68372479648E+03  0.69699261191E+03  0.12000000000E+03 0.  0.
<mgrwt>
<rscale>  0 0.27497047E+03</rscale>
<asrwt>0</asrwt>
<pdfrwt beam="1">  1        1 0.18068378E+00 0.27497047E+03</pdfrwt>
<pdfrwt beam="2">  1       -1 0.24760889E-02 0.27497047E+03</pdfrwt>
<totfact> 0.59769826E+03</totfact>
</mgrwt>
</event>
<event>
 5    1  0.1100736E+001  0.2744591E+03  0.7818608E-02  0.1098754E+00
         -1   -1    0    0    0  501 -0.00000000000E+00  0.00000000000E+00  0.89219267905E+01  0.89219267905E+01  0.00000000000E+00 0. -1.
          1   -1    0    0  501    0  0.00000000000E+00 -0.00000000000E+00 -0.21107498384E+04  0.21107498384E+04  0.00000000000E+00 0. -1.
         35    2    1    2    0    0  0.00000000000E+00  0.00000000000E+00 -0.21018279116E+04  0.21196717651E+04  0.27445914472E+03 0.  0.
         25    1    3    3    0    0 -0.28449212743E+02 -0.50272671271E+01 -0.15141269262E+04  0.15191494264E+04  0.12000000000E+03 0.  0.
         25    1    3    3    0    0  0.28449212743E+02  0.50272671271E+01 -0.58770098535E+03  0.60052233872E+03  0.12000000000E+03 0.  0.
<mgrwt>
<rscale>  0 0.27445914E+03</rscale>
<asrwt>0</asrwt>
<pdfrwt beam="1">  1        1 0.32473065E+00 0.27445914E+03</pdfrwt>
<pdfrwt beam="2">  1       -1 0.13726045E-02 0.27445914E+03</pdfrwt>
<totfact> 0.33947098E+03</totfact>
</mgrwt>
</event>
<event>
 5    1  0.1100736E+001  0.2746047E+03  0.7818608E-02  0.1098673E+00
          2   -1    0    0  501    0  0.00000000000E+00  0.00000000000E+00  0.13438410879E+04  0.13438410879E+04  0.00000000000E+00 0. -1.
         -2   -1    0    0    0  501 -0.00000000000E+00 -0.00000000000E+00 -0.14028399552E+02  0.14028399552E+02  0.00000000000E+00 0. -1.
         35    2    1    2    0    0  0.00000000000E+00  0.00000000000E+00  0.13298126884E+04  0.13578694875E+04  0.27460473205E+03 0.  0.
         25    1    3    3    0    0 -0.43297624916E+02  0.44241734299E+02  0.54178896661E+03  0.55836126273E+03  0.12000000000E+03 0.  0.
         25    1    3    3    0    0  0.43297624916E+02 -0.44241734299E+02  0.78802372176E+03  0.79950822475E+03  0.12000000000E+03 0.  0.
<mgrwt>
<rscale>  0 0.27460473E+03</rscale>
<asrwt>0</asrwt>
<pdfrwt beam="1">  1        2 0.20674468E+00 0.27460473E+03</pdfrwt>
<pdfrwt beam="2">  1       -2 0.21582164E-02 0.27460473E+03</pdfrwt>
<totfact> 0.11455699E+04</totfact>
</mgrwt>
</event>
<event>
 5    1  0.1100736E+001  0.2761512E+03  0.7818608E-02  0.1097810E+00
          1   -1    0    0  501    0  0.00000000000E+00  0.00000000000E+00  0.11339051254E+04  0.11339051254E+04  0.00000000000E+00 0. -1.
         -1   -1    0    0    0  501 -0.00000000000E+00 -0.00000000000E+00 -0.16813467240E+02  0.16813467240E+02  0.00000000000E+00 0. -1.
         35    2    1    2    0    0  0.00000000000E+00  0.00000000000E+00  0.11170916582E+04  0.11507185927E+04  0.27615123885E+03 0.  0.
         25    1    3    3    0    0 -0.48509586748E+02  0.43581938141E+02  0.47393328087E+03  0.49321934274E+03  0.12000000000E+03 0.  0.
         25    1    3    3    0    0  0.48509586748E+02 -0.43581938141E+02  0.64315837733E+03  0.65749924994E+03  0.12000000000E+03 0.  0.
<mgrwt>
<rscale>  0 0.27615124E+03</rscale>
<asrwt>0</asrwt>
<pdfrwt beam="1">  1        1 0.17444688E+00 0.27615124E+03</pdfrwt>
<pdfrwt beam="2">  1       -1 0.25866882E-02 0.27615124E+03</pdfrwt>
<totfact> 0.59890428E+03</totfact>
</mgrwt>
</event>
<event>
 5    1  0.1100736E+001  0.2834343E+03  0.7818608E-02  0.1093828E+00
          2   -1    0    0  501    0  0.00000000000E+00  0.00000000000E+00  0.11966163796E+03  0.11966163796E+03  0.00000000000E+00 0.  1.
         -2   -1    0    0    0  501 -0.00000000000E+00 -0.00000000000E+00 -0.16783789300E+03  0.16783789300E+03  0.00000000000E+00 0.  1.
         35    2    1    2    0    0  0.00000000000E+00  0.00000000000E+00 -0.48176255042E+02  0.28749953096E+03  0.28343434645E+03 0.  0.
         25    1    3    3    0    0  0.49851169017E+02  0.38984678199E+02 -0.65649111930E+02  0.15071413366E+03  0.12000000000E+03 0.  0.
         25    1    3    3    0    0 -0.49851169017E+02 -0.38984678199E+02  0.17472856888E+02  0.13678539730E+03  0.12000000000E+03 0.  0.
<mgrwt>
<rscale>  0 0.28343435E+03</rscale>
<asrwt>0</asrwt>
<pdfrwt beam="1">  1        2 0.18409483E-01 0.28343435E+03</pdfrwt>
<pdfrwt beam="2">  1       -2 0.25821214E-01 0.28343435E+03</pdfrwt>
<totfact> 0.40850613E+03</totfact>
</mgrwt>
</event>
<event>
 5    1  0.1100736E+001  0.2746693E+03  0.7818608E-02  0.1098637E+00
         -1   -1    0    0    0  501 -0.00000000000E+00  0.00000000000E+00  0.11977681247E+02  0.11977681247E+02  0.00000000000E+00 0.  1.
          1   -1    0    0  501    0  0.00000000000E+00 -0.00000000000E+00 -0.15746627279E+04  0.15746627279E+04  0.00000000000E+00 0.  1.
         35    2    1    2    0    0  0.00000000000E+00  0.00000000000E+00 -0.15626850467E+04  0.15866404092E+04  0.27466931555E+03 0.  0.
         25    1    3    3    0    0  0.65623796419E+02 -0.12422508407E+02 -0.78182076244E+03  0.79379122315E+03  0.12000000000E+03 0.  0.
         25    1    3    3    0    0 -0.65623796419E+02  0.12422508407E+02 -0.78086428422E+03  0.79284918600E+03  0.12000000000E+03 0.  0.
<mgrwt>
<rscale>  0 0.27466932E+03</rscale>
<asrwt>0</asrwt>
<pdfrwt beam="1">  1        1 0.24225583E+00 0.27466932E+03</pdfrwt>
<pdfrwt beam="2">  1       -1 0.18427200E-02 0.27466932E+03</pdfrwt>
<totfact> 0.49375970E+03</totfact>
</mgrwt>
</event>
<event>
 5    1  0.1100736E+001  0.2769521E+03  0.7818608E-02  0.1097365E+00
         -2   -1    0    0    0  501 -0.00000000000E+00  0.00000000000E+00  0.12495813195E+02  0.12495813195E+02  0.00000000000E+00 0. -1.
          2   -1    0    0  501    0  0.00000000000E+00 -0.00000000000E+00 -0.15345635595E+04  0.15345635595E+04  0.00000000000E+00 0. -1.
         35    2    1    2    0    0  0.00000000000E+00  0.00000000000E+00 -0.15220677463E+04  0.15470593726E+04  0.27695212275E+03 0.  0.
         25    1    3    3    0    0 -0.63928059941E+02  0.23288653606E+02 -0.82863653303E+03  0.84004027410E+03  0.12000000000E+03 0.  0.
         25    1    3    3    0    0  0.63928059941E+02 -0.23288653606E+02 -0.69343121322E+03  0.70701909855E+03  0.12000000000E+03 0.  0.
<mgrwt>
<rscale>  0 0.27695212E+03</rscale>
<asrwt>0</asrwt>
<pdfrwt beam="1">  1        2 0.23608648E+00 0.27695212E+03</pdfrwt>
<pdfrwt beam="2">  1       -2 0.19224346E-02 0.27695212E+03</pdfrwt>
<totfact> 0.10716266E+04</totfact>
</mgrwt>
</event>
<event>
 5    1  0.1100736E+001  0.2746122E+03  0.7818608E-02  0.1098669E+00
         -2   -1    0    0    0  501 -0.00000000000E+00  0.00000000000E+00  0.49571798419E+03  0.49571798419E+03  0.00000000000E+00 0.  1.
          2   -1    0    0  501    0  0.00000000000E+00 -0.00000000000E+00 -0.38031638500E+02  0.38031638500E+02  0.00000000000E+00 0.  1.
         35    2    1    2    0    0  0.00000000000E+00  0.00000000000E+00  0.45768634569E+03  0.53374962269E+03  0.27461221512E+03 0.  0.
         25    1    3    3    0    0 -0.24669337434E+02 -0.10324161528E+02  0.11001322306E+03  0.16497901008E+03  0.12000000000E+03 0.  0.
         25    1    3    3    0    0  0.24669337434E+02  0.10324161528E+02  0.34767312264E+03  0.36877061261E+03  0.12000000000E+03 0.  0.
<mgrwt>
<rscale>  0 0.27461222E+03</rscale>
<asrwt>0</asrwt>
<pdfrwt beam="1">  1        2 0.58510216E-02 0.27461222E+03</pdfrwt>
<pdfrwt beam="2">  1       -2 0.76264301E-01 0.27461222E+03</pdfrwt>
<totfact> 0.20171267E+03</totfact>
</mgrwt>
</event>
<event>
 5    1  0.1100736E+001  0.2750328E+03  0.7818608E-02  0.1098433E+00
         -3   -1    0    0    0  501 -0.00000000000E+00  0.00000000000E+00  0.23083002284E+02  0.23083002284E+02  0.00000000000E+00 0.  1.
          3   -1    0    0  501    0  0.00000000000E+00 -0.00000000000E+00 -0.81925019077E+03  0.81925019077E+03  0.00000000000E+00 0.  1.
         35    2    1    2    0    0  0.00000000000E+00  0.00000000000E+00 -0.79616718848E+03  0.84233319305E+03  0.27503275459E+03 0.  0.
         25    1    3    3    0    0  0.17610955383E+02  0.33359813877E+02 -0.56826779206E+03  0.58202345866E+03  0.12000000000E+03 0.  0.
         25    1    3    3    0    0 -0.17610955383E+02 -0.33359813877E+02 -0.22789939642E+03  0.26030973439E+03  0.12000000000E+03 0.  0.
<mgrwt>
<rscale>  0 0.27503275E+03</rscale>
<asrwt>0</asrwt>
<pdfrwt beam="1">  1        3 0.12603849E+00 0.27503275E+03</pdfrwt>
<pdfrwt beam="2">  1       -3 0.35512311E-02 0.27503275E+03</pdfrwt>
<totfact> 0.52312657E+02</totfact>
</mgrwt>
</event>
<event>
 5    1  0.1100736E+001  0.2751323E+03  0.7818608E-02  0.1098378E+00
          4   -1    0    0  501    0  0.00000000000E+00  0.00000000000E+00  0.12450969333E+04  0.12450969333E+04  0.00000000000E+00 0. -1.
         -4   -1    0    0    0  501 -0.00000000000E+00 -0.00000000000E+00 -0.15199179376E+02  0.15199179376E+02  0.00000000000E+00 0. -1.
         35    2    1    2    0    0  0.00000000000E+00  0.00000000000E+00  0.12298977539E+04  0.12602961127E+04  0.27513234364E+03 0.  0.
         25    1    3    3    0    0  0.25817940837E+02  0.36786145132E+01  0.89896474095E+03  0.90731345397E+03  0.12000000000E+03 0.  0.
         25    1    3    3    0    0 -0.25817940837E+02 -0.36786145132E+01  0.33093301296E+03  0.35298265870E+03  0.12000000000E+03 0.  0.
<mgrwt>
<rscale>  0 0.27513234E+03</rscale>
<asrwt>0</asrwt>
<pdfrwt beam="1">  1        4 0.19155329E+00 0.27513234E+03</pdfrwt>
<pdfrwt beam="2">  1       -4 0.23383363E-02 0.27513234E+03</pdfrwt>
<totfact> 0.24311099E+02</totfact>
</mgrwt>
</event>
<event>
 5    1  0.1100736E+001  0.2747159E+03  0.7818608E-02  0.1098610E+00
          1   -1    0    0  501    0  0.00000000000E+00  0.00000000000E+00  0.28179205815E+03  0.28179205815E+03  0.00000000000E+00 0.  1.
         -1   -1    0    0    0  501 -0.00000000000E+00 -0.00000000000E+00 -0.66954370319E+02  0.66954370319E+02  0.00000000000E+00 0.  1.
         35    2    1    2    0    0  0.00000000000E+00  0.00000000000E+00  0.21483768783E+03  0.34874642847E+03  0.27471592465E+03 0.  0.
         25    1    3    3    0    0  0.51661045270E+02  0.17704576730E+02  0.58500281503E+02  0.14423799282E+03  0.12000000000E+03 0.  0.
         25    1    3    3    0    0 -0.51661045270E+02 -0.17704576730E+02  0.15633740633E+03  0.20450843565E+03  0.12000000000E+03 0.  0.
<mgrwt>
<rscale>  0 0.27471592E+03</rscale>
<asrwt>0</asrwt>
<pdfrwt beam="1">  1        1 0.43352624E-01 0.27471592E+03</pdfrwt>
<pdfrwt beam="2">  1       -1 0.10300672E-01 0.27471592E+03</pdfrwt>
<totfact> 0.54845246E+03</totfact>
</mgrwt>
</event>
<event>
 5    1  0.1100736E+001  0.2749201E+03  0.7818608E-02  0.1098496E+00
         -2   -1    0    0    0  501 -0.00000000000E+00  0.00000000000E+00  0.71313823737E+01  0.71313823737E+01  0.00000000000E+00 0. -1.
          2   -1    0    0  501    0  0.00000000000E+00 -0.00000000000E+00 -0.26495944072E+04  0.26495944072E+04  0.00000000000E+00 0. -1.
         35    2    1    2    0    0  0.00000000000E+00  0.00000000000E+00 -0.26424630248E+04  0.26567257896E+04  0.27492014006E+03 0.  0.
         25    1    3    3    0    0  0.38030298956E+02 -0.49005789378E+02 -0.15671133572E+04  0.15729247107E+04  0.12000000000E+03 0.  0.
         25    1    3    3    0    0 -0.38030298956E+02  0.49005789378E+02 -0.10753496676E+04  0.10838010789E+04  0.12000000000E+03 0.  0.
<mgrwt>
<rscale>  0 0.27492014E+03</rscale>
<asrwt>0</asrwt>
<pdfrwt beam="1">  1        2 0.40763044E+00 0.27492014E+03</pdfrwt>
<pdfrwt beam="2">  1       -2 0.10971343E-02 0.27492014E+03</pdfrwt>
<totfact> 0.61745210E+03</totfact>
</mgrwt>
</event>
<event>
 5    1  0.1100736E+001  0.2754166E+03  0.7818608E-02  0.1098219E+00
          1   -1    0    0  501    0  0.00000000000E+00  0.00000000000E+00  0.83669249279E+02  0.83669249279E+02  0.00000000000E+00 0.  1.
         -1   -1    0    0    0  501 -0.00000000000E+00 -0.00000000000E+00 -0.22664927503E+03  0.22664927503E+03  0.00000000000E+00 0.  1.
         35    2    1    2    0    0  0.00000000000E+00  0.00000000000E+00 -0.14298002575E+03  0.31031852431E+03  0.27541659131E+03 0.  0.
         25    1    3    3    0    0  0.19222221749E+02 -0.56895159060E+02 -0.36633935722E+02  0.13909923860E+03  0.12000000000E+03 0.  0.
         25    1    3    3    0    0 -0.19222221749E+02  0.56895159060E+02 -0.10634609003E+03  0.17121928571E+03  0.12000000000E+03 0.  0.
<mgrwt>
<rscale>  0 0.27541659E+03</rscale>
<asrwt>0</asrwt>
<pdfrwt beam="1">  1        1 0.12872192E-01 0.27541659E+03</pdfrwt>
<pdfrwt beam="2">  1       -1 0.34869119E-01 0.27541659E+03</pdfrwt>
<totfact> 0.35780184E+03</totfact>
</mgrwt>
</event>
<event>
 5    1  0.1100736E+001  0.2764509E+03  0.7818608E-02  0.1097643E+00
         -1   -1    0    0    0  501 -0.00000000000E+00  0.00000000000E+00  0.58690584420E+03  0.58690584420E+03  0.00000000000E+00 0. -1.
          1   -1    0    0  501    0  0.00000000000E+00 -0.00000000000E+00 -0.32554241423E+02  0.32554241423E+02  0.00000000000E+00 0. -1.
         35    2    1    2    0    0  0.00000000000E+00  0.00000000000E+00  0.55435160278E+03  0.61946008563E+03  0.27645089651E+03 0.  0.
         25    1    3    3    0    0 -0.12641242623E+02  0.63952883728E+02  0.22929992253E+03  0.26688616829E+03  0.12000000000E+03 0.  0.
         25    1    3    3    0    0  0.12641242623E+02 -0.63952883728E+02  0.32505168026E+03  0.35257391734E+03  0.12000000000E+03 0.  0.
<mgrwt>
<rscale>  0 0.27645090E+03</rscale>
<asrwt>0</asrwt>
<pdfrwt beam="1">  1        1 0.50083453E-02 0.27645090E+03</pdfrwt>
<pdfrwt beam="2">  1       -1 0.90293199E-01 0.27645090E+03</pdfrwt>
<totfact> 0.20926542E+03</totfact>
</mgrwt>
</event>
<event>
 5    1  0.1100736E+001  0.2751612E+03  0.7818608E-02  0.1098361E+00
         -2   -1    0    0    0  501 -0.00000000000E+00  0.00000000000E+00  0.23567083103E+02  0.23567083103E+02  0.00000000000E+00 0. -1.
          2   -1    0    0  501    0  0.00000000000E+00 -0.00000000000E+00 -0.80317229512E+03  0.80317229512E+03  0.00000000000E+00 0. -1.
         35    2    1    2    0    0  0.00000000000E+00  0.00000000000E+00 -0.77960521202E+03  0.82673937822E+03  0.27516124891E+03 0.  0.
         25    1    3    3    0    0 -0.35745789270E+01  0.66916828864E+02 -0.40827239355E+03  0.43078647488E+03  0.12000000000E+03 0.  0.
         25    1    3    3    0    0  0.35745789270E+01 -0.66916828864E+02 -0.37133281846E+03  0.39595290334E+03  0.12000000000E+03 0.  0.
<mgrwt>
<rscale>  0 0.27516125E+03</rscale>
<asrwt>0</asrwt>
<pdfrwt beam="1">  1        2 0.12356497E+00 0.27516125E+03</pdfrwt>
<pdfrwt beam="2">  1       -2 0.36257052E-02 0.27516125E+03</pdfrwt>
<totfact> 0.11212668E+04</totfact>
</mgrwt>
</event>
<event>
 5    1  0.1100736E+001  0.2748191E+03  0.7818608E-02  0.1098553E+00
          2   -1    0    0  501    0  0.00000000000E+00  0.00000000000E+00  0.23629632952E+03  0.23629632952E+03  0.00000000000E+00 0. -1.
         -2   -1    0    0    0  501 -0.00000000000E+00 -0.00000000000E+00 -0.79905506473E+02  0.79905506473E+02  0.00000000000E+00 0. -1.
         35    2    1    2    0    0  0.00000000000E+00  0.00000000000E+00  0.15639082305E+03  0.31620183599E+03  0.27481905238E+03 0.  0.
         25    1    3    3    0    0  0.23988586624E+02 -0.57473158590E+02  0.49947239263E+02  0.14412960472E+03  0.12000000000E+03 0.  0.
         25    1    3    3    0    0 -0.23988586624E+02  0.57473158590E+02  0.10644358379E+03  0.17207223127E+03  0.12000000000E+03 0.  0.
<mgrwt>
<rscale>  0 0.27481905E+03</rscale>
<asrwt>0</asrwt>
<pdfrwt beam="1">  1        2 0.36353281E-01 0.27481905E+03</pdfrwt>
<pdfrwt beam="2">  1       -2 0.12293155E-01 0.27481905E+03</pdfrwt>
<totfact> 0.66915865E+03</totfact>
</mgrwt>
</event>
<event>
 5    1  0.1100736E+001  0.2753734E+03  0.7818608E-02  0.1098243E+00
          2   -1    0    0  501    0  0.00000000000E+00  0.00000000000E+00  0.21050114323E+03  0.21050114323E+03  0.00000000000E+00 0.  1.
         -2   -1    0    0    0  501 -0.00000000000E+00 -0.00000000000E+00 -0.90059475565E+02  0.90059475565E+02  0.00000000000E+00 0.  1.
         35    2    1    2    0    0  0.00000000000E+00  0.00000000000E+00  0.12044166767E+03  0.30056061879E+03  0.27537336520E+03 0.  0.
         25    1    3    3    0    0 -0.39880298175E+02  0.50447672611E+02  0.82648178285E+02  0.15926747072E+03  0.12000000000E+03 0.  0.
         25    1    3    3    0    0  0.39880298175E+02 -0.50447672611E+02  0.37793489380E+02  0.14129314808E+03  0.12000000000E+03 0.  0.
<mgrwt>
<rscale>  0 0.27537337E+03</rscale>
<asrwt>0</asrwt>
<pdfrwt beam="1">  1        2 0.32384791E-01 0.27537337E+03</pdfrwt>
<pdfrwt beam="2">  1       -2 0.13855304E-01 0.27537337E+03</pdfrwt>
<totfact> 0.62452573E+03</totfact>
</mgrwt>
</event>
<event>
 5    1  0.1100736E+001  0.2751545E+03  0.7818608E-02  0.1098365E+00
         -1   -1    0    0    0  501 -0.00000000000E+00  0.00000000000E+00  0.89390789015E+01  0.89390789015E+01  0.00000000000E+00 0. -1.
          1   -1    0    0  501    0  0.00000000000E+00 -0.00000000000E+00 -0.21173882986E+04  0.21173882986E+04  0.00000000000E+00 0. -1.
         35    2    1    2    0    0  0.00000000000E+00  0.00000000000E+00 -0.21084492197E+04  0.21263273775E+04  0.27515450980E+03 0.  0.
         25    1    3    3    0    0  0.99502779126E+01 -0.28210622475E+02 -0.58846105597E+03  0.60131627422E+03  0.12000000000E+03 0.  0.
         25    1    3    3    0    0 -0.99502779126E+01  0.28210622475E+02 -0.15199881638E+04  0.15250111033E+04  0.12000000000E+03 0.  0.
<mgrwt>
<rscale>  0 0.27515451E+03</rscale>
<asrwt>0</asrwt>
<pdfrwt beam="1">  1        1 0.32575230E+00 0.27515451E+03</pdfrwt>
<pdfrwt beam="2">  1       -1 0.13752419E-02 0.27515451E+03</pdfrwt>
<totfact> 0.33516642E+03</totfact>
</mgrwt>
</event>
<event>
 5    1  0.1100736E+001  0.2751689E+03  0.7818608E-02  0.1098357E+00
          2   -1    0    0  501    0  0.00000000000E+00  0.00000000000E+00  0.28892920649E+04  0.28892920649E+04  0.00000000000E+00 0. -1.
         -2   -1    0    0    0  501 -0.00000000000E+00 -0.00000000000E+00 -0.65516003495E+01  0.65516003495E+01  0.00000000000E+00 0. -1.
         35    2    1    2    0    0  0.00000000000E+00  0.00000000000E+00  0.28827404646E+04  0.28958436653E+04  0.27516894376E+03 0.  0.
         25    1    3    3    0    0  0.28736507322E+02  0.29441933015E+02  0.88084442323E+03  0.88993230766E+03  0.12000000000E+03 0.  0.
         25    1    3    3    0    0 -0.28736507322E+02 -0.29441933015E+02  0.20018960414E+04  0.20059113576E+04  0.12000000000E+03 0.  0.
<mgrwt>
<rscale>  0 0.27516894E+03</rscale>
<asrwt>0</asrwt>
<pdfrwt beam="1">  1        2 0.44450545E+00 0.27516894E+03</pdfrwt>
<pdfrwt beam="2">  1       -2 0.10079408E-02 0.27516894E+03</pdfrwt>
<totfact> 0.51004199E+03</totfact>
</mgrwt>
</event>
<event>
 5    1  0.1100736E+001  0.2754003E+03  0.7818608E-02  0.1098228E+00
          1   -1    0    0  501    0  0.00000000000E+00  0.00000000000E+00  0.70279921774E+03  0.70279921774E+03  0.00000000000E+00 0.  1.
         -1   -1    0    0    0  501 -0.00000000000E+00 -0.00000000000E+00 -0.26979717603E+02  0.26979717603E+02  0.00000000000E+00 0.  1.
         35    2    1    2    0    0  0.00000000000E+00  0.00000000000E+00  0.67581950014E+03  0.72977893534E+03  0.27540025001E+03 0.  0.
         25    1    3    3    0    0  0.24546242017E+02 -0.53813002936E+02  0.42430441284E+03  0.44489615871E+03  0.12000000000E+03 0.  0.
         25    1    3    3    0    0 -0.24546242017E+02  0.53813002936E+02  0.25151508730E+03  0.28488277663E+03  0.12000000000E+03 0.  0.
<mgrwt>
<rscale>  0 0.27540025E+03</rscale>
<asrwt>0</asrwt>
<pdfrwt beam="1">  1        1 0.10812294E+00 0.27540025E+03</pdfrwt>
<pdfrwt beam="2">  1       -1 0.41507263E-02 0.27540025E+03</pdfrwt>
<totfact> 0.65039873E+03</totfact>
</mgrwt>
</event>
<event>
 5    1  0.1100736E+001  0.2743650E+03  0.7818608E-02  0.1098807E+00
         -2   -1    0    0    0  501 -0.00000000000E+00  0.00000000000E+00  0.92292524481E+01  0.92292524481E+01  0.00000000000E+00 0. -1.
          2   -1    0    0  501    0  0.00000000000E+00 -0.00000000000E+00 -0.20390647375E+04  0.20390647375E+04  0.00000000000E+00 0. -1.
         35    2    1    2    0    0  0.00000000000E+00  0.00000000000E+00 -0.20298354850E+04  0.20482939899E+04  0.27436503582E+03 0.  0.
         25    1    3    3    0    0  0.18996162476E+02  0.38164187957E+02 -0.63412314290E+03  0.64678398233E+03  0.12000000000E+03 0.  0.
         25    1    3    3    0    0 -0.18996162476E+02 -0.38164187957E+02 -0.13957123421E+04  0.14015100076E+04  0.12000000000E+03 0.  0.
<mgrwt>
<rscale>  0 0.27436504E+03</rscale>
<asrwt>0</asrwt>
<pdfrwt beam="1">  1        2 0.31370265E+00 0.27436504E+03</pdfrwt>
<pdfrwt beam="2">  1       -2 0.14198833E-02 0.27436504E+03</pdfrwt>
<totfact> 0.90586382E+03</totfact>
</mgrwt>
</event>
<event>
 5    1  0.1100736E+001  0.2757607E+03  0.7818608E-02  0.1098027E+00
          2   -1    0    0  501    0  0.00000000000E+00  0.00000000000E+00  0.50803200062E+02  0.50803200062E+02  0.00000000000E+00 0. -1.
         -2   -1    0    0    0  501 -0.00000000000E+00 -0.00000000000E+00 -0.37420863045E+03  0.37420863045E+03  0.00000000000E+00 0. -1.
         35    2    1    2    0    0  0.00000000000E+00  0.00000000000E+00 -0.32340543039E+03  0.42501183051E+03  0.27576073627E+03 0.  0.
         25    1    3    3    0    0 -0.56074507616E+02  0.37535181388E+02 -0.17341565491E+03  0.22141867495E+03  0.12000000000E+03 0.  0.
         25    1    3    3    0    0  0.56074507616E+02 -0.37535181388E+02 -0.14998977548E+03  0.20359315557E+03  0.12000000000E+03 0.  0.
<mgrwt>
<rscale>  0 0.27576074E+03</rscale>
<asrwt>0</asrwt>
<pdfrwt beam="1">  1        2 0.78158769E-02 0.27576074E+03</pdfrwt>
<pdfrwt beam="2">  1       -2 0.57570558E-01 0.27576074E+03</pdfrwt>
<totfact> 0.25173224E+03</totfact>
</mgrwt>
</event>
<event>
 5    1  0.1100736E+001  0.2747101E+03  0.7818608E-02  0.1098614E+00
          2   -1    0    0  501    0  0.00000000000E+00  0.00000000000E+00  0.21341980603E+04  0.21341980603E+04  0.00000000000E+00 0.  1.
         -2   -1    0    0    0  501 -0.00000000000E+00 -0.00000000000E+00 -0.88400463395E+01  0.88400463395E+01  0.00000000000E+00 0.  1.
         35    2    1    2    0    0  0.00000000000E+00  0.00000000000E+00  0.21253580140E+04  0.21430381066E+04  0.27471009993E+03 0.  0.
         25    1    3    3    0    0  0.14698952903E+02  0.10755482341E+02  0.15642999961E+04  0.15690016626E+04  0.12000000000E+03 0.  0.
         25    1    3    3    0    0 -0.14698952903E+02 -0.10755482341E+02  0.56105801788E+03  0.57403644400E+03  0.12000000000E+03 0.  0.
<mgrwt>
<rscale>  0 0.27471010E+03</rscale>
<asrwt>0</asrwt>
<pdfrwt beam="1">  1        2 0.32833775E+00 0.27471010E+03</pdfrwt>
<pdfrwt beam="2">  1       -2 0.13600088E-02 0.27471010E+03</pdfrwt>
<totfact> 0.85932522E+03</totfact>
</mgrwt>
</event>
<event>
 5    1  0.1100736E+001  0.2731514E+03  0.7818608E-02  0.1099489E+00
          2   -1    0    0  501    0  0.00000000000E+00  0.00000000000E+00  0.27013869611E+03  0.27013869611E+03  0.00000000000E+00 0. -1.
         -2   -1    0    0    0  501 -0.00000000000E+00 -0.00000000000E+00 -0.69049431803E+02  0.69049431803E+02  0.00000000000E+00 0. -1.
         35    2    1    2    0    0  0.00000000000E+00  0.00000000000E+00  0.20108926431E+03  0.33918812791E+03  0.27315141204E+03 0.  0.
         25    1    3    3    0    0  0.28846707441E+02  0.54865692551E+02  0.75384177240E+02  0.15467757086E+03  0.12000000000E+03 0.  0.
         25    1    3    3    0    0 -0.28846707441E+02 -0.54865692551E+02  0.12570508707E+03  0.18451055705E+03  0.12000000000E+03 0.  0.
<mgrwt>
<rscale>  0 0.27315141E+03</rscale>
<asrwt>0</asrwt>
<pdfrwt beam="1">  1        2 0.41559799E-01 0.27315141E+03</pdfrwt>
<pdfrwt beam="2">  1       -2 0.10622990E-01 0.27315141E+03</pdfrwt>
<totfact> 0.73215914E+03</totfact>
</mgrwt>
</event>
<event>
 5    1  0.1100736E+001  0.2757337E+03  0.7818608E-02  0.1098042E+00
         -3   -1    0    0    0  501 -0.00000000000E+00  0.00000000000E+00  0.88916244081E+03  0.88916244081E+03  0.00000000000E+00 0.  1.
          3   -1    0    0  501    0  0.00000000000E+00 -0.00000000000E+00 -0.21376596566E+02  0.21376596566E+02  0.00000000000E+00 0.  1.
         35    2    1    2    0    0  0.00000000000E+00  0.00000000000E+00  0.86778584425E+03  0.91053903738E+03  0.27573368876E+03 0.  0.
         25    1    3    3    0    0 -0.87437805426E+01  0.47030603640E+02  0.27487244048E+03  0.30371563989E+03  0.12000000000E+03 0.  0.
         25    1    3    3    0    0  0.87437805426E+01 -0.47030603640E+02  0.59291340377E+03  0.60682339749E+03  0.12000000000E+03 0.  0.
<mgrwt>
<rscale>  0 0.27573369E+03</rscale>
<asrwt>0</asrwt>
<pdfrwt beam="1">  1        3 0.32887079E-02 0.27573369E+03</pdfrwt>
<pdfrwt beam="2">  1       -3 0.13679419E+00 0.27573369E+03</pdfrwt>
<totfact> 0.48191435E+02</totfact>
</mgrwt>
</event>
<event>
 5    1  0.1100736E+001  0.2747232E+03  0.7818608E-02  0.1098606E+00
         -2   -1    0    0    0  501 -0.00000000000E+00  0.00000000000E+00  0.36477619876E+02  0.36477619876E+02  0.00000000000E+00 0.  1.
          2   -1    0    0  501    0  0.00000000000E+00 -0.00000000000E+00 -0.51725442263E+03  0.51725442263E+03  0.00000000000E+00 0.  1.
         35    2    1    2    0    0  0.00000000000E+00  0.00000000000E+00 -0.48077680275E+03  0.55373204250E+03  0.27472320767E+03 0.  0.
         25    1    3    3    0    0 -0.23604656678E+02 -0.11144409848E+02 -0.11635394268E+03  0.16917333615E+03  0.12000000000E+03 0.  0.
         25    1    3    3    0    0  0.23604656678E+02  0.11144409848E+02 -0.36442286007E+03  0.38455870635E+03  0.12000000000E+03 0.  0.
<mgrwt>
<rscale>  0 0.27472321E+03</rscale>
<asrwt>0</asrwt>
<pdfrwt beam="1">  1        2 0.79577596E-01 0.27472321E+03</pdfrwt>
<pdfrwt beam="2">  1       -2 0.56119421E-02 0.27472321E+03</pdfrwt>
<totfact> 0.97713547E+03</totfact>
</mgrwt>
</event>
<event>
 5    1  0.1100736E+001  0.2765949E+03  0.7818608E-02  0.1097563E+00
          1   -1    0    0  501    0  0.00000000000E+00  0.00000000000E+00  0.18933193243E+04  0.18933193243E+04  0.00000000000E+00 0. -1.
         -1   -1    0    0    0  501 -0.00000000000E+00 -0.00000000000E+00 -0.10101933928E+02  0.10101933928E+02  0.00000000000E+00 0. -1.
         35    2    1    2    0    0  0.00000000000E+00  0.00000000000E+00  0.18832173903E+04  0.19034212582E+04  0.27659491477E+03 0.  0.
         25    1    3    3    0    0  0.24072782330E+02 -0.60555767959E+02  0.10923282576E+04  0.11008303785E+04  0.12000000000E+03 0.  0.
         25    1    3    3    0    0 -0.24072782330E+02  0.60555767959E+02  0.79088913276E+03  0.80259087972E+03  0.12000000000E+03 0.  0.
<mgrwt>
<rscale>  0 0.27659491E+03</rscale>
<asrwt>0</asrwt>
<pdfrwt beam="1">  1        1 0.29127961E+00 0.27659491E+03</pdfrwt>
<pdfrwt beam="2">  1       -1 0.15541452E-02 0.27659491E+03</pdfrwt>
<totfact> 0.39223133E+03</totfact>
</mgrwt>
</event>
<event>
 5    1  0.1100736E+001  0.2744629E+03  0.7818608E-02  0.1098752E+00
          2   -1    0    0  501    0  0.00000000000E+00  0.00000000000E+00  0.79129301579E+02  0.79129301579E+02  0.00000000000E+00 0.  1.
         -2   -1    0    0    0  501 -0.00000000000E+00 -0.00000000000E+00 -0.23799620076E+03  0.23799620076E+03  0.00000000000E+00 0.  1.
         35    2    1    2    0    0  0.00000000000E+00  0.00000000000E+00 -0.15886689919E+03  0.31712550234E+03  0.27446291658E+03 0.  0.
         25    1    3    3    0    0 -0.56371963459E+02  0.18841380698E+02 -0.11409044146E+03  0.17592448586E+03  0.12000000000E+03 0.  0.
         25    1    3    3    0    0  0.56371963459E+02 -0.18841380698E+02 -0.44776457724E+02  0.14120101649E+03  0.12000000000E+03 0.  0.
<mgrwt>
<rscale>  0 0.27446292E+03</rscale>
<asrwt>0</asrwt>
<pdfrwt beam="1">  1        2 0.12173739E-01 0.27446292E+03</pdfrwt>
<pdfrwt beam="2">  1       -2 0.36614800E-01 0.27446292E+03</pdfrwt>
<totfact> 0.35240680E+03</totfact>
</mgrwt>
</event>
<event>
 5    1  0.1100736E+001  0.2745855E+03  0.7818608E-02  0.1098684E+00
          2   -1    0    0  501    0  0.00000000000E+00  0.00000000000E+00  0.11342772949E+04  0.11342772949E+04  0.00000000000E+00 0.  1.
         -2   -1    0    0    0  501 -0.00000000000E+00 -0.00000000000E+00 -0.16617889340E+02  0.16617889340E+02  0.00000000000E+00 0.  1.
         35    2    1    2    0    0  0.00000000000E+00  0.00000000000E+00  0.11176594056E+04  0.11508951843E+04  0.27458546624E+03 0.  0.
         25    1    3    3    0    0 -0.43756850604E+02  0.22496082369E+02  0.37005141861E+03  0.39212088456E+03  0.12000000000E+03 0.  0.
         25    1    3    3    0    0  0.43756850604E+02 -0.22496082369E+02  0.74760798700E+03  0.75877429972E+03  0.12000000000E+03 0.  0.
<mgrwt>
<rscale>  0 0.27458547E+03</rscale>
<asrwt>0</asrwt>
<pdfrwt beam="1">  1        2 0.17450414E+00 0.27458547E+03</pdfrwt>
<pdfrwt beam="2">  1       -2 0.25565992E-02 0.27458547E+03</pdfrwt>
<totfact> 0.11702864E+04</totfact>
</mgrwt>
</event>
<event>
 5    1  0.1100736E+001  0.2774430E+03  0.7818608E-02  0.1097094E+00
          1   -1    0    0  501    0  0.00000000000E+00  0.00000000000E+00  0.53489077257E+03  0.53489077257E+03  0.00000000000E+00 0.  1.
         -1   -1    0    0    0  501 -0.00000000000E+00 -0.00000000000E+00 -0.35976796008E+02  0.35976796008E+02  0.00000000000E+00 0.  1.
         35    2    1    2    0    0  0.00000000000E+00  0.00000000000E+00  0.49891397656E+03  0.57086756858E+03  0.27744301189E+03 0.  0.
         25    1    3    3    0    0  0.11894747432E+02  0.67369084519E+02  0.22314076532E+03  0.26243452462E+03  0.12000000000E+03 0.  0.
         25    1    3    3    0    0 -0.11894747432E+02 -0.67369084519E+02  0.27577321124E+03  0.30843304395E+03  0.12000000000E+03 0.  0.
<mgrwt>
<rscale>  0 0.27744301E+03</rscale>
<asrwt>0</asrwt>
<pdfrwt beam="1">  1        1 0.82290882E-01 0.27744301E+03</pdfrwt>
<pdfrwt beam="2">  1       -1 0.55348921E-02 0.27744301E+03</pdfrwt>
<totfact> 0.61986065E+03</totfact>
</mgrwt>
</event>
<event>
 4    1  0.1100736E+001  0.3019589E+03  0.7818608E-02  0.1084265E+00
         -4   -1    0    0    0  501 -0.00000000000E+00  0.00000000000E+00  0.10239473914E+03  0.10239473914E+03  0.00000000000E+00 0. -1.
          4   -1    0    0  501    0  0.00000000000E+00 -0.00000000000E+00 -0.22261682618E+03  0.22261682618E+03  0.00000000000E+00 0. -1.
         25    1    1    2    0    0  0.57204662805E+02 -0.35881433450E+02  0.65435915732E+01  0.13785016976E+03  0.12000000000E+03 0.  0.
         25    1    1    2    0    0 -0.57204662805E+02  0.35881433450E+02 -0.12676567861E+03  0.18716139556E+03  0.12000000000E+03 0.  0.
<mgrwt>
<rscale>  0 0.30195888E+03</rscale>
<asrwt>0</asrwt>
<pdfrwt beam="1">  1        4 0.34248742E-01 0.30195888E+03</pdfrwt>
<pdfrwt beam="2">  1       -4 0.15753037E-01 0.30195888E+03</pdfrwt>
<totfact> 0.54054379E+02</totfact>
</mgrwt>
</event>
<event>
 5    1  0.1100736E+001  0.2747757E+03  0.7818608E-02  0.1098577E+00
         -2   -1    0    0    0  501 -0.00000000000E+00  0.00000000000E+00  0.10074487475E+02  0.10074487475E+02  0.00000000000E+00 0. -1.
          2   -1    0    0  501    0  0.00000000000E+00 -0.00000000000E+00 -0.18735859318E+04  0.18735859318E+04  0.00000000000E+00 0. -1.
         35    2    1    2    0    0  0.00000000000E+00  0.00000000000E+00 -0.18635114443E+04  0.18836604192E+04  0.27477567580E+03 0.  0.
         25    1    3    3    0    0  0.33391994720E+02 -0.57309014527E+02 -0.87196555891E+03  0.88267960460E+03  0.12000000000E+03 0.  0.
         25    1    3    3    0    0 -0.33391994720E+02  0.57309014527E+02 -0.99154588538E+03  0.10009808146E+04  0.12000000000E+03 0.  0.
<mgrwt>
<rscale>  0 0.27477568E+03</rscale>
<asrwt>0</asrwt>
<pdfrwt beam="1">  1        2 0.28824371E+00 0.27477568E+03</pdfrwt>
<pdfrwt beam="2">  1       -2 0.15499227E-02 0.27477568E+03</pdfrwt>
<totfact> 0.97360820E+03</totfact>
</mgrwt>
</event>
<event>
 5    1  0.1100736E+001  0.2759679E+03  0.7818608E-02  0.1097912E+00
         -1   -1    0    0    0  501 -0.00000000000E+00  0.00000000000E+00  0.60474266748E+03  0.60474266748E+03  0.00000000000E+00 0. -1.
          1   -1    0    0  501    0  0.00000000000E+00 -0.00000000000E+00 -0.31483762414E+02  0.31483762414E+02  0.00000000000E+00 0. -1.
         35    2    1    2    0    0  0.00000000000E+00  0.00000000000E+00  0.57325890506E+03  0.63622642989E+03  0.27596792904E+03 0.  0.
         25    1    3    3    0    0 -0.16191094032E+02 -0.35816987794E+02  0.15838074723E+03  0.20255732333E+03  0.12000000000E+03 0.  0.
         25    1    3    3    0    0  0.16191094032E+02  0.35816987794E+02  0.41487815783E+03  0.43366910656E+03  0.12000000000E+03 0.  0.
<mgrwt>
<rscale>  0 0.27596793E+03</rscale>
<asrwt>0</asrwt>
<pdfrwt beam="1">  1        1 0.48436562E-02 0.27596793E+03</pdfrwt>
<pdfrwt beam="2">  1       -1 0.93037325E-01 0.27596793E+03</pdfrwt>
<totfact> 0.20545018E+03</totfact>
</mgrwt>
</event>
<event>
 5    1  0.1100736E+001  0.2750999E+03  0.7818608E-02  0.1098396E+00
         -2   -1    0    0    0  501 -0.00000000000E+00  0.00000000000E+00  0.35572008957E+03  0.35572008957E+03  0.00000000000E+00 0.  1.
          2   -1    0    0  501    0  0.00000000000E+00 -0.00000000000E+00 -0.53187845701E+02  0.53187845701E+02  0.00000000000E+00 0.  1.
         35    2    1    2    0    0  0.00000000000E+00  0.00000000000E+00  0.30253224387E+03  0.40890793527E+03  0.27509987449E+03 0.  0.
         25    1    3    3    0    0 -0.51493213082E+02 -0.25036061498E+02  0.98890255320E+02  0.16570346395E+03  0.12000000000E+03 0.  0.
         25    1    3    3    0    0  0.51493213082E+02  0.25036061498E+02  0.20364198855E+03  0.24320447132E+03  0.12000000000E+03 0.  0.
<mgrwt>
<rscale>  0 0.27509987E+03</rscale>
<asrwt>0</asrwt>
<pdfrwt beam="1">  1        2 0.81827457E-02 0.27509987E+03</pdfrwt>
<pdfrwt beam="2">  1       -2 0.54726166E-01 0.27509987E+03</pdfrwt>
<totfact> 0.26335585E+03</totfact>
</mgrwt>
</event>
<event>
 5    1  0.1100736E+001  0.2758434E+03  0.7818608E-02  0.1097981E+00
          2   -1    0    0  501    0  0.00000000000E+00  0.00000000000E+00  0.11278885403E+04  0.11278885403E+04  0.00000000000E+00 0. -1.
         -2   -1    0    0    0  501 -0.00000000000E+00 -0.00000000000E+00 -0.16865491951E+02  0.16865491951E+02  0.00000000000E+00 0. -1.
         35    2    1    2    0    0  0.00000000000E+00  0.00000000000E+00  0.11110230484E+04  0.11447540323E+04  0.27584339832E+03 0.  0.
         25    1    3    3    0    0  0.62536178502E+02 -0.13726290542E+02  0.65043809267E+03  0.66450650641E+03  0.12000000000E+03 0.  0.
         25    1    3    3    0    0 -0.62536178502E+02  0.13726290542E+02  0.46058495572E+03  0.48024752588E+03  0.12000000000E+03 0.  0.
<mgrwt>
<rscale>  0 0.27584340E+03</rscale>
<asrwt>0</asrwt>
<pdfrwt beam="1">  1        2 0.17352125E+00 0.27584340E+03</pdfrwt>
<pdfrwt beam="2">  1       -2 0.25946920E-02 0.27584340E+03</pdfrwt>
<totfact> 0.11549063E+04</totfact>
</mgrwt>
</event>
<event>
 5    1  0.1100736E+001  0.2746724E+03  0.7818608E-02  0.1098635E+00
          2   -1    0    0  501    0  0.00000000000E+00  0.00000000000E+00  0.13218128778E+03  0.13218128778E+03  0.00000000000E+00 0.  1.
         -2   -1    0    0    0  501 -0.00000000000E+00 -0.00000000000E+00 -0.14269219117E+03  0.14269219117E+03  0.00000000000E+00 0.  1.
         35    2    1    2    0    0  0.00000000000E+00  0.00000000000E+00 -0.10510903393E+02  0.27487347895E+03  0.27467244190E+03 0.  0.
         25    1    3    3    0    0  0.57731750632E+01 -0.65951668735E+02 -0.14109832762E+02  0.13777532268E+03  0.12000000000E+03 0.  0.
         25    1    3    3    0    0 -0.57731750632E+01  0.65951668735E+02  0.35989293693E+01  0.13709815627E+03  0.12000000000E+03 0.  0.
<mgrwt>
<rscale>  0 0.27467244E+03</rscale>
<asrwt>0</asrwt>
<pdfrwt beam="1">  1        2 0.20335583E-01 0.27467244E+03</pdfrwt>
<pdfrwt beam="2">  1       -2 0.21952645E-01 0.27467244E+03</pdfrwt>
<totfact> 0.48372886E+03</totfact>
</mgrwt>
</event>
<event>
 5    1  0.1100736E+001  0.2766058E+03  0.7818608E-02  0.1097557E+00
          1   -1    0    0  501    0  0.00000000000E+00  0.00000000000E+00  0.56191135403E+03  0.56191135403E+03  0.00000000000E+00 0.  1.
         -1   -1    0    0    0  501 -0.00000000000E+00 -0.00000000000E+00 -0.34040418969E+02  0.34040418969E+02  0.00000000000E+00 0.  1.
         35    2    1    2    0    0  0.00000000000E+00  0.00000000000E+00  0.52787093506E+03  0.59595177300E+03  0.27660584169E+03 0.  0.
         25    1    3    3    0    0 -0.18701347000E+02 -0.16976621337E+02  0.40171929596E+03  0.42001945050E+03  0.12000000000E+03 0.  0.
         25    1    3    3    0    0  0.18701347000E+02  0.16976621337E+02  0.12615163910E+03  0.17593232250E+03  0.12000000000E+03 0.  0.
<mgrwt>
<rscale>  0 0.27660584E+03</rscale>
<asrwt>0</asrwt>
<pdfrwt beam="1">  1        1 0.86447894E-01 0.27660584E+03</pdfrwt>
<pdfrwt beam="2">  1       -1 0.52369879E-02 0.27660584E+03</pdfrwt>
<totfact> 0.62996212E+03</totfact>
</mgrwt>
</event>
<event>
 5    1  0.1100736E+001  0.2755189E+03  0.7818608E-02  0.1098162E+00
          2   -1    0    0  501    0  0.00000000000E+00  0.00000000000E+00  0.63659056322E+03  0.63659056322E+03  0.00000000000E+00 0.  1.
         -2   -1    0    0    0  501 -0.00000000000E+00 -0.00000000000E+00 -0.29811405640E+02  0.29811405640E+02  0.00000000000E+00 0.  1.
         35    2    1    2    0    0  0.00000000000E+00  0.00000000000E+00  0.60677915758E+03  0.66640196886E+03  0.27551885240E+03 0.  0.
         25    1    3    3    0    0 -0.47228590258E+02 -0.94686281377E+01  0.18846962331E+03  0.22856288755E+03  0.12000000000E+03 0.  0.
         25    1    3    3    0    0  0.47228590258E+02  0.94686281377E+01  0.41830953428E+03  0.43783908131E+03  0.12000000000E+03 0.  0.
<mgrwt>
<rscale>  0 0.27551885E+03</rscale>
<asrwt>0</asrwt>
<pdfrwt beam="1">  1        2 0.97936999E-01 0.27551885E+03</pdfrwt>
<pdfrwt beam="2">  1       -2 0.45863706E-02 0.27551885E+03</pdfrwt>
<totfact> 0.10461160E+04</totfact>
</mgrwt>
</event>
<event>
 5    1  0.1100736E+001  0.2749723E+03  0.7818608E-02  0.1098467E+00
          1   -1    0    0  501    0  0.00000000000E+00  0.00000000000E+00  0.35690655876E+03  0.35690655876E+03  0.00000000000E+00 0. -1.
         -1   -1    0    0    0  501 -0.00000000000E+00 -0.00000000000E+00 -0.52961868547E+02  0.52961868547E+02  0.00000000000E+00 0. -1.
         35    2    1    2    0    0  0.00000000000E+00  0.00000000000E+00  0.30394469021E+03  0.40986842731E+03  0.27497227678E+03 0.  0.
         25    1    3    3    0    0  0.66373870780E+02  0.39604118267E+00  0.13730767420E+03  0.19405938515E+03  0.12000000000E+03 0.  0.
         25    1    3    3    0    0 -0.66373870780E+02 -0.39604118267E+00  0.16663701601E+03  0.21580904216E+03  0.12000000000E+03 0.  0.
<mgrwt>
<rscale>  0 0.27497228E+03</rscale>
<asrwt>0</asrwt>
<pdfrwt beam="1">  1        1 0.54908700E-01 0.27497228E+03</pdfrwt>
<pdfrwt beam="2">  1       -1 0.81479800E-02 0.27497228E+03</pdfrwt>
<totfact> 0.58387427E+03</totfact>
</mgrwt>
</event>
<event>
 5    1  0.1100736E+001  0.2745375E+03  0.7818608E-02  0.1098710E+00
          2   -1    0    0  501    0  0.00000000000E+00  0.00000000000E+00  0.14943985652E+04  0.14943985652E+04  0.00000000000E+00 0. -1.
         -2   -1    0    0    0  501 -0.00000000000E+00 -0.00000000000E+00 -0.12608891619E+02  0.12608891619E+02  0.00000000000E+00 0. -1.
         35    2    1    2    0    0  0.00000000000E+00  0.00000000000E+00  0.14817896736E+04  0.15070074568E+04  0.27453749868E+03 0.  0.
         25    1    3    3    0    0  0.62216871176E+01 -0.62024601112E+02  0.61134960056E+03  0.62612626094E+03  0.12000000000E+03 0.  0.
         25    1    3    3    0    0 -0.62216871176E+01  0.62024601112E+02  0.87044007303E+03  0.88088119588E+03  0.12000000000E+03 0.  0.
<mgrwt>
<rscale>  0 0.27453750E+03</rscale>
<asrwt>0</asrwt>
<pdfrwt beam="1">  1        2 0.22990733E+00 0.27453750E+03</pdfrwt>
<pdfrwt beam="2">  1       -2 0.19398307E-02 0.27453750E+03</pdfrwt>
<totfact> 0.11109127E+04</totfact>
</mgrwt>
</event>
<event>
 5    1  0.1100736E+001  0.2773290E+03  0.7818608E-02  0.1097157E+00
          2   -1    0    0  501    0  0.00000000000E+00  0.00000000000E+00  0.64837422180E+03  0.64837422180E+03  0.00000000000E+00 0. -1.
         -2   -1    0    0    0  501 -0.00000000000E+00 -0.00000000000E+00 -0.29655470972E+02  0.29655470972E+02  0.00000000000E+00 0. -1.
         35    2    1    2    0    0  0.00000000000E+00  0.00000000000E+00  0.61871875083E+03  0.67802969278E+03  0.27732899534E+03 0.  0.
         25    1    3    3    0    0 -0.95907383537E+01  0.17363155638E+02  0.47216520839E+03  0.48757916839E+03  0.12000000000E+03 0.  0.
         25    1    3    3    0    0  0.95907383537E+01 -0.17363155638E+02  0.14655354244E+03  0.19045052438E+03  0.12000000000E+03 0.  0.
<mgrwt>
<rscale>  0 0.27732900E+03</rscale>
<asrwt>0</asrwt>
<pdfrwt beam="1">  1        2 0.99749869E-01 0.27732900E+03</pdfrwt>
<pdfrwt beam="2">  1       -2 0.45623806E-02 0.27732900E+03</pdfrwt>
<totfact> 0.10320697E+04</totfact>
</mgrwt>
</event>
<event>
 5    1  0.1100736E+001  0.2752562E+03  0.7818608E-02  0.1098308E+00
         -1   -1    0    0    0  501 -0.00000000000E+00  0.00000000000E+00  0.60188265316E+03  0.60188265316E+03  0.00000000000E+00 0. -1.
          1   -1    0    0  501    0  0.00000000000E+00 -0.00000000000E+00 -0.31470406943E+02  0.31470406943E+02  0.00000000000E+00 0. -1.
         35    2    1    2    0    0  0.00000000000E+00  0.00000000000E+00  0.57041224622E+03  0.63335306011E+03  0.27525618632E+03 0.  0.
         25    1    3    3    0    0  0.20353719420E+01  0.29385239520E+02  0.42467262499E+03  0.44228325025E+03  0.12000000000E+03 0.  0.
         25    1    3    3    0    0 -0.20353719420E+01 -0.29385239520E+02  0.14573962124E+03  0.19106980986E+03  0.12000000000E+03 0.  0.
<mgrwt>
<rscale>  0 0.27525619E+03</rscale>
<asrwt>0</asrwt>
<pdfrwt beam="1">  1        1 0.48416015E-02 0.27525619E+03</pdfrwt>
<pdfrwt beam="2">  1       -1 0.92597323E-01 0.27525619E+03</pdfrwt>
<totfact> 0.20768654E+03</totfact>
</mgrwt>
</event>
<event>
 5    1  0.1100736E+001  0.2748033E+03  0.7818608E-02  0.1098562E+00
         -2   -1    0    0    0  501 -0.00000000000E+00  0.00000000000E+00  0.47581444090E+02  0.47581444090E+02  0.00000000000E+00 0. -1.
          2   -1    0    0  501    0  0.00000000000E+00 -0.00000000000E+00 -0.39677684968E+03  0.39677684968E+03  0.00000000000E+00 0. -1.
         35    2    1    2    0    0  0.00000000000E+00  0.00000000000E+00 -0.34919540559E+03  0.44435829377E+03  0.27480331504E+03 0.  0.
         25    1    3    3    0    0 -0.26829576295E+02  0.17928328661E+02 -0.79785986577E+02  0.14767211919E+03  0.12000000000E+03 0.  0.
         25    1    3    3    0    0  0.26829576295E+02 -0.17928328661E+02 -0.26940941901E+03  0.29668617458E+03  0.12000000000E+03 0.  0.
<mgrwt>
<rscale>  0 0.27480332E+03</rscale>
<asrwt>0</asrwt>
<pdfrwt beam="1">  1        2 0.61042595E-01 0.27480332E+03</pdfrwt>
<pdfrwt beam="2">  1       -2 0.73202219E-02 0.27480332E+03</pdfrwt>
<totfact> 0.86944282E+03</totfact>
</mgrwt>
</event>
<event>
 5    1  0.1100736E+001  0.2748127E+03  0.7818608E-02  0.1098556E+00
          2   -1    0    0  501    0  0.00000000000E+00  0.00000000000E+00  0.10236992391E+04  0.10236992391E+04  0.00000000000E+00 0.  1.
         -2   -1    0    0    0  501 -0.00000000000E+00 -0.00000000000E+00 -0.18443403666E+02  0.18443403666E+02  0.00000000000E+00 0.  1.
         35    2    1    2    0    0  0.00000000000E+00  0.00000000000E+00  0.10052558354E+04  0.10421426428E+04  0.27481265109E+03 0.  0.
         25    1    3    3    0    0  0.55731087901E+02  0.36853408167E+02  0.51797128617E+03  0.53587160883E+03  0.12000000000E+03 0.  0.
         25    1    3    3    0    0 -0.55731087901E+02 -0.36853408167E+02  0.48728454927E+03  0.50627103394E+03  0.12000000000E+03 0.  0.
<mgrwt>
<rscale>  0 0.27481265E+03</rscale>
<asrwt>0</asrwt>
<pdfrwt beam="1">  1        2 0.15749215E+00 0.27481265E+03</pdfrwt>
<pdfrwt beam="2">  1       -2 0.28374475E-02 0.27481265E+03</pdfrwt>
<totfact> 0.11659479E+04</totfact>
</mgrwt>
</event>
<event>
 5    1  0.1100736E+001  0.2748583E+03  0.7818608E-02  0.1098531E+00
          1   -1    0    0  501    0  0.00000000000E+00  0.00000000000E+00  0.25643984418E+04  0.25643984418E+04  0.00000000000E+00 0. -1.
         -1   -1    0    0    0  501 -0.00000000000E+00 -0.00000000000E+00 -0.73649922578E+01  0.73649922578E+01  0.00000000000E+00 0. -1.
         35    2    1    2    0    0  0.00000000000E+00  0.00000000000E+00  0.25570334495E+04  0.25717634340E+04  0.27485832474E+03 0.  0.
         25    1    3    3    0    0 -0.38840849054E+02 -0.39566289644E+02  0.16301927528E+04  0.16355434920E+04  0.12000000000E+03 0.  0.
         25    1    3    3    0    0  0.38840849054E+02  0.39566289644E+02  0.92684069668E+03  0.93621994203E+03  0.12000000000E+03 0.  0.
<mgrwt>
<rscale>  0 0.27485832E+03</rscale>
<asrwt>0</asrwt>
<pdfrwt beam="1">  1        1 0.39452212E+00 0.27485832E+03</pdfrwt>
<pdfrwt beam="2">  1       -1 0.11330778E-02 0.27485832E+03</pdfrwt>
<totfact> 0.22543185E+03</totfact>
</mgrwt>
</event>
<event>
 5    1  0.1100736E+001  0.2756179E+03  0.7818608E-02  0.1098107E+00
         -4   -1    0    0    0  501 -0.00000000000E+00  0.00000000000E+00  0.15384328585E+03  0.15384328585E+03  0.00000000000E+00 0.  1.
          4   -1    0    0  501    0  0.00000000000E+00 -0.00000000000E+00 -0.12344576336E+03  0.12344576336E+03  0.00000000000E+00 0.  1.
         35    2    1    2    0    0  0.00000000000E+00  0.00000000000E+00  0.30397522495E+02  0.27728904921E+03  0.27561786488E+03 0.  0.
         25    1    3    3    0    0 -0.25593261639E+02 -0.37354127095E+02 -0.35514778814E+02  0.13308510573E+03  0.12000000000E+03 0.  0.
         25    1    3    3    0    0  0.25593261639E+02  0.37354127095E+02  0.65912301309E+02  0.14420394348E+03  0.12000000000E+03 0.  0.
<mgrwt>
<rscale>  0 0.27561786E+03</rscale>
<asrwt>0</asrwt>
<pdfrwt beam="1">  1        4 0.18991656E-01 0.27561786E+03</pdfrwt>
<pdfrwt beam="2">  1       -4 0.23668198E-01 0.27561786E+03</pdfrwt>
<totfact> 0.77057957E+02</totfact>
</mgrwt>
</event>
<event>
 5    1  0.1100736E+001  0.2709160E+03  0.7818608E-02  0.1100756E+00
          2   -1    0    0  501    0  0.00000000000E+00  0.00000000000E+00  0.51075228106E+03  0.51075228106E+03  0.00000000000E+00 0.  1.
         -2   -1    0    0    0  501 -0.00000000000E+00 -0.00000000000E+00 -0.35925196056E+02  0.35925196056E+02  0.00000000000E+00 0.  1.
         35    2    1    2    0    0  0.00000000000E+00  0.00000000000E+00  0.47482708501E+03  0.54667747712E+03  0.27091604480E+03 0.  0.
         25    1    3    3    0    0  0.58171121505E+01 -0.47189845740E+02  0.15450435126E+03  0.20132638896E+03  0.12000000000E+03 0.  0.
         25    1    3    3    0    0 -0.58171121505E+01  0.47189845740E+02  0.32032273375E+03  0.34535108815E+03  0.12000000000E+03 0.  0.
<mgrwt>
<rscale>  0 0.27091604E+03</rscale>
<asrwt>0</asrwt>
<pdfrwt beam="1">  1        2 0.78577269E-01 0.27091604E+03</pdfrwt>
<pdfrwt beam="2">  1       -2 0.55269536E-02 0.27091604E+03</pdfrwt>
<totfact> 0.10139515E+04</totfact>
</mgrwt>
</event>
<event>
 5    1  0.1100736E+001  0.2753399E+03  0.7818608E-02  0.1098262E+00
          4   -1    0    0  501    0  0.00000000000E+00  0.00000000000E+00  0.59158870439E+02  0.59158870439E+02  0.00000000000E+00 0. -1.
         -4   -1    0    0    0  501 -0.00000000000E+00 -0.00000000000E+00 -0.32037490842E+03  0.32037490842E+03  0.00000000000E+00 0. -1.
         35    2    1    2    0    0  0.00000000000E+00  0.00000000000E+00 -0.26121603798E+03  0.37953377885E+03  0.27533991864E+03 0.  0.
         25    1    3    3    0    0  0.52289129636E+02 -0.39393627993E+02 -0.15313185360E+03  0.20526903223E+03  0.12000000000E+03 0.  0.
         25    1    3    3    0    0 -0.52289129636E+02  0.39393627993E+02 -0.10808418437E+03  0.17426474662E+03  0.12000000000E+03 0.  0.
<mgrwt>
<rscale>  0 0.27533992E+03</rscale>
<asrwt>0</asrwt>
<pdfrwt beam="1">  1        4 0.91013647E-02 0.27533992E+03</pdfrwt>
<pdfrwt beam="2">  1       -4 0.49288447E-01 0.27533992E+03</pdfrwt>
<totfact> 0.66623262E+02</totfact>
</mgrwt>
</event>
<event>
 5    1  0.1100736E+001  0.2748162E+03  0.7818608E-02  0.1098554E+00
          2   -1    0    0  501    0  0.00000000000E+00  0.00000000000E+00  0.15418782073E+03  0.15418782073E+03  0.00000000000E+00 0.  1.
         -2   -1    0    0    0  501 -0.00000000000E+00 -0.00000000000E+00 -0.12245441935E+03  0.12245441935E+03  0.00000000000E+00 0.  1.
         35    2    1    2    0    0  0.00000000000E+00  0.00000000000E+00  0.31733401378E+02  0.27664224008E+03  0.27481615716E+03 0.  0.
         25    1    3    3    0    0  0.51369540356E+02 -0.11846133091E+01  0.59055714711E+02  0.14327529593E+03  0.12000000000E+03 0.  0.
         25    1    3    3    0    0 -0.51369540356E+02  0.11846133091E+01 -0.27322313333E+02  0.13336694415E+03  0.12000000000E+03 0.  0.
<mgrwt>
<rscale>  0 0.27481616E+03</rscale>
<asrwt>0</asrwt>
<pdfrwt beam="1">  1        2 0.23721203E-01 0.27481616E+03</pdfrwt>
<pdfrwt beam="2">  1       -2 0.18839141E-01 0.27481616E+03</pdfrwt>
<totfact> 0.52810142E+03</totfact>
</mgrwt>
</event>
<event>
 5    1  0.1100736E+001  0.2747121E+03  0.7818608E-02  0.1098613E+00
         -3   -1    0    0    0  501 -0.00000000000E+00  0.00000000000E+00  0.43979801316E+03  0.43979801316E+03  0.00000000000E+00 0. -1.
          3   -1    0    0  501    0  0.00000000000E+00 -0.00000000000E+00 -0.42898530908E+02  0.42898530908E+02  0.00000000000E+00 0. -1.
         35    2    1    2    0    0  0.00000000000E+00  0.00000000000E+00  0.39689948225E+03  0.48269654407E+03  0.27471213050E+03 0.  0.
         25    1    3    3    0    0 -0.65566779037E+02  0.38980541669E+00  0.22119275884E+03  0.26004882431E+03  0.12000000000E+03 0.  0.
         25    1    3    3    0    0  0.65566779037E+02 -0.38980541669E+00  0.17570672341E+03  0.22264771975E+03  0.12000000000E+03 0.  0.
<mgrwt>
<rscale>  0 0.27471213E+03</rscale>
<asrwt>0</asrwt>
<pdfrwt beam="1">  1        3 0.65997743E-02 0.27471213E+03</pdfrwt>
<pdfrwt beam="2">  1       -3 0.67661230E-01 0.27471213E+03</pdfrwt>
<totfact> 0.79313852E+02</totfact>
</mgrwt>
</event>
<event>
 5    1  0.1100736E+001  0.2709897E+03  0.7818608E-02  0.1100715E+00
          1   -1    0    0  501    0  0.00000000000E+00  0.00000000000E+00  0.16590646023E+04  0.16590646023E+04  0.00000000000E+00 0. -1.
         -1   -1    0    0    0  501 -0.00000000000E+00 -0.00000000000E+00 -0.11065786668E+02  0.11065786668E+02  0.00000000000E+00 0. -1.
         35    2    1    2    0    0  0.00000000000E+00  0.00000000000E+00  0.16479988157E+04  0.16701303890E+04  0.27098970429E+03 0.  0.
         25    1    3    3    0    0 -0.22257883384E+02 -0.42741766749E+02  0.10733248511E+04  0.10810867255E+04  0.12000000000E+03 0.  0.
         25    1    3    3    0    0  0.22257883384E+02  0.42741766749E+02  0.57467396454E+03  0.58904366351E+03  0.12000000000E+03 0.  0.
<mgrwt>
<rscale>  0 0.27098970E+03</rscale>
<asrwt>0</asrwt>
<pdfrwt beam="1">  1        1 0.25524051E+00 0.27098970E+03</pdfrwt>
<pdfrwt beam="2">  1       -1 0.17024300E-02 0.27098970E+03</pdfrwt>
<totfact> 0.48786981E+03</totfact>
</mgrwt>
</event>
<event>
 5    1  0.1100736E+001  0.2787565E+03  0.7818608E-02  0.1096370E+00
         -1   -1    0    0    0  501 -0.00000000000E+00  0.00000000000E+00  0.66141210215E+02  0.66141210215E+02  0.00000000000E+00 0. -1.
          1   -1    0    0  501    0  0.00000000000E+00 -0.00000000000E+00 -0.29370951293E+03  0.29370951293E+03  0.00000000000E+00 0. -1.
         35    2    1    2    0    0  0.00000000000E+00  0.00000000000E+00 -0.22756830272E+03  0.35985072315E+03  0.27875654351E+03 0.  0.
         25    1    3    3    0    0  0.16523698245E+02  0.17326026722E+02 -0.19992864066E+03  0.23440282670E+03  0.12000000000E+03 0.  0.
         25    1    3    3    0    0 -0.16523698245E+02 -0.17326026722E+02 -0.27639662056E+02  0.12544789645E+03  0.12000000000E+03 0.  0.
<mgrwt>
<rscale>  0 0.27875654E+03</rscale>
<asrwt>0</asrwt>
<pdfrwt beam="1">  1        1 0.45186079E-01 0.27875654E+03</pdfrwt>
<pdfrwt beam="2">  1       -1 0.10175571E-01 0.27875654E+03</pdfrwt>
<totfact> 0.53083128E+03</totfact>
</mgrwt>
</event>
<event>
 5    1  0.1100736E+001  0.2757655E+03  0.7818608E-02  0.1098024E+00
         -2   -1    0    0    0  501 -0.00000000000E+00  0.00000000000E+00  0.23039509451E+02  0.23039509451E+02  0.00000000000E+00 0. -1.
          2   -1    0    0  501    0  0.00000000000E+00 -0.00000000000E+00 -0.82517626193E+03  0.82517626193E+03  0.00000000000E+00 0. -1.
         35    2    1    2    0    0  0.00000000000E+00  0.00000000000E+00 -0.80213675248E+03  0.84821577138E+03  0.27576552566E+03 0.  0.
         25    1    3    3    0    0 -0.28433049592E+02 -0.50485256940E+02 -0.51001009605E+03  0.52713138547E+03  0.12000000000E+03 0.  0.
         25    1    3    3    0    0  0.28433049592E+02  0.50485256940E+02 -0.29212665643E+03  0.32108438591E+03  0.12000000000E+03 0.  0.
<mgrwt>
<rscale>  0 0.27576553E+03</rscale>
<asrwt>0</asrwt>
<pdfrwt beam="1">  1        2 0.12695021E+00 0.27576553E+03</pdfrwt>
<pdfrwt beam="2">  1       -2 0.35445396E-02 0.27576553E+03</pdfrwt>
<totfact> 0.11205246E+04</totfact>
</mgrwt>
</event>
<event>
 5    1  0.1100736E+001  0.2748860E+03  0.7818608E-02  0.1098515E+00
         -2   -1    0    0    0  501 -0.00000000000E+00  0.00000000000E+00  0.43261554276E+03  0.43261554276E+03  0.00000000000E+00 0.  1.
          2   -1    0    0  501    0  0.00000000000E+00 -0.00000000000E+00 -0.43665977007E+02  0.43665977007E+02  0.00000000000E+00 0.  1.
         35    2    1    2    0    0  0.00000000000E+00  0.00000000000E+00  0.38894956575E+03  0.47628151977E+03  0.27488601524E+03 0.  0.
         25    1    3    3    0    0 -0.29981023431E+01 -0.66939033631E+02  0.19598278843E+03  0.23937225445E+03  0.12000000000E+03 0.  0.
         25    1    3    3    0    0  0.29981023431E+01  0.66939033631E+02  0.19296677733E+03  0.23690926532E+03  0.12000000000E+03 0.  0.
<mgrwt>
<rscale>  0 0.27488602E+03</rscale>
<asrwt>0</asrwt>
<pdfrwt beam="1">  1        2 0.67178429E-02 0.27488602E+03</pdfrwt>
<pdfrwt beam="2">  1       -2 0.66556235E-01 0.27488602E+03</pdfrwt>
<totfact> 0.22590442E+03</totfact>
</mgrwt>
</event>
<event>
 4    1  0.1100736E+001  0.2546043E+03  0.7818608E-02  0.1110429E+00
         -1   -1    0    0    0  501 -0.00000000000E+00  0.00000000000E+00  0.48145658052E+03  0.48145658052E+03  0.00000000000E+00 0. -1.
          1   -1    0    0  501    0  0.00000000000E+00 -0.00000000000E+00 -0.33660011678E+02  0.33660011678E+02  0.00000000000E+00 0. -1.
         25    1    1    2    0    0  0.52596752687E+01 -0.19695978009E+02  0.29933529798E+03  0.32313652896E+03  0.12000000000E+03 0.  0.
         25    1    1    2    0    0 -0.52596752687E+01  0.19695978009E+02  0.14846127087E+03  0.19198006324E+03  0.12000000000E+03 0.  0.
<mgrwt>
<rscale>  0 0.25460427E+03</rscale>
<asrwt>0</asrwt>
<pdfrwt beam="1">  1        1 0.51784637E-02 0.25460427E+03</pdfrwt>
<pdfrwt beam="2">  1       -1 0.74070238E-01 0.25460427E+03</pdfrwt>
<totfact> 0.30142754E+03</totfact>
</mgrwt>
</event>
<event>
 5    1  0.1100736E+001  0.2711424E+03  0.7818608E-02  0.1100628E+00
         -2   -1    0    0    0  501 -0.00000000000E+00  0.00000000000E+00  0.14012668891E+02  0.14012668891E+02  0.00000000000E+00 0. -1.
          2   -1    0    0  501    0  0.00000000000E+00 -0.00000000000E+00 -0.13116379469E+04  0.13116379469E+04  0.00000000000E+00 0. -1.
         35    2    1    2    0    0  0.00000000000E+00  0.00000000000E+00 -0.12976252780E+04  0.13256506158E+04  0.27114238514E+03 0.  0.
         25    1    3    3    0    0 -0.21455320206E+02  0.45462063713E+02 -0.83514037837E+03  0.84521392653E+03  0.12000000000E+03 0.  0.
         25    1    3    3    0    0  0.21455320206E+02 -0.45462063713E+02 -0.46248489966E+03  0.48043668929E+03  0.12000000000E+03 0.  0.
<mgrwt>
<rscale>  0 0.27114239E+03</rscale>
<asrwt>0</asrwt>
<pdfrwt beam="1">  1        2 0.20179050E+00 0.27114239E+03</pdfrwt>
<pdfrwt beam="2">  1       -2 0.21557948E-02 0.27114239E+03</pdfrwt>
<totfact> 0.11948756E+04</totfact>
</mgrwt>
</event>
<event>
 5    1  0.1100736E+001  0.2749979E+03  0.7818608E-02  0.1098453E+00
          2   -1    0    0  501    0  0.00000000000E+00  0.00000000000E+00  0.13130740887E+04  0.13130740887E+04  0.00000000000E+00 0. -1.
         -2   -1    0    0    0  501 -0.00000000000E+00 -0.00000000000E+00 -0.14398243920E+02  0.14398243920E+02  0.00000000000E+00 0. -1.
         35    2    1    2    0    0  0.00000000000E+00  0.00000000000E+00  0.12986758447E+04  0.13274723326E+04  0.27499789827E+03 0.  0.
         25    1    3    3    0    0 -0.43276097974E+02 -0.14401713851E+02  0.41158962123E+03  0.43114527288E+03  0.12000000000E+03 0.  0.
         25    1    3    3    0    0  0.43276097974E+02  0.14401713851E+02  0.88708622350E+03  0.89632705970E+03  0.12000000000E+03 0.  0.
<mgrwt>
<rscale>  0 0.27499790E+03</rscale>
<asrwt>0</asrwt>
<pdfrwt beam="1">  1        2 0.20201130E+00 0.27499790E+03</pdfrwt>
<pdfrwt beam="2">  1       -2 0.22151155E-02 0.27499790E+03</pdfrwt>
<totfact> 0.11463235E+04</totfact>
</mgrwt>
</event>
<event>
 5    1  0.1100736E+001  0.2707223E+03  0.7818608E-02  0.1100867E+00
          2   -1    0    0  501    0  0.00000000000E+00  0.00000000000E+00  0.60976828315E+03  0.60976828315E+03  0.00000000000E+00 0. -1.
         -2   -1    0    0    0  501 -0.00000000000E+00 -0.00000000000E+00 -0.30048522949E+02  0.30048522949E+02  0.00000000000E+00 0. -1.
         35    2    1    2    0    0  0.00000000000E+00  0.00000000000E+00  0.57971976020E+03  0.63981680610E+03  0.27072226543E+03 0.  0.
         25    1    3    3    0    0  0.24664748454E+02  0.51643528894E+02  0.22973395405E+03  0.26543001627E+03  0.12000000000E+03 0.  0.
         25    1    3    3    0    0 -0.24664748454E+02 -0.51643528894E+02  0.34998580615E+03  0.37438678983E+03  0.12000000000E+03 0.  0.
<mgrwt>
<rscale>  0 0.27072227E+03</rscale>
<asrwt>0</asrwt>
<pdfrwt beam="1">  1        2 0.93810496E-01 0.27072227E+03</pdfrwt>
<pdfrwt beam="2">  1       -2 0.46228501E-02 0.27072227E+03</pdfrwt>
<totfact> 0.10864374E+04</totfact>
</mgrwt>
</event>
<event>
 5    1  0.1100736E+001  0.2754156E+03  0.7818608E-02  0.1098220E+00
          1   -1    0    0  501    0  0.00000000000E+00  0.00000000000E+00  0.52759693688E+03  0.52759693688E+03  0.00000000000E+00 0. -1.
         -1   -1    0    0    0  501 -0.00000000000E+00 -0.00000000000E+00 -0.35943042141E+02  0.35943042141E+02  0.00000000000E+00 0. -1.
         35    2    1    2    0    0  0.00000000000E+00  0.00000000000E+00  0.49165389474E+03  0.56353997902E+03  0.27541560548E+03 0.  0.
         25    1    3    3    0    0  0.27798405031E+02 -0.61566732501E+02  0.24679765431E+03  0.28261687148E+03  0.12000000000E+03 0.  0.
         25    1    3    3    0    0 -0.27798405031E+02  0.61566732501E+02  0.24485624044E+03  0.28092310755E+03  0.12000000000E+03 0.  0.
<mgrwt>
<rscale>  0 0.27541561E+03</rscale>
<asrwt>0</asrwt>
<pdfrwt beam="1">  1        1 0.81168754E-01 0.27541561E+03</pdfrwt>
<pdfrwt beam="2">  1       -1 0.55296992E-02 0.27541561E+03</pdfrwt>
<totfact> 0.63217870E+03</totfact>
</mgrwt>
</event>
<event>
 5    1  0.1100736E+001  0.2750508E+03  0.7818608E-02  0.1098423E+00
         -2   -1    0    0    0  501 -0.00000000000E+00  0.00000000000E+00  0.10566345754E+03  0.10566345754E+03  0.00000000000E+00 0.  1.
          2   -1    0    0  501    0  0.00000000000E+00 -0.00000000000E+00 -0.17899500141E+03  0.17899500141E+03  0.00000000000E+00 0.  1.
         35    2    1    2    0    0  0.00000000000E+00  0.00000000000E+00 -0.73331543873E+02  0.28465845895E+03  0.27505076426E+03 0.  0.
         25    1    3    3    0    0  0.53521327711E+02  0.20476505999E+02 -0.37804458955E+00  0.13298106157E+03  0.12000000000E+03 0.  0.
         25    1    3    3    0    0 -0.53521327711E+02 -0.20476505999E+02 -0.72953499284E+02  0.15167739738E+03  0.12000000000E+03 0.  0.
<mgrwt>
<rscale>  0 0.27505076E+03</rscale>
<asrwt>0</asrwt>
<pdfrwt beam="1">  1        2 0.27537692E-01 0.27505076E+03</pdfrwt>
<pdfrwt beam="2">  1       -2 0.16255917E-01 0.27505076E+03</pdfrwt>
<totfact> 0.57304469E+03</totfact>
</mgrwt>
</event>
<event>
 5    1  0.1100736E+001  0.2756489E+03  0.7818608E-02  0.1098089E+00
          1   -1    0    0  501    0  0.00000000000E+00  0.00000000000E+00  0.14064545066E+03  0.14064545066E+03  0.00000000000E+00 0. -1.
         -1   -1    0    0    0  501 -0.00000000000E+00 -0.00000000000E+00 -0.13506006067E+03  0.13506006067E+03  0.00000000000E+00 0. -1.
         35    2    1    2    0    0  0.00000000000E+00  0.00000000000E+00  0.55853899927E+01  0.27570551133E+03  0.27564892961E+03 0.  0.
         25    1    3    3    0    0  0.12289140153E+02  0.56586439009E+02  0.38049541277E+02  0.13856700775E+03  0.12000000000E+03 0.  0.
         25    1    3    3    0    0 -0.12289140153E+02 -0.56586439009E+02 -0.32464151284E+02  0.13713850358E+03  0.12000000000E+03 0.  0.
<mgrwt>
<rscale>  0 0.27564893E+03</rscale>
<asrwt>0</asrwt>
<pdfrwt beam="1">  1        1 0.21637762E-01 0.27564893E+03</pdfrwt>
<pdfrwt beam="2">  1       -1 0.20778471E-01 0.27564893E+03</pdfrwt>
<totfact> 0.43388539E+03</totfact>
</mgrwt>
</event>
<event>
 5    1  0.1100736E+001  0.2744610E+03  0.7818608E-02  0.1098753E+00
         -2   -1    0    0    0  501 -0.00000000000E+00  0.00000000000E+00  0.86139637024E+01  0.86139637024E+01  0.00000000000E+00 0.  1.
          2   -1    0    0  501    0  0.00000000000E+00 -0.00000000000E+00 -0.21862420975E+04  0.21862420975E+04  0.00000000000E+00 0.  1.
         35    2    1    2    0    0  0.00000000000E+00  0.00000000000E+00 -0.21776281338E+04  0.21948560612E+04  0.27446099958E+03 0.  0.
         25    1    3    3    0    0 -0.50217659272E+01  0.13195721971E+02 -0.56852750923E+03  0.58122532116E+03  0.12000000000E+03 0.  0.
         25    1    3    3    0    0  0.50217659272E+01 -0.13195721971E+02 -0.16091006245E+04  0.16136307400E+04  0.12000000000E+03 0.  0.
<mgrwt>
<rscale>  0 0.27446100E+03</rscale>
<asrwt>0</asrwt>
<pdfrwt beam="1">  1        2 0.33634514E+00 0.27446100E+03</pdfrwt>
<pdfrwt beam="2">  1       -2 0.13252244E-02 0.27446100E+03</pdfrwt>
<totfact> 0.83747504E+03</totfact>
</mgrwt>
</event>
<event>
 5    1  0.1100736E+001  0.2725810E+03  0.7818608E-02  0.1099811E+00
          2   -1    0    0  501    0  0.00000000000E+00  0.00000000000E+00  0.15666084994E+03  0.15666084994E+03  0.00000000000E+00 0. -1.
         -2   -1    0    0    0  501 -0.00000000000E+00 -0.00000000000E+00 -0.11856884454E+03  0.11856884454E+03  0.00000000000E+00 0. -1.
         35    2    1    2    0    0  0.00000000000E+00  0.00000000000E+00  0.38092005401E+02  0.27522969448E+03  0.27258096751E+03 0.  0.
         25    1    3    3    0    0  0.34686024298E+02 -0.45417981226E+02  0.49491658402E+02  0.14182854985E+03  0.12000000000E+03 0.  0.
         25    1    3    3    0    0 -0.34686024298E+02  0.45417981226E+02 -0.11399653001E+02  0.13340114463E+03  0.12000000000E+03 0.  0.
<mgrwt>
<rscale>  0 0.27258097E+03</rscale>
<asrwt>0</asrwt>
<pdfrwt beam="1">  1        2 0.24101669E-01 0.27258097E+03</pdfrwt>
<pdfrwt beam="2">  1       -2 0.18241361E-01 0.27258097E+03</pdfrwt>
<totfact> 0.54770288E+03</totfact>
</mgrwt>
</event>
<event>
 5    1  0.1100736E+001  0.2758651E+03  0.7818608E-02  0.1097969E+00
         -2   -1    0    0    0  501 -0.00000000000E+00  0.00000000000E+00  0.95908055612E+01  0.95908055612E+01  0.00000000000E+00 0. -1.
          2   -1    0    0  501    0  0.00000000000E+00 -0.00000000000E+00 -0.19837108546E+04  0.19837108546E+04  0.00000000000E+00 0. -1.
         35    2    1    2    0    0  0.00000000000E+00  0.00000000000E+00 -0.19741200491E+04  0.19933016602E+04  0.27586507642E+03 0.  0.
         25    1    3    3    0    0 -0.11810062053E+02 -0.17082930845E+02 -0.51911513161E+03  0.53320898714E+03  0.12000000000E+03 0.  0.
         25    1    3    3    0    0  0.11810062053E+02  0.17082930845E+02 -0.14550049175E+04  0.14600926731E+04  0.12000000000E+03 0.  0.
<mgrwt>
<rscale>  0 0.27586508E+03</rscale>
<asrwt>0</asrwt>
<pdfrwt beam="1">  1        2 0.30518581E+00 0.27586508E+03</pdfrwt>
<pdfrwt beam="2">  1       -2 0.14755109E-02 0.27586508E+03</pdfrwt>
<totfact> 0.91584944E+03</totfact>
</mgrwt>
</event>
<event>
 5    1  0.1100736E+001  0.2752402E+03  0.7818608E-02  0.1098317E+00
         -2   -1    0    0    0  501 -0.00000000000E+00  0.00000000000E+00  0.22984793997E+02  0.22984793997E+02  0.00000000000E+00 0.  1.
          2   -1    0    0  501    0  0.00000000000E+00 -0.00000000000E+00 -0.82399230016E+03  0.82399230016E+03  0.00000000000E+00 0.  1.
         35    2    1    2    0    0  0.00000000000E+00  0.00000000000E+00 -0.80100750616E+03  0.84697709416E+03  0.27524020981E+03 0.  0.
         25    1    3    3    0    0 -0.31872353706E+02  0.21393918707E+02 -0.57088740080E+03  0.58462464118E+03  0.12000000000E+03 0.  0.
         25    1    3    3    0    0  0.31872353706E+02 -0.21393918707E+02 -0.23012010537E+03  0.26235245298E+03  0.12000000000E+03 0.  0.
<mgrwt>
<rscale>  0 0.27524021E+03</rscale>
<asrwt>0</asrwt>
<pdfrwt beam="1">  1        2 0.12676802E+00 0.27524021E+03</pdfrwt>
<pdfrwt beam="2">  1       -2 0.35361229E-02 0.27524021E+03</pdfrwt>
<totfact> 0.11265286E+04</totfact>
</mgrwt>
</event>
<event>
 5    1  0.1100736E+001  0.2751012E+03  0.7818608E-02  0.1098395E+00
         -2   -1    0    0    0  501 -0.00000000000E+00  0.00000000000E+00  0.11021652858E+03  0.11021652858E+03  0.00000000000E+00 0.  1.
          2   -1    0    0  501    0  0.00000000000E+00 -0.00000000000E+00 -0.17166358789E+03  0.17166358789E+03  0.00000000000E+00 0.  1.
         35    2    1    2    0    0  0.00000000000E+00  0.00000000000E+00 -0.61447059314E+02  0.28188011647E+03  0.27510117950E+03 0.  0.
         25    1    3    3    0    0  0.14592780193E+02 -0.62483841598E+02 -0.10154374450E+02  0.13645618716E+03  0.12000000000E+03 0.  0.
         25    1    3    3    0    0 -0.14592780193E+02  0.62483841598E+02 -0.51292684864E+02  0.14542392931E+03  0.12000000000E+03 0.  0.
<mgrwt>
<rscale>  0 0.27510118E+03</rscale>
<asrwt>0</asrwt>
<pdfrwt beam="1">  1        2 0.26409783E-01 0.27510118E+03</pdfrwt>
<pdfrwt beam="2">  1       -2 0.16956389E-01 0.27510118E+03</pdfrwt>
<totfact> 0.55939045E+03</totfact>
</mgrwt>
</event>
<event>
 5    1  0.1100736E+001  0.2747327E+03  0.7818608E-02  0.1098601E+00
         -2   -1    0    0    0  501 -0.00000000000E+00  0.00000000000E+00  0.43846686075E+02  0.43846686075E+02  0.00000000000E+00 0.  1.
          2   -1    0    0  501    0  0.00000000000E+00 -0.00000000000E+00 -0.43035214076E+03  0.43035214076E+03  0.00000000000E+00 0.  1.
         35    2    1    2    0    0  0.00000000000E+00  0.00000000000E+00 -0.38650545468E+03  0.47419882683E+03  0.27473270805E+03 0.  0.
         25    1    3    3    0    0  0.37032093854E+02 -0.41169255090E+02 -0.12859583926E+03  0.18439949408E+03  0.12000000000E+03 0.  0.
         25    1    3    3    0    0 -0.37032093854E+02  0.41169255090E+02 -0.25790961542E+03  0.28979933276E+03  0.12000000000E+03 0.  0.
<mgrwt>
<rscale>  0 0.27473271E+03</rscale>
<asrwt>0</asrwt>
<pdfrwt beam="1">  1        2 0.66208019E-01 0.27473271E+03</pdfrwt>
<pdfrwt beam="2">  1       -2 0.67456443E-02 0.27473271E+03</pdfrwt>
<totfact> 0.90314879E+03</totfact>
</mgrwt>
</event>
<event>
 5    1  0.1100736E+001  0.2743624E+03  0.7818608E-02  0.1098809E+00
          2   -1    0    0  501    0  0.00000000000E+00  0.00000000000E+00  0.28013307369E+04  0.28013307369E+04  0.00000000000E+00 0.  1.
         -2   -1    0    0    0  501 -0.00000000000E+00 -0.00000000000E+00 -0.67177651198E+01  0.67177651198E+01  0.00000000000E+00 0.  1.
         35    2    1    2    0    0  0.00000000000E+00  0.00000000000E+00  0.27946129718E+04  0.28080485021E+04  0.27436240204E+03 0.  0.
         25    1    3    3    0    0 -0.27997562430E+02  0.55821213765E+02  0.16304290918E+04  0.16360314468E+04  0.12000000000E+03 0.  0.
         25    1    3    3    0    0  0.27997562430E+02 -0.55821213765E+02  0.11641838800E+04  0.11720170552E+04  0.12000000000E+03 0.  0.
<mgrwt>
<rscale>  0 0.27436240E+03</rscale>
<asrwt>0</asrwt>
<pdfrwt beam="1">  1        2 0.43097303E+00 0.27436240E+03</pdfrwt>
<pdfrwt beam="2">  1       -2 0.10335046E-02 0.27436240E+03</pdfrwt>
<totfact> 0.55275979E+03</totfact>
</mgrwt>
</event>
<event>
 5    1  0.1100736E+001  0.2751543E+03  0.7818608E-02  0.1098365E+00
          2   -1    0    0  501    0  0.00000000000E+00  0.00000000000E+00  0.14722677325E+04  0.14722677325E+04  0.00000000000E+00 0.  1.
         -2   -1    0    0    0  501 -0.00000000000E+00 -0.00000000000E+00 -0.12855997005E+02  0.12855997005E+02  0.00000000000E+00 0.  1.
         35    2    1    2    0    0  0.00000000000E+00  0.00000000000E+00  0.14594117355E+04  0.14851237295E+04  0.27515428079E+03 0.  0.
         25    1    3    3    0    0 -0.48988077891E+02 -0.46022663466E+02  0.71302422645E+03  0.72616903324E+03  0.12000000000E+03 0.  0.
         25    1    3    3    0    0  0.48988077891E+02  0.46022663466E+02  0.74638750902E+03  0.75895469624E+03  0.12000000000E+03 0.  0.
<mgrwt>
<rscale>  0 0.27515428E+03</rscale>
<asrwt>0</asrwt>
<pdfrwt beam="1">  1        2 0.22650260E+00 0.27515428E+03</pdfrwt>
<pdfrwt beam="2">  1       -2 0.19778469E-02 0.27515428E+03</pdfrwt>
<totfact> 0.11096284E+04</totfact>
</mgrwt>
</event>
<event>
 5    1  0.1100736E+001  0.2739635E+03  0.7818608E-02  0.1099032E+00
         -1   -1    0    0    0  501 -0.00000000000E+00  0.00000000000E+00  0.56071399479E+02  0.56071399479E+02  0.00000000000E+00 0. -1.
          1   -1    0    0  501    0  0.00000000000E+00 -0.00000000000E+00 -0.33464470491E+03  0.33464470491E+03  0.00000000000E+00 0. -1.
         35    2    1    2    0    0  0.00000000000E+00  0.00000000000E+00 -0.27857330543E+03  0.39071610439E+03  0.27396347883E+03 0.  0.
         25    1    3    3    0    0 -0.12839854758E+02 -0.43975395796E+02 -0.20716503237E+03  0.24375407267E+03  0.12000000000E+03 0.  0.
         25    1    3    3    0    0  0.12839854758E+02  0.43975395796E+02 -0.71408273058E+02  0.14696203172E+03  0.12000000000E+03 0.  0.
<mgrwt>
<rscale>  0 0.27396348E+03</rscale>
<asrwt>0</asrwt>
<pdfrwt beam="1">  1        1 0.51483801E-01 0.27396348E+03</pdfrwt>
<pdfrwt beam="2">  1       -1 0.86263691E-02 0.27396348E+03</pdfrwt>
<totfact> 0.58046271E+03</totfact>
</mgrwt>
</event>
<event>
 5    1  0.1100736E+001  0.2742668E+03  0.7818608E-02  0.1098862E+00
         -2   -1    0    0    0  501 -0.00000000000E+00  0.00000000000E+00  0.83268994532E+02  0.83268994532E+02  0.00000000000E+00 0.  1.
          2   -1    0    0  501    0  0.00000000000E+00 -0.00000000000E+00 -0.22584115767E+03  0.22584115767E+03  0.00000000000E+00 0.  1.
         35    2    1    2    0    0  0.00000000000E+00  0.00000000000E+00 -0.14257216314E+03  0.30911015221E+03  0.27426677614E+03 0.  0.
         25    1    3    3    0    0  0.11966459440E+02  0.63595873012E+02 -0.54647991663E+02  0.14688102059E+03  0.12000000000E+03 0.  0.
         25    1    3    3    0    0 -0.11966459440E+02 -0.63595873012E+02 -0.87924171479E+02  0.16222913162E+03  0.12000000000E+03 0.  0.
<mgrwt>
<rscale>  0 0.27426678E+03</rscale>
<asrwt>0</asrwt>
<pdfrwt beam="1">  1        2 0.34744793E-01 0.27426678E+03</pdfrwt>
<pdfrwt beam="2">  1       -2 0.12810615E-01 0.27426678E+03</pdfrwt>
<totfact> 0.65732976E+03</totfact>
</mgrwt>
</event>
<event>
 5    1  0.1100736E+001  0.2750642E+03  0.7818608E-02  0.1098416E+00
         -2   -1    0    0    0  501 -0.00000000000E+00  0.00000000000E+00  0.40210975509E+02  0.40210975509E+02  0.00000000000E+00 0.  1.
          2   -1    0    0  501    0  0.00000000000E+00 -0.00000000000E+00 -0.47039599293E+03  0.47039599293E+03  0.00000000000E+00 0.  1.
         35    2    1    2    0    0  0.00000000000E+00  0.00000000000E+00 -0.43018501742E+03  0.51060696844E+03  0.27506422342E+03 0.  0.
         25    1    3    3    0    0  0.49782589541E+02  0.32145573844E+02 -0.15628973415E+03  0.20576230253E+03  0.12000000000E+03 0.  0.
         25    1    3    3    0    0 -0.49782589541E+02 -0.32145573844E+02 -0.27389528327E+03  0.30484466591E+03  0.12000000000E+03 0.  0.
<mgrwt>
<rscale>  0 0.27506422E+03</rscale>
<asrwt>0</asrwt>
<pdfrwt beam="1">  1        2 0.72368609E-01 0.27506422E+03</pdfrwt>
<pdfrwt beam="2">  1       -2 0.61863044E-02 0.27506422E+03</pdfrwt>
<totfact> 0.93574942E+03</totfact>
</mgrwt>
</event>
<event>
 5    1  0.1100736E+001  0.2750650E+03  0.7818608E-02  0.1098415E+00
          1   -1    0    0  501    0  0.00000000000E+00  0.00000000000E+00  0.59035082332E+02  0.59035082332E+02  0.00000000000E+00 0.  1.
         -1   -1    0    0    0  501 -0.00000000000E+00 -0.00000000000E+00 -0.32040580565E+03  0.32040580565E+03  0.00000000000E+00 0.  1.
         35    2    1    2    0    0  0.00000000000E+00  0.00000000000E+00 -0.26137072332E+03  0.37944088798E+03  0.27506496044E+03 0.  0.
         25    1    3    3    0    0  0.32022609237E+02  0.46401260458E+02 -0.18111886213E+03  0.22446061279E+03  0.12000000000E+03 0.  0.
         25    1    3    3    0    0 -0.32022609237E+02 -0.46401260458E+02 -0.80251861187E+02  0.15498027519E+03  0.12000000000E+03 0.  0.
<mgrwt>
<rscale>  0 0.27506496E+03</rscale>
<asrwt>0</asrwt>
<pdfrwt beam="1">  1        1 0.90823205E-02 0.27506496E+03</pdfrwt>
<pdfrwt beam="2">  1       -1 0.49293200E-01 0.27506496E+03</pdfrwt>
<totfact> 0.30729224E+03</totfact>
</mgrwt>
</event>
<event>
 5    1  0.1100736E+001  0.2740625E+03  0.7818608E-02  0.1098977E+00
         -1   -1    0    0    0  501 -0.00000000000E+00  0.00000000000E+00  0.99461027887E+02  0.99461027887E+02  0.00000000000E+00 0.  1.
          1   -1    0    0  501    0  0.00000000000E+00 -0.00000000000E+00 -0.18879311567E+03  0.18879311567E+03  0.00000000000E+00 0.  1.
         35    2    1    2    0    0  0.00000000000E+00  0.00000000000E+00 -0.89332087780E+02  0.28825414355E+03  0.27406245523E+03 0.  0.
         25    1    3    3    0    0  0.36246853671E+02 -0.35966860396E+02 -0.88917328651E+02  0.15784087171E+03  0.12000000000E+03 0.  0.
         25    1    3    3    0    0 -0.36246853671E+02  0.35966860396E+02 -0.41475912876E+00  0.13041327184E+03  0.12000000000E+03 0.  0.
<mgrwt>
<rscale>  0 0.27406246E+03</rscale>
<asrwt>0</asrwt>
<pdfrwt beam="1">  1        1 0.29045095E-01 0.27406246E+03</pdfrwt>
<pdfrwt beam="2">  1       -1 0.15301697E-01 0.27406246E+03</pdfrwt>
<totfact> 0.48798941E+03</totfact>
</mgrwt>
</event>
<event>
 5    1  0.1100736E+001  0.2743136E+03  0.7818608E-02  0.1098836E+00
          2   -1    0    0  501    0  0.00000000000E+00  0.00000000000E+00  0.50369670814E+03  0.50369670814E+03  0.00000000000E+00 0. -1.
         -2   -1    0    0    0  501 -0.00000000000E+00 -0.00000000000E+00 -0.37347850506E+02  0.37347850506E+02  0.00000000000E+00 0. -1.
         35    2    1    2    0    0  0.00000000000E+00  0.00000000000E+00  0.46634885763E+03  0.54104455864E+03  0.27431361144E+03 0.  0.
         25    1    3    3    0    0 -0.45704747283E+01  0.47266389884E+02  0.32477740645E+03  0.34947870407E+03  0.12000000000E+03 0.  0.
         25    1    3    3    0    0  0.45704747283E+01 -0.47266389884E+02  0.14157145118E+03  0.19156585458E+03  0.12000000000E+03 0.  0.
<mgrwt>
<rscale>  0 0.27431361E+03</rscale>
<asrwt>0</asrwt>
<pdfrwt beam="1">  1        2 0.77491796E-01 0.27431361E+03</pdfrwt>
<pdfrwt beam="2">  1       -2 0.57458235E-02 0.27431361E+03</pdfrwt>
<totfact> 0.97100418E+03</totfact>
</mgrwt>
</event>
<event>
 5    1  0.1100736E+001  0.2760266E+03  0.7818608E-02  0.1097879E+00
         -2   -1    0    0    0  501 -0.00000000000E+00  0.00000000000E+00  0.73642237044E+02  0.73642237044E+02  0.00000000000E+00 0. -1.
          2   -1    0    0  501    0  0.00000000000E+00 -0.00000000000E+00 -0.25865144647E+03  0.25865144647E+03  0.00000000000E+00 0. -1.
         35    2    1    2    0    0  0.00000000000E+00  0.00000000000E+00 -0.18500920942E+03  0.33229368351E+03  0.27602660113E+03 0.  0.
         25    1    3    3    0    0  0.36195138701E+02 -0.28998290702E+02 -0.15265697995E+03  0.19963752768E+03  0.12000000000E+03 0.  0.
         25    1    3    3    0    0 -0.36195138701E+02  0.28998290702E+02 -0.32352229474E+02  0.13265615584E+03  0.12000000000E+03 0.  0.
<mgrwt>
<rscale>  0 0.27602660E+03</rscale>
<asrwt>0</asrwt>
<pdfrwt beam="1">  1        2 0.39792530E-01 0.27602660E+03</pdfrwt>
<pdfrwt beam="2">  1       -2 0.11329575E-01 0.27602660E+03</pdfrwt>
<totfact> 0.69231961E+03</totfact>
</mgrwt>
</event>
<event>
 5    1  0.1100736E+001  0.2743404E+03  0.7818608E-02  0.1098821E+00
         -2   -1    0    0    0  501 -0.00000000000E+00  0.00000000000E+00  0.54289062246E+02  0.54289062246E+02  0.00000000000E+00 0.  1.
          2   -1    0    0  501    0  0.00000000000E+00 -0.00000000000E+00 -0.34658297976E+03  0.34658297976E+03  0.00000000000E+00 0.  1.
         35    2    1    2    0    0  0.00000000000E+00  0.00000000000E+00 -0.29229391751E+03  0.40087204201E+03  0.27434040870E+03 0.  0.
         25    1    3    3    0    0  0.10853313752E+02  0.57007771525E+02 -0.98843442744E+02  0.16594489027E+03  0.12000000000E+03 0.  0.
         25    1    3    3    0    0 -0.10853313752E+02 -0.57007771525E+02 -0.19345047477E+03  0.23492715174E+03  0.12000000000E+03 0.  0.
<mgrwt>
<rscale>  0 0.27434041E+03</rscale>
<asrwt>0</asrwt>
<pdfrwt beam="1">  1        2 0.53320458E-01 0.27434041E+03</pdfrwt>
<pdfrwt beam="2">  1       -2 0.83521634E-02 0.27434041E+03</pdfrwt>
<totfact> 0.81927920E+03</totfact>
</mgrwt>
</event>
<event>
 5    1  0.1100736E+001  0.2747720E+03  0.7818608E-02  0.1098579E+00
         -1   -1    0    0    0  501 -0.00000000000E+00  0.00000000000E+00  0.12448065676E+02  0.12448065676E+02  0.00000000000E+00 0.  1.
          1   -1    0    0  501    0  0.00000000000E+00 -0.00000000000E+00 -0.15162931065E+04  0.15162931065E+04  0.00000000000E+00 0.  1.
         35    2    1    2    0    0  0.00000000000E+00  0.00000000000E+00 -0.15038450409E+04  0.15287411722E+04  0.27477202313E+03 0.  0.
         25    1    3    3    0    0 -0.61883614315E+02 -0.87635898641E+01 -0.88458241597E+03  0.89487006480E+03  0.12000000000E+03 0.  0.
         25    1    3    3    0    0  0.61883614315E+02  0.87635898641E+01 -0.61926262489E+03  0.63387110741E+03  0.12000000000E+03 0.  0.
<mgrwt>
<rscale>  0 0.27477202E+03</rscale>
<asrwt>0</asrwt>
<pdfrwt beam="1">  1        1 0.23327574E+00 0.27477202E+03</pdfrwt>
<pdfrwt beam="2">  1       -1 0.19150881E-02 0.27477202E+03</pdfrwt>
<totfact> 0.51003262E+03</totfact>
</mgrwt>
</event>
<event>
 5    1  0.1100736E+001  0.2749447E+03  0.7818608E-02  0.1098483E+00
          2   -1    0    0  501    0  0.00000000000E+00  0.00000000000E+00  0.33168936577E+03  0.33168936577E+03  0.00000000000E+00 0. -1.
         -2   -1    0    0    0  501 -0.00000000000E+00 -0.00000000000E+00 -0.56976937118E+02  0.56976937118E+02  0.00000000000E+00 0. -1.
         35    2    1    2    0    0  0.00000000000E+00  0.00000000000E+00  0.27471242866E+03  0.38866630289E+03  0.27494467906E+03 0.  0.
         25    1    3    3    0    0  0.30742960439E+02  0.52865272259E+02  0.17629557301E+03  0.22185579932E+03  0.12000000000E+03 0.  0.
         25    1    3    3    0    0 -0.30742960439E+02 -0.52865272259E+02  0.98416855643E+02  0.16681050357E+03  0.12000000000E+03 0.  0.
<mgrwt>
<rscale>  0 0.27494468E+03</rscale>
<asrwt>0</asrwt>
<pdfrwt beam="1">  1        2 0.51029132E-01 0.27494468E+03</pdfrwt>
<pdfrwt beam="2">  1       -2 0.87656828E-02 0.27494468E+03</pdfrwt>
<totfact> 0.79632158E+03</totfact>
</mgrwt>
</event>
<event>
 5    1  0.1100736E+001  0.2725957E+03  0.7818608E-02  0.1099803E+00
         -2   -1    0    0    0  501 -0.00000000000E+00  0.00000000000E+00  0.17724526483E+02  0.17724526483E+02  0.00000000000E+00 0. -1.
          2   -1    0    0  501    0  0.00000000000E+00 -0.00000000000E+00 -0.10481015326E+04  0.10481015326E+04  0.00000000000E+00 0. -1.
         35    2    1    2    0    0  0.00000000000E+00  0.00000000000E+00 -0.10303770061E+04  0.10658260591E+04  0.27259569602E+03 0.  0.
         25    1    3    3    0    0 -0.10526695008E+02 -0.34294892711E+02 -0.72538608308E+03  0.73611950151E+03  0.12000000000E+03 0.  0.
         25    1    3    3    0    0  0.10526695008E+02  0.34294892711E+02 -0.30499092305E+03  0.32970655759E+03  0.12000000000E+03 0.  0.
<mgrwt>
<rscale>  0 0.27259570E+03</rscale>
<asrwt>0</asrwt>
<pdfrwt beam="1">  1        2 0.16124646E+00 0.27259570E+03</pdfrwt>
<pdfrwt beam="2">  1       -2 0.27268490E-02 0.27259570E+03</pdfrwt>
<totfact> 0.11953462E+04</totfact>
</mgrwt>
</event>
<event>
 5    1  0.1100736E+001  0.2746955E+03  0.7818608E-02  0.1098622E+00
          2   -1    0    0  501    0  0.00000000000E+00  0.00000000000E+00  0.52893180826E+03  0.52893180826E+03  0.00000000000E+00 0.  1.
         -2   -1    0    0    0  501 -0.00000000000E+00 -0.00000000000E+00 -0.35665095616E+02  0.35665095616E+02  0.00000000000E+00 0.  1.
         35    2    1    2    0    0  0.00000000000E+00  0.00000000000E+00  0.49326671264E+03  0.56459690388E+03  0.27469549335E+03 0.  0.
         25    1    3    3    0    0 -0.65241630969E+01 -0.23093975213E+02  0.37480100209E+03  0.39427362017E+03  0.12000000000E+03 0.  0.
         25    1    3    3    0    0  0.65241630969E+01  0.23093975213E+02  0.11846571056E+03  0.17032328371E+03  0.12000000000E+03 0.  0.
<mgrwt>
<rscale>  0 0.27469549E+03</rscale>
<asrwt>0</asrwt>
<pdfrwt beam="1">  1        2 0.81374118E-01 0.27469549E+03</pdfrwt>
<pdfrwt beam="2">  1       -2 0.54869382E-02 0.27469549E+03</pdfrwt>
<totfact> 0.98619498E+03</totfact>
</mgrwt>
</event>
<event>
 5    1  0.1100736E+001  0.2752274E+03  0.7818608E-02  0.1098325E+00
         -1   -1    0    0    0  501 -0.00000000000E+00  0.00000000000E+00  0.15019302501E+04  0.15019302501E+04  0.00000000000E+00 0. -1.
          1   -1    0    0  501    0  0.00000000000E+00 -0.00000000000E+00 -0.12608793168E+02  0.12608793168E+02  0.00000000000E+00 0. -1.
         35    2    1    2    0    0  0.00000000000E+00  0.00000000000E+00  0.14893214569E+04  0.15145390432E+04  0.27522738145E+03 0.  0.
         25    1    3    3    0    0  0.29309608915E+02 -0.52601821807E+02  0.91080013748E+03  0.92064265340E+03  0.12000000000E+03 0.  0.
         25    1    3    3    0    0 -0.29309608915E+02  0.52601821807E+02  0.57852131942E+03  0.59389638983E+03  0.12000000000E+03 0.  0.
<mgrwt>
<rscale>  0 0.27522738E+03</rscale>
<asrwt>0</asrwt>
<pdfrwt beam="1">  1        1 0.19398155E-02 0.27522738E+03</pdfrwt>
<pdfrwt beam="2">  1       -1 0.23106605E+00 0.27522738E+03</pdfrwt>
<totfact> 0.66108693E+02</totfact>
</mgrwt>
</event>
<event>
 5    1  0.1100736E+001  0.2748932E+03  0.7818608E-02  0.1098511E+00
          2   -1    0    0  501    0  0.00000000000E+00  0.00000000000E+00  0.68981164010E+03  0.68981164010E+03  0.00000000000E+00 0.  1.
         -2   -1    0    0    0  501 -0.00000000000E+00 -0.00000000000E+00 -0.27386551093E+02  0.27386551093E+02  0.00000000000E+00 0.  1.
         35    2    1    2    0    0  0.00000000000E+00  0.00000000000E+00  0.66242508900E+03  0.71719819119E+03  0.27489315543E+03 0.  0.
         25    1    3    3    0    0 -0.21997254570E+02  0.52656585121E+02  0.23952657994E+03  0.27391527461E+03  0.12000000000E+03 0.  0.
         25    1    3    3    0    0  0.21997254570E+02 -0.52656585121E+02  0.42289850906E+03  0.44328291658E+03  0.12000000000E+03 0.  0.
<mgrwt>
<rscale>  0 0.27489316E+03</rscale>
<asrwt>0</asrwt>
<pdfrwt beam="1">  1        2 0.10612485E+00 0.27489316E+03</pdfrwt>
<pdfrwt beam="2">  1       -2 0.42133161E-02 0.27489316E+03</pdfrwt>
<totfact> 0.10803977E+04</totfact>
</mgrwt>
</event>
<event>
 5    1  0.1100736E+001  0.2867282E+03  0.7818608E-02  0.1092070E+00
          2   -1    0    0  501    0  0.00000000000E+00  0.00000000000E+00  0.26040457187E+04  0.26040457187E+04  0.00000000000E+00 0.  1.
         -2   -1    0    0    0  501 -0.00000000000E+00 -0.00000000000E+00 -0.78928206465E+01  0.78928206465E+01  0.00000000000E+00 0.  1.
         35    2    1    2    0    0  0.00000000000E+00  0.00000000000E+00  0.25961528981E+04  0.26119385394E+04  0.28672820449E+03 0.  0.
         25    1    3    3    0    0 -0.46107519443E+02  0.35504461632E+02  0.81891586911E+03  0.82970456840E+03  0.12000000000E+03 0.  0.
         25    1    3    3    0    0  0.46107519443E+02 -0.35504461632E+02  0.17772370290E+04  0.17822339710E+04  0.12000000000E+03 0.  0.
<mgrwt>
<rscale>  0 0.28672820E+03</rscale>
<asrwt>0</asrwt>
<pdfrwt beam="1">  1        2 0.40062173E+00 0.28672820E+03</pdfrwt>
<pdfrwt beam="2">  1       -2 0.12142822E-02 0.28672820E+03</pdfrwt>
<totfact> 0.56447776E+03</totfact>
</mgrwt>
</event>
<event>
 5    1  0.1100736E+001  0.2761701E+03  0.7818608E-02  0.1097799E+00
          1   -1    0    0  501    0  0.00000000000E+00  0.00000000000E+00  0.16708551707E+02  0.16708551707E+02  0.00000000000E+00 0.  1.
         -1   -1    0    0    0  501 -0.00000000000E+00 -0.00000000000E+00 -0.11411805643E+04  0.11411805643E+04  0.00000000000E+00 0.  1.
         35    2    1    2    0    0  0.00000000000E+00  0.00000000000E+00 -0.11244720126E+04  0.11578891160E+04  0.27617005243E+03 0.  0.
         25    1    3    3    0    0 -0.19451448240E+00 -0.63487825203E+02 -0.66803193606E+03  0.68168717853E+03  0.12000000000E+03 0.  0.
         25    1    3    3    0    0  0.19451448240E+00  0.63487825203E+02 -0.45644007654E+03  0.47620193748E+03  0.12000000000E+03 0.  0.
<mgrwt>
<rscale>  0 0.27617005E+03</rscale>
<asrwt>0</asrwt>
<pdfrwt beam="1">  1        1 0.25705457E-02 0.27617005E+03</pdfrwt>
<pdfrwt beam="2">  1       -1 0.17556629E+00 0.27617005E+03</pdfrwt>
<totfact> 0.10416123E+03</totfact>
</mgrwt>
</event>
<event>
 5    1  0.1100736E+001  0.2756576E+03  0.7818608E-02  0.1098085E+00
         -2   -1    0    0    0  501 -0.00000000000E+00  0.00000000000E+00  0.11446724805E+03  0.11446724805E+03  0.00000000000E+00 0.  1.
          2   -1    0    0  501    0  0.00000000000E+00 -0.00000000000E+00 -0.16595820342E+03  0.16595820342E+03  0.00000000000E+00 0.  1.
         35    2    1    2    0    0  0.00000000000E+00  0.00000000000E+00 -0.51490955368E+02  0.28042545146E+03  0.27565760527E+03 0.  0.
         25    1    3    3    0    0  0.37770540836E+02  0.38435283428E+02 -0.67601922769E+02  0.14789829184E+03  0.12000000000E+03 0.  0.
         25    1    3    3    0    0 -0.37770540836E+02 -0.38435283428E+02  0.16110967401E+02  0.13252715962E+03  0.12000000000E+03 0.  0.
<mgrwt>
<rscale>  0 0.27565761E+03</rscale>
<asrwt>0</asrwt>
<pdfrwt beam="1">  1        2 0.25532031E-01 0.27565761E+03</pdfrwt>
<pdfrwt beam="2">  1       -2 0.17610346E-01 0.27565761E+03</pdfrwt>
<totfact> 0.54512719E+03</totfact>
</mgrwt>
</event>
<event>
 5    1  0.1100736E+001  0.2751899E+03  0.7818608E-02  0.1098345E+00
          2   -1    0    0  501    0  0.00000000000E+00  0.00000000000E+00  0.19505336627E+03  0.19505336627E+03  0.00000000000E+00 0.  1.
         -2   -1    0    0    0  501 -0.00000000000E+00 -0.00000000000E+00 -0.97062523276E+02  0.97062523276E+02  0.00000000000E+00 0.  1.
         35    2    1    2    0    0  0.00000000000E+00  0.00000000000E+00  0.97990842998E+02  0.29211588955E+03  0.27518991191E+03 0.  0.
         25    1    3    3    0    0 -0.11679209053E+02  0.63175768809E+02  0.27638548026E+02  0.13889374005E+03  0.12000000000E+03 0.  0.
         25    1    3    3    0    0  0.11679209053E+02 -0.63175768809E+02  0.70352294972E+02  0.15322214950E+03  0.12000000000E+03 0.  0.
<mgrwt>
<rscale>  0 0.27518991E+03</rscale>
<asrwt>0</asrwt>
<pdfrwt beam="1">  1        2 0.30008210E-01 0.27518991E+03</pdfrwt>
<pdfrwt beam="2">  1       -2 0.14932696E-01 0.27518991E+03</pdfrwt>
<totfact> 0.60016352E+03</totfact>
</mgrwt>
</event>
<event>
 5    1  0.1100736E+001  0.2749486E+03  0.7818608E-02  0.1098480E+00
          3   -1    0    0  501    0  0.00000000000E+00  0.00000000000E+00  0.69159271393E+03  0.69159271393E+03  0.00000000000E+00 0.  1.
         -3   -1    0    0    0  501 -0.00000000000E+00 -0.00000000000E+00 -0.27327051555E+02  0.27327051555E+02  0.00000000000E+00 0.  1.
         35    2    1    2    0    0  0.00000000000E+00  0.00000000000E+00  0.66426566237E+03  0.71891976548E+03  0.27494864792E+03 0.  0.
         25    1    3    3    0    0  0.60613600458E+02 -0.26155116752E+02  0.36319119532E+03  0.38815711130E+03  0.12000000000E+03 0.  0.
         25    1    3    3    0    0 -0.60613600458E+02  0.26155116752E+02  0.30107446705E+03  0.33076265418E+03  0.12000000000E+03 0.  0.
<mgrwt>
<rscale>  0 0.27494865E+03</rscale>
<asrwt>0</asrwt>
<pdfrwt beam="1">  1        3 0.10639887E+00 0.27494865E+03</pdfrwt>
<pdfrwt beam="2">  1       -3 0.42041623E-02 0.27494865E+03</pdfrwt>
<totfact> 0.59853722E+02</totfact>
</mgrwt>
</event>
<event>
 5    1  0.1100736E+001  0.2746595E+03  0.7818608E-02  0.1098642E+00
          3   -1    0    0  501    0  0.00000000000E+00  0.00000000000E+00  0.91534357919E+02  0.91534357919E+02  0.00000000000E+00 0.  1.
         -3   -1    0    0    0  501 -0.00000000000E+00 -0.00000000000E+00 -0.20603689392E+03  0.20603689392E+03  0.00000000000E+00 0.  1.
         35    2    1    2    0    0  0.00000000000E+00  0.00000000000E+00 -0.11450253600E+03  0.29757125184E+03  0.27465946037E+03 0.  0.
         25    1    3    3    0    0  0.19141669628E+02  0.58555433926E+02 -0.29326948383E+02  0.13804061815E+03  0.12000000000E+03 0.  0.
         25    1    3    3    0    0 -0.19141669628E+02 -0.58555433926E+02 -0.85175587618E+02  0.15953063369E+03  0.12000000000E+03 0.  0.
<mgrwt>
<rscale>  0 0.27465946E+03</rscale>
<asrwt>0</asrwt>
<pdfrwt beam="1">  1        3 0.14082209E-01 0.27465946E+03</pdfrwt>
<pdfrwt beam="2">  1       -3 0.31697984E-01 0.27465946E+03</pdfrwt>
<totfact> 0.10189084E+03</totfact>
</mgrwt>
</event>
<event>
 5    1  0.1100736E+001  0.2757692E+03  0.7818608E-02  0.1098022E+00
         -2   -1    0    0    0  501 -0.00000000000E+00  0.00000000000E+00  0.12036261545E+03  0.12036261545E+03  0.00000000000E+00 0.  1.
          2   -1    0    0  501    0  0.00000000000E+00 -0.00000000000E+00 -0.15795742576E+03  0.15795742576E+03  0.00000000000E+00 0.  1.
         35    2    1    2    0    0  0.00000000000E+00  0.00000000000E+00 -0.37594810312E+02  0.27832004121E+03  0.27576924335E+03 0.  0.
         25    1    3    3    0    0  0.50998507474E+02  0.37030674457E+02 -0.44330631678E+02  0.14260898822E+03  0.12000000000E+03 0.  0.
         25    1    3    3    0    0 -0.50998507474E+02 -0.37030674457E+02  0.67358213658E+01  0.13571105299E+03  0.12000000000E+03 0.  0.
<mgrwt>
<rscale>  0 0.27576924E+03</rscale>
<asrwt>0</asrwt>
<pdfrwt beam="1">  1        2 0.24301142E-01 0.27576924E+03</pdfrwt>
<pdfrwt beam="2">  1       -2 0.18517325E-01 0.27576924E+03</pdfrwt>
<totfact> 0.52927652E+03</totfact>
</mgrwt>
</event>
<event>
 5    1  0.1100736E+001  0.2756304E+03  0.7818608E-02  0.1098100E+00
         -2   -1    0    0    0  501 -0.00000000000E+00  0.00000000000E+00  0.15068816908E+02  0.15068816908E+02  0.00000000000E+00 0.  1.
          2   -1    0    0  501    0  0.00000000000E+00 -0.00000000000E+00 -0.12604191809E+04  0.12604191809E+04  0.00000000000E+00 0.  1.
         35    2    1    2    0    0  0.00000000000E+00  0.00000000000E+00 -0.12453503640E+04  0.12754879978E+04  0.27563037470E+03 0.  0.
         25    1    3    3    0    0  0.86629168423E+00 -0.61434026804E+02 -0.49031358850E+03  0.50850988700E+03  0.12000000000E+03 0.  0.
         25    1    3    3    0    0 -0.86629168423E+00  0.61434026804E+02 -0.75503677548E+03  0.76697811080E+03  0.12000000000E+03 0.  0.
<mgrwt>
<rscale>  0 0.27563037E+03</rscale>
<asrwt>0</asrwt>
<pdfrwt beam="1">  1        2 0.19391072E+00 0.27563037E+03</pdfrwt>
<pdfrwt beam="2">  1       -2 0.23182785E-02 0.27563037E+03</pdfrwt>
<totfact> 0.11465832E+04</totfact>
</mgrwt>
</event>
<event>
 5    1  0.1100736E+001  0.2750434E+03  0.7818608E-02  0.1098427E+00
         -4   -1    0    0    0  501 -0.00000000000E+00  0.00000000000E+00  0.53934964001E+03  0.53934964001E+03  0.00000000000E+00 0.  1.
          4   -1    0    0  501    0  0.00000000000E+00 -0.00000000000E+00 -0.35064861414E+02  0.35064861414E+02  0.00000000000E+00 0.  1.
         35    2    1    2    0    0  0.00000000000E+00  0.00000000000E+00  0.50428477860E+03  0.57441450143E+03  0.27504341752E+03 0.  0.
         25    1    3    3    0    0 -0.57422838638E+02  0.32628710093E+02  0.22654670695E+03  0.26473652099E+03  0.12000000000E+03 0.  0.
         25    1    3    3    0    0  0.57422838638E+02 -0.32628710093E+02  0.27773807165E+03  0.30967798043E+03  0.12000000000E+03 0.  0.
<mgrwt>
<rscale>  0 0.27504342E+03</rscale>
<asrwt>0</asrwt>
<pdfrwt beam="1">  1        4 0.53945945E-02 0.27504342E+03</pdfrwt>
<pdfrwt beam="2">  1       -4 0.82976862E-01 0.27504342E+03</pdfrwt>
<totfact> 0.51766167E+02</totfact>
</mgrwt>
</event>
<event>
 5    1  0.1100736E+001  0.2741071E+03  0.7818608E-02  0.1098952E+00
          2   -1    0    0  501    0  0.00000000000E+00  0.00000000000E+00  0.26207068868E+02  0.26207068868E+02  0.00000000000E+00 0. -1.
         -2   -1    0    0    0  501 -0.00000000000E+00 -0.00000000000E+00 -0.71674083711E+03  0.71674083711E+03  0.00000000000E+00 0. -1.
         35    2    1    2    0    0  0.00000000000E+00  0.00000000000E+00 -0.69053376824E+03  0.74294790597E+03  0.27410710665E+03 0.  0.
         25    1    3    3    0    0 -0.54207726784E+02  0.20034361656E+02 -0.25769765275E+03  0.29008263223E+03  0.12000000000E+03 0.  0.
         25    1    3    3    0    0  0.54207726784E+02 -0.20034361656E+02 -0.43283611549E+03  0.45286527374E+03  0.12000000000E+03 0.  0.
<mgrwt>
<rscale>  0 0.27410711E+03</rscale>
<asrwt>0</asrwt>
<pdfrwt beam="1">  1        2 0.40318568E-02 0.27410711E+03</pdfrwt>
<pdfrwt beam="2">  1       -2 0.11026782E+00 0.27410711E+03</pdfrwt>
<totfact> 0.14266860E+03</totfact>
</mgrwt>
</event>
<event>
 5    1  0.1100736E+001  0.2730796E+03  0.7818608E-02  0.1099530E+00
         -3   -1    0    0    0  501 -0.00000000000E+00  0.00000000000E+00  0.20223095967E+02  0.20223095967E+02  0.00000000000E+00 0.  1.
          3   -1    0    0  501    0  0.00000000000E+00 -0.00000000000E+00 -0.92187244011E+03  0.92187244011E+03  0.00000000000E+00 0.  1.
         35    2    1    2    0    0  0.00000000000E+00  0.00000000000E+00 -0.90164934414E+03  0.94209553608E+03  0.27307958419E+03 0.  0.
         25    1    3    3    0    0 -0.35131928592E+01  0.47656152162E+02 -0.29810448027E+03  0.32488418324E+03  0.12000000000E+03 0.  0.
         25    1    3    3    0    0  0.35131928592E+01 -0.47656152162E+02 -0.60354486387E+03  0.61721135284E+03  0.12000000000E+03 0.  0.
<mgrwt>
<rscale>  0 0.27307958E+03</rscale>
<asrwt>0</asrwt>
<pdfrwt beam="1">  1        3 0.14182651E+00 0.27307958E+03</pdfrwt>
<pdfrwt beam="2">  1       -3 0.31112460E-02 0.27307958E+03</pdfrwt>
<totfact> 0.48180839E+02</totfact>
</mgrwt>
</event>
<event>
 5    1  0.1100736E+001  0.2740924E+03  0.7818608E-02  0.1098960E+00
         -2   -1    0    0    0  501 -0.00000000000E+00  0.00000000000E+00  0.20383467837E+03  0.20383467837E+03  0.00000000000E+00 0. -1.
          2   -1    0    0  501    0  0.00000000000E+00 -0.00000000000E+00 -0.92141613877E+02  0.92141613877E+02  0.00000000000E+00 0. -1.
         35    2    1    2    0    0  0.00000000000E+00  0.00000000000E+00  0.11169306449E+03  0.29597629224E+03  0.27409236566E+03 0.  0.
         25    1    3    3    0    0  0.37891686552E+02 -0.12979207157E+02 -0.10624071515E+01  0.12651232524E+03  0.12000000000E+03 0.  0.
         25    1    3    3    0    0 -0.37891686552E+02  0.12979207157E+02  0.11275547164E+03  0.16946396701E+03  0.12000000000E+03 0.  0.
<mgrwt>
<rscale>  0 0.27409237E+03</rscale>
<asrwt>0</asrwt>
<pdfrwt beam="1">  1        2 0.14175633E-01 0.27409237E+03</pdfrwt>
<pdfrwt beam="2">  1       -2 0.31359181E-01 0.27409237E+03</pdfrwt>
<totfact> 0.39097626E+03</totfact>
</mgrwt>
</event>
<event>
 5    1  0.1100736E+001  0.2773300E+03  0.7818608E-02  0.1097156E+00
          2   -1    0    0  501    0  0.00000000000E+00  0.00000000000E+00  0.71749080996E+03  0.71749080996E+03  0.00000000000E+00 0. -1.
         -2   -1    0    0    0  501 -0.00000000000E+00 -0.00000000000E+00 -0.26798931806E+02  0.26798931806E+02  0.00000000000E+00 0. -1.
         35    2    1    2    0    0  0.00000000000E+00  0.00000000000E+00  0.69069187815E+03  0.74428974176E+03  0.27733003651E+03 0.  0.
         25    1    3    3    0    0 -0.39090843538E+02 -0.41134608615E+02  0.45295929191E+03  0.47200876072E+03  0.12000000000E+03 0.  0.
         25    1    3    3    0    0  0.39090843538E+02  0.41134608615E+02  0.23773258624E+03  0.27228098104E+03  0.12000000000E+03 0.  0.
<mgrwt>
<rscale>  0 0.27733004E+03</rscale>
<asrwt>0</asrwt>
<pdfrwt beam="1">  1        2 0.11038319E+00 0.27733004E+03</pdfrwt>
<pdfrwt beam="2">  1       -2 0.41229131E-02 0.27733004E+03</pdfrwt>
<totfact> 0.10645001E+04</totfact>
</mgrwt>
</event>
<event>
 5    1  0.1100736E+001  0.2704869E+03  0.7818608E-02  0.1101001E+00
          1   -1    0    0  501    0  0.00000000000E+00  0.00000000000E+00  0.12912572084E+04  0.12912572084E+04  0.00000000000E+00 0. -1.
         -1   -1    0    0    0  501 -0.00000000000E+00 -0.00000000000E+00 -0.14165104869E+02  0.14165104869E+02  0.00000000000E+00 0. -1.
         35    2    1    2    0    0  0.00000000000E+00  0.00000000000E+00  0.12770921035E+04  0.13054223132E+04  0.27048692219E+03 0.  0.
         25    1    3    3    0    0 -0.47487121132E+02 -0.40349384316E+02  0.65193322188E+03  0.66580779906E+03  0.12000000000E+03 0.  0.
         25    1    3    3    0    0  0.47487121132E+02  0.40349384316E+02  0.62515888161E+03  0.63961451417E+03  0.12000000000E+03 0.  0.
<mgrwt>
<rscale>  0 0.27048692E+03</rscale>
<asrwt>0</asrwt>
<pdfrwt beam="1">  1        1 0.19865486E+00 0.27048692E+03</pdfrwt>
<pdfrwt beam="2">  1       -1 0.21792479E-02 0.27048692E+03</pdfrwt>
<totfact> 0.59789923E+03</totfact>
</mgrwt>
</event>
<event>
 5    1  0.1100736E+001  0.2771207E+03  0.7818608E-02  0.1097272E+00
          2   -1    0    0  501    0  0.00000000000E+00  0.00000000000E+00  0.17075260419E+04  0.17075260419E+04  0.00000000000E+00 0.  1.
         -2   -1    0    0    0  501 -0.00000000000E+00 -0.00000000000E+00 -0.11243734646E+02  0.11243734646E+02  0.00000000000E+00 0.  1.
         35    2    1    2    0    0  0.00000000000E+00  0.00000000000E+00  0.16962823073E+04  0.17187697766E+04  0.27712069368E+03 0.  0.
         25    1    3    3    0    0  0.23064427293E+02 -0.58598320470E+02  0.10271743147E+04  0.10360756747E+04  0.12000000000E+03 0.  0.
         25    1    3    3    0    0 -0.23064427293E+02  0.58598320470E+02  0.66910799255E+03  0.68269410183E+03  0.12000000000E+03 0.  0.
<mgrwt>
<rscale>  0 0.27712069E+03</rscale>
<asrwt>0</asrwt>
<pdfrwt beam="1">  1        2 0.26269611E+00 0.27712069E+03</pdfrwt>
<pdfrwt beam="2">  1       -2 0.17298067E-02 0.27712069E+03</pdfrwt>
<totfact> 0.10134507E+04</totfact>
</mgrwt>
</event>
<event>
 5    1  0.1100736E+001  0.2727970E+03  0.7818608E-02  0.1099689E+00
         -2   -1    0    0    0  501 -0.00000000000E+00  0.00000000000E+00  0.14152715744E+02  0.14152715744E+02  0.00000000000E+00 0.  1.
          2   -1    0    0  501    0  0.00000000000E+00 -0.00000000000E+00 -0.13145568749E+04  0.13145568749E+04  0.00000000000E+00 0.  1.
         35    2    1    2    0    0  0.00000000000E+00  0.00000000000E+00 -0.13004041591E+04  0.13287095906E+04  0.27279699250E+03 0.  0.
         25    1    3    3    0    0  0.43926719142E+02 -0.47626481948E+02 -0.66282021505E+03  0.67670412731E+03  0.12000000000E+03 0.  0.
         25    1    3    3    0    0 -0.43926719142E+02  0.47626481948E+02 -0.63758394408E+03  0.65200546331E+03  0.12000000000E+03 0.  0.
<mgrwt>
<rscale>  0 0.27279699E+03</rscale>
<asrwt>0</asrwt>
<pdfrwt beam="1">  1        2 0.20223955E+00 0.27279699E+03</pdfrwt>
<pdfrwt beam="2">  1       -2 0.21773405E-02 0.27279699E+03</pdfrwt>
<totfact> 0.11733156E+04</totfact>
</mgrwt>
</event>
<event>
 5    1  0.1100736E+001  0.2744242E+03  0.7818608E-02  0.1098774E+00
          1   -1    0    0  501    0  0.00000000000E+00  0.00000000000E+00  0.11742697710E+03  0.11742697710E+03  0.00000000000E+00 0.  1.
         -1   -1    0    0    0  501 -0.00000000000E+00 -0.00000000000E+00 -0.16033077416E+03  0.16033077416E+03  0.00000000000E+00 0.  1.
         35    2    1    2    0    0  0.00000000000E+00  0.00000000000E+00 -0.42903797066E+02  0.27775775126E+03  0.27442418367E+03 0.  0.
         25    1    3    3    0    0 -0.34996140907E+02  0.98371625854E+01  0.34953497881E+02  0.13016622703E+03  0.12000000000E+03 0.  0.
         25    1    3    3    0    0  0.34996140907E+02 -0.98371625854E+01 -0.77857294947E+02  0.14759152422E+03  0.12000000000E+03 0.  0.
<mgrwt>
<rscale>  0 0.27442418E+03</rscale>
<asrwt>0</asrwt>
<pdfrwt beam="1">  1        1 0.18065689E-01 0.27442418E+03</pdfrwt>
<pdfrwt beam="2">  1       -1 0.24666273E-01 0.27442418E+03</pdfrwt>
<totfact> 0.41282486E+03</totfact>
</mgrwt>
</event>
<event>
 5    1  0.1100736E+001  0.2746374E+03  0.7818608E-02  0.1098654E+00
         -2   -1    0    0    0  501 -0.00000000000E+00  0.00000000000E+00  0.17545440357E+02  0.17545440357E+02  0.00000000000E+00 0. -1.
          2   -1    0    0  501    0  0.00000000000E+00 -0.00000000000E+00 -0.10747192818E+04  0.10747192818E+04  0.00000000000E+00 0. -1.
         35    2    1    2    0    0  0.00000000000E+00  0.00000000000E+00 -0.10571738414E+04  0.10922647221E+04  0.27463738317E+03 0.  0.
         25    1    3    3    0    0  0.71697782977E+01  0.62755110121E+02 -0.61451595961E+03  0.62930078196E+03  0.12000000000E+03 0.  0.
         25    1    3    3    0    0 -0.71697782977E+01 -0.62755110121E+02 -0.44265788179E+03  0.46296394015E+03  0.12000000000E+03 0.  0.
<mgrwt>
<rscale>  0 0.27463738E+03</rscale>
<asrwt>0</asrwt>
<pdfrwt beam="1">  1        2 0.16534148E+00 0.27463738E+03</pdfrwt>
<pdfrwt beam="2">  1       -2 0.26992976E-02 0.27463738E+03</pdfrwt>
<totfact> 0.11702164E+04</totfact>
</mgrwt>
</event>
<event>
 5    1  0.1100736E+001  0.2756946E+03  0.7818608E-02  0.1098064E+00
          2   -1    0    0  501    0  0.00000000000E+00  0.00000000000E+00  0.97647479785E+03  0.97647479785E+03  0.00000000000E+00 0.  1.
         -2   -1    0    0    0  501 -0.00000000000E+00 -0.00000000000E+00 -0.19459668912E+02  0.19459668912E+02  0.00000000000E+00 0.  1.
         35    2    1    2    0    0  0.00000000000E+00  0.00000000000E+00  0.95701512894E+03  0.99593446676E+03  0.27569458658E+03 0.  0.
         25    1    3    3    0    0 -0.33042055661E+02 -0.30556991920E+02  0.29514673614E+03  0.32177181830E+03  0.12000000000E+03 0.  0.
         25    1    3    3    0    0  0.33042055661E+02  0.30556991920E+02  0.66186839280E+03  0.67416264846E+03  0.12000000000E+03 0.  0.
<mgrwt>
<rscale>  0 0.27569459E+03</rscale>
<asrwt>0</asrwt>
<pdfrwt beam="1">  1        2 0.15022685E+00 0.27569459E+03</pdfrwt>
<pdfrwt beam="2">  1       -2 0.29937960E-02 0.27569459E+03</pdfrwt>
<totfact> 0.11508503E+04</totfact>
</mgrwt>
</event>
<event>
 5    1  0.1100736E+001  0.2807453E+03  0.7818608E-02  0.1095283E+00
          2   -1    0    0  501    0  0.00000000000E+00  0.00000000000E+00  0.12953863687E+03  0.12953863687E+03  0.00000000000E+00 0.  1.
         -2   -1    0    0    0  501 -0.00000000000E+00 -0.00000000000E+00 -0.15211281293E+03  0.15211281293E+03  0.00000000000E+00 0.  1.
         35    2    1    2    0    0  0.00000000000E+00  0.00000000000E+00 -0.22574176055E+02  0.28165144980E+03  0.28074533968E+03 0.  0.
         25    1    3    3    0    0 -0.13505937823E+02  0.71464413308E+02 -0.15161379639E+02  0.14113624679E+03  0.12000000000E+03 0.  0.
         25    1    3    3    0    0  0.13505937823E+02 -0.71464413308E+02 -0.74127964159E+01  0.14051520301E+03  0.12000000000E+03 0.  0.
<mgrwt>
<rscale>  0 0.28074534E+03</rscale>
<asrwt>0</asrwt>
<pdfrwt beam="1">  1        2 0.19929021E-01 0.28074534E+03</pdfrwt>
<pdfrwt beam="2">  1       -2 0.23401971E-01 0.28074534E+03</pdfrwt>
<totfact> 0.44324495E+03</totfact>
</mgrwt>
</event>
<event>
 5    1  0.1100736E+001  0.2755912E+03  0.7818608E-02  0.1098122E+00
         -1   -1    0    0    0  501 -0.00000000000E+00  0.00000000000E+00  0.12785102237E+03  0.12785102237E+03  0.00000000000E+00 0. -1.
          1   -1    0    0  501    0  0.00000000000E+00 -0.00000000000E+00 -0.14851367304E+03  0.14851367304E+03  0.00000000000E+00 0. -1.
         35    2    1    2    0    0  0.00000000000E+00  0.00000000000E+00 -0.20662650669E+02  0.27636469540E+03  0.27559118225E+03 0.  0.
         25    1    3    3    0    0 -0.56181015134E+02 -0.25889866350E+02 -0.37995586292E+02  0.14025069062E+03  0.12000000000E+03 0.  0.
         25    1    3    3    0    0  0.56181015134E+02  0.25889866350E+02  0.17332935623E+02  0.13611400478E+03  0.12000000000E+03 0.  0.
<mgrwt>
<rscale>  0 0.27559118E+03</rscale>
<asrwt>0</asrwt>
<pdfrwt beam="1">  1        1 0.22848257E-01 0.27559118E+03</pdfrwt>
<pdfrwt beam="2">  1       -1 0.19669388E-01 0.27559118E+03</pdfrwt>
<totfact> 0.44245147E+03</totfact>
</mgrwt>
</event>
<event>
 5    1  0.1100736E+001  0.2685482E+03  0.7818608E-02  0.1102113E+00
         -2   -1    0    0    0  501 -0.00000000000E+00  0.00000000000E+00  0.12030976754E+02  0.12030976754E+02  0.00000000000E+00 0.  1.
          2   -1    0    0  501    0  0.00000000000E+00 -0.00000000000E+00 -0.14985931594E+04  0.14985931594E+04  0.00000000000E+00 0.  1.
         35    2    1    2    0    0  0.00000000000E+00  0.00000000000E+00 -0.14865621827E+04  0.15106241362E+04  0.26854824121E+03 0.  0.
         25    1    3    3    0    0 -0.48429108360E+02 -0.28164525232E+02 -0.61864619200E+03  0.63266241384E+03  0.12000000000E+03 0.  0.
         25    1    3    3    0    0  0.48429108360E+02  0.28164525232E+02 -0.86791599068E+03  0.87796172234E+03  0.12000000000E+03 0.  0.
<mgrwt>
<rscale>  0 0.26854824E+03</rscale>
<asrwt>0</asrwt>
<pdfrwt beam="1">  1        2 0.23055277E+00 0.26854824E+03</pdfrwt>
<pdfrwt beam="2">  1       -2 0.18509197E-02 0.26854824E+03</pdfrwt>
<totfact> 0.11834588E+04</totfact>
</mgrwt>
</event>
<event>
 5    1  0.1100736E+001  0.2755119E+03  0.7818608E-02  0.1098166E+00
          4   -1    0    0  501    0  0.00000000000E+00  0.00000000000E+00  0.11754369186E+04  0.11754369186E+04  0.00000000000E+00 0.  1.
         -4   -1    0    0    0  501 -0.00000000000E+00 -0.00000000000E+00 -0.16144376537E+02  0.16144376537E+02  0.00000000000E+00 0.  1.
         35    2    1    2    0    0  0.00000000000E+00  0.00000000000E+00  0.11592925420E+04  0.11915812951E+04  0.27551185970E+03 0.  0.
         25    1    3    3    0    0  0.62327865306E+02  0.16285116275E+02  0.49030355433E+03  0.50886888605E+03  0.12000000000E+03 0.  0.
         25    1    3    3    0    0 -0.62327865306E+02 -0.16285116275E+02  0.66898898770E+03  0.68271240905E+03  0.12000000000E+03 0.  0.
<mgrwt>
<rscale>  0 0.27551186E+03</rscale>
<asrwt>0</asrwt>
<pdfrwt beam="1">  1        4 0.18083638E+00 0.27551186E+03</pdfrwt>
<pdfrwt beam="2">  1       -4 0.24837512E-02 0.27551186E+03</pdfrwt>
<totfact> 0.26025517E+02</totfact>
</mgrwt>
</event>
<event>
 5    1  0.1100736E+001  0.2756133E+03  0.7818608E-02  0.1098109E+00
         -1   -1    0    0    0  501 -0.00000000000E+00  0.00000000000E+00  0.14210055462E+03  0.14210055462E+03  0.00000000000E+00 0. -1.
          1   -1    0    0  501    0  0.00000000000E+00 -0.00000000000E+00 -0.13364247883E+03  0.13364247883E+03  0.00000000000E+00 0. -1.
         35    2    1    2    0    0  0.00000000000E+00  0.00000000000E+00  0.84580757880E+01  0.27574303345E+03  0.27561328242E+03 0.  0.
         25    1    3    3    0    0 -0.58141250435E+02  0.18977612502E+02 -0.24941429934E+02  0.13697674878E+03  0.12000000000E+03 0.  0.
         25    1    3    3    0    0  0.58141250435E+02 -0.18977612502E+02  0.33399505722E+02  0.13876628467E+03  0.12000000000E+03 0.  0.
<mgrwt>
<rscale>  0 0.27561328E+03</rscale>
<asrwt>0</asrwt>
<pdfrwt beam="1">  1        1 0.20560381E-01 0.27561328E+03</pdfrwt>
<pdfrwt beam="2">  1       -1 0.21861624E-01 0.27561328E+03</pdfrwt>
<totfact> 0.42635075E+03</totfact>
</mgrwt>
</event>
<event>
 5    1  0.1100736E+001  0.2748503E+03  0.7818608E-02  0.1098535E+00
          1   -1    0    0  501    0  0.00000000000E+00  0.00000000000E+00  0.64516775238E+02  0.64516775238E+02  0.00000000000E+00 0.  1.
         -1   -1    0    0    0  501 -0.00000000000E+00 -0.00000000000E+00 -0.29272498638E+03  0.29272498638E+03  0.00000000000E+00 0.  1.
         35    2    1    2    0    0  0.00000000000E+00  0.00000000000E+00 -0.22820821114E+03  0.35724176161E+03  0.27485030218E+03 0.  0.
         25    1    3    3    0    0  0.11497991908E+02 -0.50325109402E+02 -0.16956709719E+03  0.21405097734E+03  0.12000000000E+03 0.  0.
         25    1    3    3    0    0 -0.11497991908E+02  0.50325109402E+02 -0.58641113953E+02  0.14319078427E+03  0.12000000000E+03 0.  0.
<mgrwt>
<rscale>  0 0.27485030E+03</rscale>
<asrwt>0</asrwt>
<pdfrwt beam="1">  1        1 0.99256575E-02 0.27485030E+03</pdfrwt>
<pdfrwt beam="2">  1       -1 0.45034614E-01 0.27485030E+03</pdfrwt>
<totfact> 0.32158593E+03</totfact>
</mgrwt>
</event>
<event>
 5    1  0.1100736E+001  0.2752933E+03  0.7818608E-02  0.1098288E+00
          2   -1    0    0  501    0  0.00000000000E+00  0.00000000000E+00  0.60739855381E+02  0.60739855381E+02  0.00000000000E+00 0.  1.
         -2   -1    0    0    0  501 -0.00000000000E+00 -0.00000000000E+00 -0.31193030709E+03  0.31193030709E+03  0.00000000000E+00 0.  1.
         35    2    1    2    0    0  0.00000000000E+00  0.00000000000E+00 -0.25119045171E+03  0.37267016247E+03  0.27529331079E+03 0.  0.
         25    1    3    3    0    0  0.41844593669E+02 -0.27490456938E+02 -0.64454006635E+02  0.14512413381E+03  0.12000000000E+03 0.  0.
         25    1    3    3    0    0 -0.41844593669E+02  0.27490456938E+02 -0.18673644508E+03  0.22754602867E+03  0.12000000000E+03 0.  0.
<mgrwt>
<rscale>  0 0.27529331E+03</rscale>
<asrwt>0</asrwt>
<pdfrwt beam="1">  1        2 0.93445930E-02 0.27529331E+03</pdfrwt>
<pdfrwt beam="2">  1       -2 0.47989279E-01 0.27529331E+03</pdfrwt>
<totfact> 0.28993434E+03</totfact>
</mgrwt>
</event>
<event>
 5    1  0.1100736E+001  0.2747760E+03  0.7818608E-02  0.1098577E+00
          2   -1    0    0  501    0  0.00000000000E+00  0.00000000000E+00  0.53574219966E+03  0.53574219966E+03  0.00000000000E+00 0. -1.
         -2   -1    0    0    0  501 -0.00000000000E+00 -0.00000000000E+00 -0.35232373424E+02  0.35232373424E+02  0.00000000000E+00 0. -1.
         35    2    1    2    0    0  0.00000000000E+00  0.00000000000E+00  0.50050982623E+03  0.57097457308E+03  0.27477604872E+03 0.  0.
         25    1    3    3    0    0 -0.40215767425E+02  0.42152719153E+01  0.36100066949E+03  0.38256575884E+03  0.12000000000E+03 0.  0.
         25    1    3    3    0    0  0.40215767425E+02 -0.42152719153E+01  0.13950915674E+03  0.18840881423E+03  0.12000000000E+03 0.  0.
<mgrwt>
<rscale>  0 0.27477605E+03</rscale>
<asrwt>0</asrwt>
<pdfrwt beam="1">  1        2 0.82421871E-01 0.27477605E+03</pdfrwt>
<pdfrwt beam="2">  1       -2 0.54203655E-02 0.27477605E+03</pdfrwt>
<totfact> 0.99031055E+03</totfact>
</mgrwt>
</event>
<event>
 5    1  0.1100736E+001  0.2750884E+03  0.7818608E-02  0.1098402E+00
         -2   -1    0    0    0  501 -0.00000000000E+00  0.00000000000E+00  0.27258829436E+02  0.27258829436E+02  0.00000000000E+00 0.  1.
          2   -1    0    0  501    0  0.00000000000E+00 -0.00000000000E+00 -0.69402853474E+03  0.69402853474E+03  0.00000000000E+00 0.  1.
         35    2    1    2    0    0  0.00000000000E+00  0.00000000000E+00 -0.66676970530E+03  0.72128736418E+03  0.27508838908E+03 0.  0.
         25    1    3    3    0    0 -0.21676404804E+02  0.25878901286E+02 -0.48579668409E+03  0.50153564413E+03  0.12000000000E+03 0.  0.
         25    1    3    3    0    0  0.21676404804E+02 -0.25878901286E+02 -0.18097302122E+03  0.21975172005E+03  0.12000000000E+03 0.  0.
<mgrwt>
<rscale>  0 0.27508839E+03</rscale>
<asrwt>0</asrwt>
<pdfrwt beam="1">  1        2 0.10677361E+00 0.27508839E+03</pdfrwt>
<pdfrwt beam="2">  1       -2 0.41936667E-02 0.27508839E+03</pdfrwt>
<totfact> 0.10800772E+04</totfact>
</mgrwt>
</event>
<event>
 5    1  0.1100736E+001  0.2750368E+03  0.7818608E-02  0.1098431E+00
          2   -1    0    0  501    0  0.00000000000E+00  0.00000000000E+00  0.69376139057E+03  0.69376139057E+03  0.00000000000E+00 0. -1.
         -2   -1    0    0    0  501 -0.00000000000E+00 -0.00000000000E+00 -0.27259093957E+02  0.27259093957E+02  0.00000000000E+00 0. -1.
         35    2    1    2    0    0  0.00000000000E+00  0.00000000000E+00  0.66650229661E+03  0.72102048453E+03  0.27503677521E+03 0.  0.
         25    1    3    3    0    0 -0.60375456626E+02  0.23190279620E+02  0.38075260116E+03  0.40441998976E+03  0.12000000000E+03 0.  0.
         25    1    3    3    0    0  0.60375456626E+02 -0.23190279620E+02  0.28574969546E+03  0.31660049476E+03  0.12000000000E+03 0.  0.
<mgrwt>
<rscale>  0 0.27503678E+03</rscale>
<asrwt>0</asrwt>
<pdfrwt beam="1">  1        2 0.10673251E+00 0.27503678E+03</pdfrwt>
<pdfrwt beam="2">  1       -2 0.41937073E-02 0.27503678E+03</pdfrwt>
<totfact> 0.10805573E+04</totfact>
</mgrwt>
</event>
<event>
 5    1  0.1100736E+001  0.2746567E+03  0.7818608E-02  0.1098644E+00
          1   -1    0    0  501    0  0.00000000000E+00  0.00000000000E+00  0.28411465470E+04  0.28411465470E+04  0.00000000000E+00 0.  1.
         -1   -1    0    0    0  501 -0.00000000000E+00 -0.00000000000E+00 -0.66378394914E+01  0.66378394914E+01  0.00000000000E+00 0.  1.
         35    2    1    2    0    0  0.00000000000E+00  0.00000000000E+00  0.28345087075E+04  0.28477843865E+04  0.27465669298E+03 0.  0.
         25    1    3    3    0    0  0.31053469189E+02  0.56781259340E+02  0.15878300821E+04  0.15936727390E+04  0.12000000000E+03 0.  0.
         25    1    3    3    0    0 -0.31053469189E+02 -0.56781259340E+02  0.12466786254E+04  0.12541116475E+04  0.12000000000E+03 0.  0.
<mgrwt>
<rscale>  0 0.27465669E+03</rscale>
<asrwt>0</asrwt>
<pdfrwt beam="1">  1        1 0.43709850E+00 0.27465669E+03</pdfrwt>
<pdfrwt beam="2">  1       -1 0.10212083E-02 0.27465669E+03</pdfrwt>
<totfact> 0.17020660E+03</totfact>
</mgrwt>
</event>
<event>
 5    1  0.1100736E+001  0.2741770E+03  0.7818608E-02  0.1098913E+00
         -1   -1    0    0    0  501 -0.00000000000E+00  0.00000000000E+00  0.26654173551E+02  0.26654173551E+02  0.00000000000E+00 0. -1.
          1   -1    0    0  501    0  0.00000000000E+00 -0.00000000000E+00 -0.70507760739E+03  0.70507760739E+03  0.00000000000E+00 0. -1.
         35    2    1    2    0    0  0.00000000000E+00  0.00000000000E+00 -0.67842343383E+03  0.73173178094E+03  0.27417702978E+03 0.  0.
         25    1    3    3    0    0 -0.28110921489E+02  0.27724198441E+02 -0.48129790622E+03  0.49760077333E+03  0.12000000000E+03 0.  0.
         25    1    3    3    0    0  0.28110921489E+02 -0.27724198441E+02 -0.19712552761E+03  0.23413100761E+03  0.12000000000E+03 0.  0.
<mgrwt>
<rscale>  0 0.27417703E+03</rscale>
<asrwt>0</asrwt>
<pdfrwt beam="1">  1        1 0.10847347E+00 0.27417703E+03</pdfrwt>
<pdfrwt beam="2">  1       -1 0.41006424E-02 0.27417703E+03</pdfrwt>
<totfact> 0.65905085E+03</totfact>
</mgrwt>
</event>
<event>
 5    1  0.1100736E+001  0.2750214E+03  0.7818608E-02  0.1098440E+00
         -1   -1    0    0    0  501 -0.00000000000E+00  0.00000000000E+00  0.19044760519E+02  0.19044760519E+02  0.00000000000E+00 0.  1.
          1   -1    0    0  501    0  0.00000000000E+00 -0.00000000000E+00 -0.99288145648E+03  0.99288145648E+03  0.00000000000E+00 0.  1.
         35    2    1    2    0    0  0.00000000000E+00  0.00000000000E+00 -0.97383669596E+03  0.10119262170E+04  0.27502137780E+03 0.  0.
         25    1    3    3    0    0  0.22686995827E+02  0.10105652558E+02 -0.71647464230E+03  0.72687876366E+03  0.12000000000E+03 0.  0.
         25    1    3    3    0    0 -0.22686995827E+02 -0.10105652558E+02 -0.25736205366E+03  0.28504745334E+03  0.12000000000E+03 0.  0.
<mgrwt>
<rscale>  0 0.27502138E+03</rscale>
<asrwt>0</asrwt>
<pdfrwt beam="1">  1        1 0.15275098E+00 0.27502138E+03</pdfrwt>
<pdfrwt beam="2">  1       -1 0.29299634E-02 0.27502138E+03</pdfrwt>
<totfact> 0.63196867E+03</totfact>
</mgrwt>
</event>
<event>
 5    1  0.1100736E+001  0.2729538E+03  0.7818608E-02  0.1099601E+00
          2   -1    0    0  501    0  0.00000000000E+00  0.00000000000E+00  0.13338725486E+04  0.13338725486E+04  0.00000000000E+00 0.  1.
         -2   -1    0    0    0  501 -0.00000000000E+00 -0.00000000000E+00 -0.13963811377E+02  0.13963811377E+02  0.00000000000E+00 0.  1.
         35    2    1    2    0    0  0.00000000000E+00  0.00000000000E+00  0.13199087372E+04  0.13478363599E+04  0.27295380319E+03 0.  0.
         25    1    3    3    0    0 -0.89945764641E+00  0.64333536292E+02  0.61407332382E+03  0.62898780588E+03  0.12000000000E+03 0.  0.
         25    1    3    3    0    0  0.89945764641E+00 -0.64333536292E+02  0.70583541337E+03  0.71884855406E+03  0.12000000000E+03 0.  0.
<mgrwt>
<rscale>  0 0.27295380E+03</rscale>
<asrwt>0</asrwt>
<pdfrwt beam="1">  1        2 0.20521106E+00 0.27295380E+03</pdfrwt>
<pdfrwt beam="2">  1       -2 0.21482797E-02 0.27295380E+03</pdfrwt>
<totfact> 0.11678434E+04</totfact>
</mgrwt>
</event>
<event>
 5    1  0.1100736E+001  0.2750992E+03  0.7818608E-02  0.1098396E+00
          2   -1    0    0  501    0  0.00000000000E+00  0.00000000000E+00  0.29817622477E+03  0.29817622477E+03  0.00000000000E+00 0. -1.
         -2   -1    0    0    0  501 -0.00000000000E+00 -0.00000000000E+00 -0.63452068835E+02  0.63452068835E+02  0.00000000000E+00 0. -1.
         35    2    1    2    0    0  0.00000000000E+00  0.00000000000E+00  0.23472415594E+03  0.36162829360E+03  0.27509924274E+03 0.  0.
         25    1    3    3    0    0 -0.39163411804E+02 -0.51548724053E+02  0.14120035945E+03  0.19628699723E+03  0.12000000000E+03 0.  0.
         25    1    3    3    0    0  0.39163411804E+02  0.51548724053E+02  0.93523796490E+02  0.16534129637E+03  0.12000000000E+03 0.  0.
<mgrwt>
<rscale>  0 0.27509924E+03</rscale>
<asrwt>0</asrwt>
<pdfrwt beam="1">  1        2 0.45873265E-01 0.27509924E+03</pdfrwt>
<pdfrwt beam="2">  1       -2 0.97618569E-02 0.27509924E+03</pdfrwt>
<totfact> 0.75341469E+03</totfact>
</mgrwt>
</event>
<event>
 5    1  0.1100736E+001  0.2720262E+03  0.7818608E-02  0.1100126E+00
         -2   -1    0    0    0  501 -0.00000000000E+00  0.00000000000E+00  0.88182756489E+02  0.88182756489E+02  0.00000000000E+00 0. -1.
          2   -1    0    0  501    0  0.00000000000E+00 -0.00000000000E+00 -0.20978660152E+03  0.20978660152E+03  0.00000000000E+00 0. -1.
         35    2    1    2    0    0  0.00000000000E+00  0.00000000000E+00 -0.12160384503E+03  0.29796935801E+03  0.27202618107E+03 0.  0.
         25    1    3    3    0    0  0.93849933971E+01 -0.47707762886E+02 -0.10643368158E+03  0.16760739040E+03  0.12000000000E+03 0.  0.
         25    1    3    3    0    0 -0.93849933971E+01  0.47707762886E+02 -0.15170163452E+02  0.13036196761E+03  0.12000000000E+03 0.  0.
<mgrwt>
<rscale>  0 0.27202618E+03</rscale>
<asrwt>0</asrwt>
<pdfrwt beam="1">  1        2 0.32274862E-01 0.27202618E+03</pdfrwt>
<pdfrwt beam="2">  1       -2 0.13566578E-01 0.27202618E+03</pdfrwt>
<totfact> 0.64853118E+03</totfact>
</mgrwt>
</event>
<event>
 5    1  0.1100736E+001  0.2763261E+03  0.7818608E-02  0.1097713E+00
         -1   -1    0    0    0  501 -0.00000000000E+00  0.00000000000E+00  0.20715200350E+03  0.20715200350E+03  0.00000000000E+00 0.  1.
          1   -1    0    0  501    0  0.00000000000E+00 -0.00000000000E+00 -0.92149828654E+02  0.92149828654E+02  0.00000000000E+00 0.  1.
         35    2    1    2    0    0  0.00000000000E+00  0.00000000000E+00  0.11500217484E+03  0.29930183215E+03  0.27632605109E+03 0.  0.
         25    1    3    3    0    0  0.46482144422E+02  0.33339208295E+02  0.98273048371E+02  0.16531692169E+03  0.12000000000E+03 0.  0.
         25    1    3    3    0    0 -0.46482144422E+02 -0.33339208295E+02  0.16729126473E+02  0.13398491047E+03  0.12000000000E+03 0.  0.
<mgrwt>
<rscale>  0 0.27632605E+03</rscale>
<asrwt>0</asrwt>
<pdfrwt beam="1">  1        1 0.14176897E-01 0.27632605E+03</pdfrwt>
<pdfrwt beam="2">  1       -1 0.31869539E-01 0.27632605E+03</pdfrwt>
<totfact> 0.36789884E+03</totfact>
</mgrwt>
</event>
<event>
 5    1  0.1100736E+001  0.2752621E+03  0.7818608E-02  0.1098305E+00
          2   -1    0    0  501    0  0.00000000000E+00  0.00000000000E+00  0.43638605605E+02  0.43638605605E+02  0.00000000000E+00 0.  1.
         -2   -1    0    0    0  501 -0.00000000000E+00 -0.00000000000E+00 -0.43407221480E+03  0.43407221480E+03  0.00000000000E+00 0.  1.
         35    2    1    2    0    0  0.00000000000E+00  0.00000000000E+00 -0.39043360920E+03  0.47771082041E+03  0.27526210190E+03 0.  0.
         25    1    3    3    0    0 -0.41674712854E+02 -0.52292438103E+02 -0.18059080570E+03  0.22690156429E+03  0.12000000000E+03 0.  0.
         25    1    3    3    0    0  0.41674712854E+02  0.52292438103E+02 -0.20984280349E+03  0.25080925611E+03  0.12000000000E+03 0.  0.
<mgrwt>
<rscale>  0 0.27526210E+03</rscale>
<asrwt>0</asrwt>
<pdfrwt beam="1">  1        2 0.67136315E-02 0.27526210E+03</pdfrwt>
<pdfrwt beam="2">  1       -2 0.66780342E-01 0.27526210E+03</pdfrwt>
<totfact> 0.22449181E+03</totfact>
</mgrwt>
</event>
<event>
 5    1  0.1100736E+001  0.2842268E+03  0.7818608E-02  0.1093403E+00
          2   -1    0    0  501    0  0.00000000000E+00  0.00000000000E+00  0.24313701165E+04  0.24313701165E+04  0.00000000000E+00 0.  1.
         -2   -1    0    0    0  501 -0.00000000000E+00 -0.00000000000E+00 -0.83065164070E+01  0.83065164070E+01  0.00000000000E+00 0.  1.
         35    2    1    2    0    0  0.00000000000E+00  0.00000000000E+00  0.24230636001E+04  0.24396766329E+04  0.28422678103E+03 0.  0.
         25    1    3    3    0    0  0.40736498317E+02 -0.64268612287E+02  0.12330745499E+04  0.12412343705E+04  0.12000000000E+03 0.  0.
         25    1    3    3    0    0 -0.40736498317E+02  0.64268612287E+02  0.11899890502E+04  0.11984422624E+04  0.12000000000E+03 0.  0.
<mgrwt>
<rscale>  0 0.28422678E+03</rscale>
<asrwt>0</asrwt>
<pdfrwt beam="1">  1        2 0.37405637E+00 0.28422678E+03</pdfrwt>
<pdfrwt beam="2">  1       -2 0.12779275E-02 0.28422678E+03</pdfrwt>
<totfact> 0.65205432E+03</totfact>
</mgrwt>
</event>
<event>
 5    1  0.1100736E+001  0.2755295E+03  0.7818608E-02  0.1098156E+00
          2   -1    0    0  501    0  0.00000000000E+00  0.00000000000E+00  0.22070871777E+03  0.22070871777E+03  0.00000000000E+00 0. -1.
         -2   -1    0    0    0  501 -0.00000000000E+00 -0.00000000000E+00 -0.85991766823E+02  0.85991766823E+02  0.00000000000E+00 0. -1.
         35    2    1    2    0    0  0.00000000000E+00  0.00000000000E+00  0.13471695094E+03  0.30670048459E+03  0.27552954538E+03 0.  0.
         25    1    3    3    0    0 -0.50087155688E+02 -0.42660167078E+02  0.84976901966E+02  0.16108906508E+03  0.12000000000E+03 0.  0.
         25    1    3    3    0    0  0.50087155688E+02  0.42660167078E+02  0.49740048978E+02  0.14561141951E+03  0.12000000000E+03 0.  0.
<mgrwt>
<rscale>  0 0.27552955E+03</rscale>
<asrwt>0</asrwt>
<pdfrwt beam="1">  1        2 0.33955187E-01 0.27552955E+03</pdfrwt>
<pdfrwt beam="2">  1       -2 0.13229503E-01 0.27552955E+03</pdfrwt>
<totfact> 0.63967978E+03</totfact>
</mgrwt>
</event>
<event>
 5    1  0.1100736E+001  0.2690453E+03  0.7818608E-02  0.1101827E+00
          1   -1    0    0  501    0  0.00000000000E+00  0.00000000000E+00  0.21147024915E+04  0.21147024915E+04  0.00000000000E+00 0.  1.
         -1   -1    0    0    0  501 -0.00000000000E+00 -0.00000000000E+00 -0.85573965390E+01  0.85573965390E+01  0.00000000000E+00 0.  1.
         35    2    1    2    0    0  0.00000000000E+00  0.00000000000E+00  0.21061450949E+04  0.21232598880E+04  0.26904533285E+03 0.  0.
         25    1    3    3    0    0 -0.60661606825E+02 -0.40568204354E+01  0.10549967111E+04  0.10635385977E+04  0.12000000000E+03 0.  0.
         25    1    3    3    0    0  0.60661606825E+02  0.40568204354E+01  0.10511483838E+04  0.10597212903E+04  0.12000000000E+03 0.  0.
<mgrwt>
<rscale>  0 0.26904533E+03</rscale>
<asrwt>0</asrwt>
<pdfrwt beam="1">  1        1 0.32533843E+00 0.26904533E+03</pdfrwt>
<pdfrwt beam="2">  1       -1 0.13165242E-02 0.26904533E+03</pdfrwt>
<totfact> 0.35859046E+03</totfact>
</mgrwt>
</event>
<event>
 5    1  0.1100736E+001  0.2752171E+03  0.7818608E-02  0.1098330E+00
          1   -1    0    0  501    0  0.00000000000E+00  0.00000000000E+00  0.91671833804E+03  0.91671833804E+03  0.00000000000E+00 0.  1.
         -1   -1    0    0    0  501 -0.00000000000E+00 -0.00000000000E+00 -0.20656414617E+02  0.20656414617E+02  0.00000000000E+00 0.  1.
         35    2    1    2    0    0  0.00000000000E+00  0.00000000000E+00  0.89606192342E+03  0.93737475266E+03  0.27521710759E+03 0.  0.
         25    1    3    3    0    0 -0.50417593068E+01 -0.56399700115E+02  0.57223218042E+03  0.58741468642E+03  0.12000000000E+03 0.  0.
         25    1    3    3    0    0  0.50417593068E+01  0.56399700115E+02  0.32382974300E+03  0.34996006624E+03  0.12000000000E+03 0.  0.
<mgrwt>
<rscale>  0 0.27521711E+03</rscale>
<asrwt>0</asrwt>
<pdfrwt beam="1">  1        1 0.14103356E+00 0.27521711E+03</pdfrwt>
<pdfrwt beam="2">  1       -1 0.31779107E-02 0.27521711E+03</pdfrwt>
<totfact> 0.64096193E+03</totfact>
</mgrwt>
</event>
<event>
 5    1  0.1100736E+001  0.2750350E+03  0.7818608E-02  0.1098432E+00
         -2   -1    0    0    0  501 -0.00000000000E+00  0.00000000000E+00  0.42036810803E+02  0.42036810803E+02  0.00000000000E+00 0. -1.
          2   -1    0    0  501    0  0.00000000000E+00 -0.00000000000E+00 -0.44986920435E+03  0.44986920435E+03  0.00000000000E+00 0. -1.
         35    2    1    2    0    0  0.00000000000E+00  0.00000000000E+00 -0.40783239355E+03  0.49190601516E+03  0.27503502780E+03 0.  0.
         25    1    3    3    0    0 -0.57360261608E+02 -0.31829054738E+02 -0.17813552609E+03  0.22457861428E+03  0.12000000000E+03 0.  0.
         25    1    3    3    0    0  0.57360261608E+02  0.31829054738E+02 -0.22969686746E+03  0.26732740088E+03  0.12000000000E+03 0.  0.
<mgrwt>
<rscale>  0 0.27503503E+03</rscale>
<asrwt>0</asrwt>
<pdfrwt beam="1">  1        2 0.69210642E-01 0.27503503E+03</pdfrwt>
<pdfrwt beam="2">  1       -2 0.64672021E-02 0.27503503E+03</pdfrwt>
<totfact> 0.91807197E+03</totfact>
</mgrwt>
</event>
<event>
 5    1  0.1100736E+001  0.2744034E+03  0.7818608E-02  0.1098786E+00
         -1   -1    0    0    0  501 -0.00000000000E+00  0.00000000000E+00  0.31004672202E+03  0.31004672202E+03  0.00000000000E+00 0.  1.
          1   -1    0    0  501    0  0.00000000000E+00 -0.00000000000E+00 -0.60714406624E+02  0.60714406624E+02  0.00000000000E+00 0.  1.
         35    2    1    2    0    0  0.00000000000E+00  0.00000000000E+00  0.24933231540E+03  0.37076112865E+03  0.27440337282E+03 0.  0.
         25    1    3    3    0    0  0.63637863503E+02  0.38123639985E+01  0.99030140772E+02  0.16814065711E+03  0.12000000000E+03 0.  0.
         25    1    3    3    0    0 -0.63637863503E+02 -0.38123639985E+01  0.15030217463E+03  0.20262047154E+03  0.12000000000E+03 0.  0.
<mgrwt>
<rscale>  0 0.27440337E+03</rscale>
<asrwt>0</asrwt>
<pdfrwt beam="1">  1        1 0.93406782E-02 0.27440337E+03</pdfrwt>
<pdfrwt beam="2">  1       -1 0.47699495E-01 0.27440337E+03</pdfrwt>
<totfact> 0.31427601E+03</totfact>
</mgrwt>
</event>
<event>
 5    1  0.1100736E+001  0.2753825E+03  0.7818608E-02  0.1098238E+00
          1   -1    0    0  501    0  0.00000000000E+00  0.00000000000E+00  0.23028569555E+02  0.23028569555E+02  0.00000000000E+00 0. -1.
         -1   -1    0    0    0  501 -0.00000000000E+00 -0.00000000000E+00 -0.82327622607E+03  0.82327622607E+03  0.00000000000E+00 0. -1.
         35    2    1    2    0    0  0.00000000000E+00  0.00000000000E+00 -0.80024765651E+03  0.84630479562E+03  0.27538245286E+03 0.  0.
         25    1    3    3    0    0  0.25468283737E+02 -0.32667047368E+02 -0.23625855002E+03  0.26820490659E+03  0.12000000000E+03 0.  0.
         25    1    3    3    0    0 -0.25468283737E+02  0.32667047368E+02 -0.56398910649E+03  0.57809988904E+03  0.12000000000E+03 0.  0.
<mgrwt>
<rscale>  0 0.27538245E+03</rscale>
<asrwt>0</asrwt>
<pdfrwt beam="1">  1        1 0.35428569E-02 0.27538245E+03</pdfrwt>
<pdfrwt beam="2">  1       -1 0.12665788E+00 0.27538245E+03</pdfrwt>
<totfact> 0.15641158E+03</totfact>
</mgrwt>
</event>
<event>
 5    1  0.1100736E+001  0.2762607E+03  0.7818608E-02  0.1097749E+00
          1   -1    0    0  501    0  0.00000000000E+00  0.00000000000E+00  0.16773621522E+03  0.16773621522E+03  0.00000000000E+00 0.  1.
         -1   -1    0    0    0  501 -0.00000000000E+00 -0.00000000000E+00 -0.11374999540E+03  0.11374999540E+03  0.00000000000E+00 0.  1.
         35    2    1    2    0    0  0.00000000000E+00  0.00000000000E+00  0.53986219815E+02  0.28148621062E+03  0.27626070086E+03 0.  0.
         25    1    3    3    0    0  0.23540173782E+02 -0.60580152773E+02  0.52374458632E+01  0.13657058809E+03  0.12000000000E+03 0.  0.
         25    1    3    3    0    0 -0.23540173782E+02  0.60580152773E+02  0.48748773951E+02  0.14491562253E+03  0.12000000000E+03 0.  0.
<mgrwt>
<rscale>  0 0.27626070E+03</rscale>
<asrwt>0</asrwt>
<pdfrwt beam="1">  1        1 0.25805571E-01 0.27626070E+03</pdfrwt>
<pdfrwt beam="2">  1       -1 0.17499999E-01 0.27626070E+03</pdfrwt>
<totfact> 0.45757029E+03</totfact>
</mgrwt>
</event>
<event>
 5    1  0.1100736E+001  0.2740125E+03  0.7818608E-02  0.1099005E+00
         -1   -1    0    0    0  501 -0.00000000000E+00  0.00000000000E+00  0.31110510497E+03  0.31110510497E+03  0.00000000000E+00 0.  1.
          1   -1    0    0  501    0  0.00000000000E+00 -0.00000000000E+00 -0.60335602979E+02  0.60335602979E+02  0.00000000000E+00 0.  1.
         35    2    1    2    0    0  0.00000000000E+00  0.00000000000E+00  0.25076950199E+03  0.37144070795E+03  0.27401251138E+03 0.  0.
         25    1    3    3    0    0  0.22297552421E+02  0.10630899842E+02  0.20851190200E+03  0.24184170474E+03  0.12000000000E+03 0.  0.
         25    1    3    3    0    0 -0.22297552421E+02 -0.10630899842E+02  0.42257599987E+02  0.12959900321E+03  0.12000000000E+03 0.  0.
<mgrwt>
<rscale>  0 0.27401251E+03</rscale>
<asrwt>0</asrwt>
<pdfrwt beam="1">  1        1 0.92824006E-02 0.27401251E+03</pdfrwt>
<pdfrwt beam="2">  1       -1 0.47862323E-01 0.27401251E+03</pdfrwt>
<totfact> 0.31495568E+03</totfact>
</mgrwt>
</event>
<event>
 5    1  0.1100736E+001  0.2747330E+03  0.7818608E-02  0.1098601E+00
         -2   -1    0    0    0  501 -0.00000000000E+00  0.00000000000E+00  0.18335114830E+02  0.18335114830E+02  0.00000000000E+00 0. -1.
          2   -1    0    0  501    0  0.00000000000E+00 -0.00000000000E+00 -0.10291482584E+04  0.10291482584E+04  0.00000000000E+00 0. -1.
         35    2    1    2    0    0  0.00000000000E+00  0.00000000000E+00 -0.10108131435E+04  0.10474833732E+04  0.27473297213E+03 0.  0.
         25    1    3    3    0    0  0.52547180364E+02  0.11031639895E+02 -0.35353493192E+03  0.37718675922E+03  0.12000000000E+03 0.  0.
         25    1    3    3    0    0 -0.52547180364E+02 -0.11031639895E+02 -0.65727821162E+03  0.67029661398E+03  0.12000000000E+03 0.  0.
<mgrwt>
<rscale>  0 0.27473297E+03</rscale>
<asrwt>0</asrwt>
<pdfrwt beam="1">  1        2 0.15833049E+00 0.27473297E+03</pdfrwt>
<pdfrwt beam="2">  1       -2 0.28207871E-02 0.27473297E+03</pdfrwt>
<totfact> 0.11672827E+04</totfact>
</mgrwt>
</event>
<event>
 5    1  0.1100736E+001  0.2759825E+03  0.7818608E-02  0.1097904E+00
          2   -1    0    0  501    0  0.00000000000E+00  0.00000000000E+00  0.16183950414E+04  0.16183950414E+04  0.00000000000E+00 0.  1.
         -2   -1    0    0    0  501 -0.00000000000E+00 -0.00000000000E+00 -0.11765723215E+02  0.11765723215E+02  0.00000000000E+00 0.  1.
         35    2    1    2    0    0  0.00000000000E+00  0.00000000000E+00  0.16066293181E+04  0.16301607646E+04  0.27598252198E+03 0.  0.
         25    1    3    3    0    0 -0.20889470339E+02  0.55549332677E+02  0.10009474134E+04  0.10098602986E+04  0.12000000000E+03 0.  0.
         25    1    3    3    0    0  0.20889470339E+02 -0.55549332677E+02  0.60568190478E+03  0.62030046599E+03  0.12000000000E+03 0.  0.
<mgrwt>
<rscale>  0 0.27598252E+03</rscale>
<asrwt>0</asrwt>
<pdfrwt beam="1">  1        2 0.24898368E+00 0.27598252E+03</pdfrwt>
<pdfrwt beam="2">  1       -2 0.18101125E-02 0.27598252E+03</pdfrwt>
<totfact> 0.10565644E+04</totfact>
</mgrwt>
</event>
<event>
 5    1  0.1100736E+001  0.2748114E+03  0.7818608E-02  0.1098557E+00
         -1   -1    0    0    0  501 -0.00000000000E+00  0.00000000000E+00  0.58513239782E+01  0.58513239782E+01  0.00000000000E+00 0. -1.
          1   -1    0    0  501    0  0.00000000000E+00 -0.00000000000E+00 -0.32266759054E+04  0.32266759054E+04  0.00000000000E+00 0. -1.
         35    2    1    2    0    0  0.00000000000E+00  0.00000000000E+00 -0.32208245814E+04  0.32325272294E+04  0.27481139784E+03 0.  0.
         25    1    3    3    0    0  0.27182687299E+01  0.59224548193E+02 -0.12449363026E+04  0.12521107513E+04  0.12000000000E+03 0.  0.
         25    1    3    3    0    0 -0.27182687299E+01 -0.59224548193E+02 -0.19758882789E+04  0.19804164781E+04  0.12000000000E+03 0.  0.
<mgrwt>
<rscale>  0 0.27481140E+03</rscale>
<asrwt>0</asrwt>
<pdfrwt beam="1">  1        1 0.49641257E+00 0.27481140E+03</pdfrwt>
<pdfrwt beam="2">  1       -1 0.90020207E-03 0.27481140E+03</pdfrwt>
<totfact> 0.10936971E+03</totfact>
</mgrwt>
</event>
<event>
 5    1  0.1100736E+001  0.2743010E+03  0.7818608E-02  0.1098843E+00
          4   -1    0    0  501    0  0.00000000000E+00  0.00000000000E+00  0.50299733512E+03  0.50299733512E+03  0.00000000000E+00 0.  1.
         -4   -1    0    0    0  501 -0.00000000000E+00 -0.00000000000E+00 -0.37396341928E+02  0.37396341928E+02  0.00000000000E+00 0.  1.
         35    2    1    2    0    0  0.00000000000E+00  0.00000000000E+00  0.46560099319E+03  0.54039367705E+03  0.27430100498E+03 0.  0.
         25    1    3    3    0    0 -0.49419666241E+01 -0.43862849713E+02  0.33055054488E+03  0.35441788236E+03  0.12000000000E+03 0.  0.
         25    1    3    3    0    0  0.49419666241E+01  0.43862849713E+02  0.13505044831E+03  0.18597579469E+03  0.12000000000E+03 0.  0.
<mgrwt>
<rscale>  0 0.27430100E+03</rscale>
<asrwt>0</asrwt>
<pdfrwt beam="1">  1        4 0.77384201E-01 0.27430100E+03</pdfrwt>
<pdfrwt beam="2">  1       -4 0.57532837E-02 0.27430100E+03</pdfrwt>
<totfact> 0.54456462E+02</totfact>
</mgrwt>
</event>
<event>
 5    1  0.1100736E+001  0.2747865E+03  0.7818608E-02  0.1098571E+00
         -2   -1    0    0    0  501 -0.00000000000E+00  0.00000000000E+00  0.18550320459E+02  0.18550320459E+02  0.00000000000E+00 0. -1.
          2   -1    0    0  501    0  0.00000000000E+00 -0.00000000000E+00 -0.10176053040E+04  0.10176053040E+04  0.00000000000E+00 0. -1.
         35    2    1    2    0    0  0.00000000000E+00  0.00000000000E+00 -0.99905498357E+03  0.10361556245E+04  0.27478649524E+03 0.  0.
         25    1    3    3    0    0  0.55304631101E+01 -0.64602458996E+01 -0.74978207334E+03  0.75937176554E+03  0.12000000000E+03 0.  0.
         25    1    3    3    0    0 -0.55304631101E+01  0.64602458996E+01 -0.24927291023E+03  0.27678385895E+03  0.12000000000E+03 0.  0.
<mgrwt>
<rscale>  0 0.27478650E+03</rscale>
<asrwt>0</asrwt>
<pdfrwt beam="1">  1        2 0.15655468E+00 0.27478650E+03</pdfrwt>
<pdfrwt beam="2">  1       -2 0.28538951E-02 0.27478650E+03</pdfrwt>
<totfact> 0.11658592E+04</totfact>
</mgrwt>
</event>
<event>
 5    1  0.1100736E+001  0.2754267E+03  0.7818608E-02  0.1098213E+00
          2   -1    0    0  501    0  0.00000000000E+00  0.00000000000E+00  0.19555288610E+04  0.19555288610E+04  0.00000000000E+00 0. -1.
         -2   -1    0    0    0  501 -0.00000000000E+00 -0.00000000000E+00 -0.96981271888E+01  0.96981271888E+01  0.00000000000E+00 0. -1.
         35    2    1    2    0    0  0.00000000000E+00  0.00000000000E+00  0.19458307338E+04  0.19652269882E+04  0.27542670615E+03 0.  0.
         25    1    3    3    0    0 -0.27013382070E+01 -0.40782230970E+02  0.58903849290E+03  0.60252538014E+03  0.12000000000E+03 0.  0.
         25    1    3    3    0    0  0.27013382070E+01  0.40782230970E+02  0.13567922409E+04  0.13627016080E+04  0.12000000000E+03 0.  0.
<mgrwt>
<rscale>  0 0.27542671E+03</rscale>
<asrwt>0</asrwt>
<pdfrwt beam="1">  1        2 0.30085028E+00 0.27542671E+03</pdfrwt>
<pdfrwt beam="2">  1       -2 0.14920211E-02 0.27542671E+03</pdfrwt>
<totfact> 0.93231630E+03</totfact>
</mgrwt>
</event>
<event>
 5    1  0.1100736E+001  0.2700638E+03  0.7818608E-02  0.1101243E+00
          2   -1    0    0  501    0  0.00000000000E+00  0.00000000000E+00  0.14420393996E+04  0.14420393996E+04  0.00000000000E+00 0.  1.
         -2   -1    0    0    0  501 -0.00000000000E+00 -0.00000000000E+00 -0.12644325337E+02  0.12644325337E+02  0.00000000000E+00 0.  1.
         35    2    1    2    0    0  0.00000000000E+00  0.00000000000E+00  0.14293950743E+04  0.14546837250E+04  0.27006380963E+03 0.  0.
         25    1    3    3    0    0  0.43026388612E+02 -0.46044998896E+01  0.95323517149E+03  0.96173268828E+03  0.12000000000E+03 0.  0.
         25    1    3    3    0    0 -0.43026388612E+02  0.46044998896E+01  0.47615990281E+03  0.49295103670E+03  0.12000000000E+03 0.  0.
<mgrwt>
<rscale>  0 0.27006381E+03</rscale>
<asrwt>0</asrwt>
<pdfrwt beam="1">  1        2 0.22185209E+00 0.27006381E+03</pdfrwt>
<pdfrwt beam="2">  1       -2 0.19452820E-02 0.27006381E+03</pdfrwt>
<totfact> 0.11799425E+04</totfact>
</mgrwt>
</event>
<event>
 5    1  0.1100736E+001  0.2734757E+03  0.7818608E-02  0.1099307E+00
          1   -1    0    0  501    0  0.00000000000E+00  0.00000000000E+00  0.40856853462E+02  0.40856853462E+02  0.00000000000E+00 0.  1.
         -1   -1    0    0    0  501 -0.00000000000E+00 -0.00000000000E+00 -0.45762813247E+03  0.45762813247E+03  0.00000000000E+00 0.  1.
         35    2    1    2    0    0  0.00000000000E+00  0.00000000000E+00 -0.41677127900E+03  0.49848498593E+03  0.27347574334E+03 0.  0.
         25    1    3    3    0    0  0.62727804951E+02 -0.19029852327E+02 -0.20733417314E+03  0.24836338729E+03  0.12000000000E+03 0.  0.
         25    1    3    3    0    0 -0.62727804951E+02  0.19029852327E+02 -0.20943710586E+03  0.25012159864E+03  0.12000000000E+03 0.  0.
<mgrwt>
<rscale>  0 0.27347574E+03</rscale>
<asrwt>0</asrwt>
<pdfrwt beam="1">  1        1 0.62856700E-02 0.27347574E+03</pdfrwt>
<pdfrwt beam="2">  1       -1 0.70404325E-01 0.27347574E+03</pdfrwt>
<totfact> 0.25611854E+03</totfact>
</mgrwt>
</event>
<event>
 5    1  0.1100736E+001  0.2773875E+03  0.7818608E-02  0.1097124E+00
         -1   -1    0    0    0  501 -0.00000000000E+00  0.00000000000E+00  0.15637132168E+02  0.15637132168E+02  0.00000000000E+00 0.  1.
          1   -1    0    0  501    0  0.00000000000E+00 -0.00000000000E+00 -0.12301459564E+04  0.12301459564E+04  0.00000000000E+00 0.  1.
         35    2    1    2    0    0  0.00000000000E+00  0.00000000000E+00 -0.12145088242E+04  0.12457830885E+04  0.27738749003E+03 0.  0.
         25    1    3    3    0    0  0.17245412165E+02 -0.26497393730E+02 -0.88543043713E+03  0.89408421030E+03  0.12000000000E+03 0.  0.
         25    1    3    3    0    0 -0.17245412165E+02  0.26497393730E+02 -0.32907838708E+03  0.35169887824E+03  0.12000000000E+03 0.  0.
<mgrwt>
<rscale>  0 0.27738749E+03</rscale>
<asrwt>0</asrwt>
<pdfrwt beam="1">  1        1 0.18925325E+00 0.27738749E+03</pdfrwt>
<pdfrwt beam="2">  1       -1 0.24057123E-02 0.27738749E+03</pdfrwt>
<totfact> 0.57012266E+03</totfact>
</mgrwt>
</event>
<event>
 5    1  0.1100736E+001  0.2690220E+03  0.7818608E-02  0.1101841E+00
          2   -1    0    0  501    0  0.00000000000E+00  0.00000000000E+00  0.50797137654E+02  0.50797137654E+02  0.00000000000E+00 0. -1.
         -2   -1    0    0    0  501 -0.00000000000E+00 -0.00000000000E+00 -0.35618570966E+03  0.35618570966E+03  0.00000000000E+00 0. -1.
         35    2    1    2    0    0  0.00000000000E+00  0.00000000000E+00 -0.30538857201E+03  0.40698284732E+03  0.26902204017E+03 0.  0.
         25    1    3    3    0    0 -0.38904281691E+02  0.37230911489E+02 -0.11007854065E+03  0.17151375751E+03  0.12000000000E+03 0.  0.
         25    1    3    3    0    0  0.38904281691E+02 -0.37230911489E+02 -0.19531003136E+03  0.23546908980E+03  0.12000000000E+03 0.  0.
<mgrwt>
<rscale>  0 0.26902204E+03</rscale>
<asrwt>0</asrwt>
<pdfrwt beam="1">  1        2 0.78149439E-02 0.26902204E+03</pdfrwt>
<pdfrwt beam="2">  1       -2 0.54797804E-01 0.26902204E+03</pdfrwt>
<totfact> 0.27827915E+03</totfact>
</mgrwt>
</event>
<event>
 5    1  0.1100736E+001  0.2753196E+03  0.7818608E-02  0.1098273E+00
         -2   -1    0    0    0  501 -0.00000000000E+00  0.00000000000E+00  0.96122266512E+01  0.96122266512E+01  0.00000000000E+00 0. -1.
          2   -1    0    0  501    0  0.00000000000E+00 -0.00000000000E+00 -0.19714706667E+04  0.19714706667E+04  0.00000000000E+00 0. -1.
         35    2    1    2    0    0  0.00000000000E+00  0.00000000000E+00 -0.19618584400E+04  0.19810828933E+04  0.27531961706E+03 0.  0.
         25    1    3    3    0    0 -0.29555459355E+02 -0.37096303778E+02 -0.63579942179E+03  0.64876079234E+03  0.12000000000E+03 0.  0.
         25    1    3    3    0    0  0.29555459355E+02  0.37096303778E+02 -0.13260590182E+04  0.13323221010E+04  0.12000000000E+03 0.  0.
<mgrwt>
<rscale>  0 0.27531962E+03</rscale>
<asrwt>0</asrwt>
<pdfrwt beam="1">  1        2 0.30330316E+00 0.27531962E+03</pdfrwt>
<pdfrwt beam="2">  1       -2 0.14788042E-02 0.27531962E+03</pdfrwt>
<totfact> 0.92647531E+03</totfact>
</mgrwt>
</event>
<event>
 5    1  0.1100736E+001  0.2728549E+03  0.7818608E-02  0.1099657E+00
         -2   -1    0    0    0  501 -0.00000000000E+00  0.00000000000E+00  0.25685196258E+03  0.25685196258E+03  0.00000000000E+00 0.  1.
          2   -1    0    0  501    0  0.00000000000E+00 -0.00000000000E+00 -0.72463747153E+02  0.72463747153E+02  0.00000000000E+00 0.  1.
         35    2    1    2    0    0  0.00000000000E+00  0.00000000000E+00  0.18438821542E+03  0.32931570973E+03  0.27285494807E+03 0.  0.
         25    1    3    3    0    0  0.43950541269E+02  0.27156320764E+02  0.44779583368E+02  0.13810983644E+03  0.12000000000E+03 0.  0.
         25    1    3    3    0    0 -0.43950541269E+02 -0.27156320764E+02  0.13960863205E+03  0.19120587329E+03  0.12000000000E+03 0.  0.
<mgrwt>
<rscale>  0 0.27285495E+03</rscale>
<asrwt>0</asrwt>
<pdfrwt beam="1">  1        2 0.11148269E-01 0.27285495E+03</pdfrwt>
<pdfrwt beam="2">  1       -2 0.39515686E-01 0.27285495E+03</pdfrwt>
<totfact> 0.33961449E+03</totfact>
</mgrwt>
</event>
<event>
 5    1  0.1100736E+001  0.2757561E+03  0.7818608E-02  0.1098030E+00
         -2   -1    0    0    0  501 -0.00000000000E+00  0.00000000000E+00  0.43019617778E+03  0.43019617778E+03  0.00000000000E+00 0. -1.
          2   -1    0    0  501    0  0.00000000000E+00 -0.00000000000E+00 -0.44189962931E+02  0.44189962931E+02  0.00000000000E+00 0. -1.
         35    2    1    2    0    0  0.00000000000E+00  0.00000000000E+00  0.38600621485E+03  0.47438614071E+03  0.27575607445E+03 0.  0.
         25    1    3    3    0    0  0.37677046514E+02  0.44935109704E+02  0.25188774464E+03  0.28510727773E+03  0.12000000000E+03 0.  0.
         25    1    3    3    0    0 -0.37677046514E+02 -0.44935109704E+02  0.13411847021E+03  0.18927886298E+03  0.12000000000E+03 0.  0.
<mgrwt>
<rscale>  0 0.27575607E+03</rscale>
<asrwt>0</asrwt>
<pdfrwt beam="1">  1        2 0.67984561E-02 0.27575607E+03</pdfrwt>
<pdfrwt beam="2">  1       -2 0.66184025E-01 0.27575607E+03</pdfrwt>
<totfact> 0.22512841E+03</totfact>
</mgrwt>
</event>
<event>
 5    1  0.1100736E+001  0.2746683E+03  0.7818608E-02  0.1098637E+00
         -1   -1    0    0    0  501 -0.00000000000E+00  0.00000000000E+00  0.85178904768E+02  0.85178904768E+02  0.00000000000E+00 0. -1.
          1   -1    0    0  501    0  0.00000000000E+00 -0.00000000000E+00 -0.22142418567E+03  0.22142418567E+03  0.00000000000E+00 0. -1.
         35    2    1    2    0    0  0.00000000000E+00  0.00000000000E+00 -0.13624528090E+03  0.30660309044E+03  0.27466830632E+03 0.  0.
         25    1    3    3    0    0 -0.56695353233E+02  0.15327382794E+02 -0.32622938679E+02  0.13752653515E+03  0.12000000000E+03 0.  0.
         25    1    3    3    0    0  0.56695353233E+02 -0.15327382794E+02 -0.10362234222E+03  0.16907655529E+03  0.12000000000E+03 0.  0.
<mgrwt>
<rscale>  0 0.27466831E+03</rscale>
<asrwt>0</asrwt>
<pdfrwt beam="1">  1        1 0.34065259E-01 0.27466831E+03</pdfrwt>
<pdfrwt beam="2">  1       -1 0.13104447E-01 0.27466831E+03</pdfrwt>
<totfact> 0.51000620E+03</totfact>
</mgrwt>
</event>
<event>
 5    1  0.1100736E+001  0.2753708E+03  0.7818608E-02  0.1098245E+00
          2   -1    0    0  501    0  0.00000000000E+00  0.00000000000E+00  0.47788471037E+03  0.47788471037E+03  0.00000000000E+00 0.  1.
         -2   -1    0    0    0  501 -0.00000000000E+00 -0.00000000000E+00 -0.39669114054E+02  0.39669114054E+02  0.00000000000E+00 0.  1.
         35    2    1    2    0    0  0.00000000000E+00  0.00000000000E+00  0.43821559632E+03  0.51755382442E+03  0.27537075430E+03 0.  0.
         25    1    3    3    0    0 -0.15251818073E+02 -0.64645859567E+02  0.19643235944E+03  0.23957749675E+03  0.12000000000E+03 0.  0.
         25    1    3    3    0    0  0.15251818073E+02  0.64645859567E+02  0.24178323687E+03  0.27797632767E+03  0.12000000000E+03 0.  0.
<mgrwt>
<rscale>  0 0.27537075E+03</rscale>
<asrwt>0</asrwt>
<pdfrwt beam="1">  1        2 0.73520721E-01 0.27537075E+03</pdfrwt>
<pdfrwt beam="2">  1       -2 0.61029409E-02 0.27537075E+03</pdfrwt>
<totfact> 0.93890506E+03</totfact>
</mgrwt>
</event>
<event>
 5    1  0.1100736E+001  0.2853298E+03  0.7818608E-02  0.1092813E+00
         -2   -1    0    0    0  501 -0.00000000000E+00  0.00000000000E+00  0.32606876151E+02  0.32606876151E+02  0.00000000000E+00 0.  1.
          2   -1    0    0  501    0  0.00000000000E+00 -0.00000000000E+00 -0.62420168830E+03  0.62420168830E+03  0.00000000000E+00 0.  1.
         35    2    1    2    0    0  0.00000000000E+00  0.00000000000E+00 -0.59159481215E+03  0.65680856445E+03  0.28532975410E+03 0.  0.
         25    1    3    3    0    0  0.29299734388E+02 -0.39394505351E+02 -0.15878209936E+03  0.20499306467E+03  0.12000000000E+03 0.  0.
         25    1    3    3    0    0 -0.29299734388E+02  0.39394505351E+02 -0.43281271279E+03  0.45181549978E+03  0.12000000000E+03 0.  0.
<mgrwt>
<rscale>  0 0.28532975E+03</rscale>
<asrwt>0</asrwt>
<pdfrwt beam="1">  1        2 0.96031019E-01 0.28532975E+03</pdfrwt>
<pdfrwt beam="2">  1       -2 0.50164430E-02 0.28532975E+03</pdfrwt>
<totfact> 0.93561489E+03</totfact>
</mgrwt>
</event>
<event>
 5    1  0.1100736E+001  0.2749652E+03  0.7818608E-02  0.1098471E+00
         -1   -1    0    0    0  501 -0.00000000000E+00  0.00000000000E+00  0.43949058825E+02  0.43949058825E+02  0.00000000000E+00 0. -1.
          1   -1    0    0  501    0  0.00000000000E+00 -0.00000000000E+00 -0.43007655299E+03  0.43007655299E+03  0.00000000000E+00 0. -1.
         35    2    1    2    0    0  0.00000000000E+00  0.00000000000E+00 -0.38612749417E+03  0.47402561182E+03  0.27496515944E+03 0.  0.
         25    1    3    3    0    0 -0.23750676421E+02 -0.62156628277E+02 -0.17824193936E+03  0.22493939187E+03  0.12000000000E+03 0.  0.
         25    1    3    3    0    0  0.23750676421E+02  0.62156628277E+02 -0.20788555481E+03  0.24908621995E+03  0.12000000000E+03 0.  0.
<mgrwt>
<rscale>  0 0.27496516E+03</rscale>
<asrwt>0</asrwt>
<pdfrwt beam="1">  1        1 0.66165626E-01 0.27496516E+03</pdfrwt>
<pdfrwt beam="2">  1       -1 0.67613934E-02 0.27496516E+03</pdfrwt>
<totfact> 0.61080741E+03</totfact>
</mgrwt>
</event>
<event>
 5    1  0.1100736E+001  0.2741209E+03  0.7818608E-02  0.1098944E+00
         -2   -1    0    0    0  501 -0.00000000000E+00  0.00000000000E+00  0.40979464673E+02  0.40979464673E+02  0.00000000000E+00 0. -1.
          2   -1    0    0  501    0  0.00000000000E+00 -0.00000000000E+00 -0.45841416110E+03  0.45841416110E+03  0.00000000000E+00 0. -1.
         35    2    1    2    0    0  0.00000000000E+00  0.00000000000E+00 -0.41743469643E+03  0.49939362577E+03  0.27412089975E+03 0.  0.
         25    1    3    3    0    0 -0.36025264274E+02  0.55402642848E+02 -0.20092514686E+03  0.24318344340E+03  0.12000000000E+03 0.  0.
         25    1    3    3    0    0  0.36025264274E+02 -0.55402642848E+02 -0.21650954956E+03  0.25621018237E+03  0.12000000000E+03 0.  0.
<mgrwt>
<rscale>  0 0.27412090E+03</rscale>
<asrwt>0</asrwt>
<pdfrwt beam="1">  1        2 0.70525253E-01 0.27412090E+03</pdfrwt>
<pdfrwt beam="2">  1       -2 0.63045332E-02 0.27412090E+03</pdfrwt>
<totfact> 0.93508051E+03</totfact>
</mgrwt>
</event>
<event>
 5    1  0.1100736E+001  0.2750198E+03  0.7818608E-02  0.1098441E+00
          1   -1    0    0  501    0  0.00000000000E+00  0.00000000000E+00  0.21832422337E+03  0.21832422337E+03  0.00000000000E+00 0.  1.
         -1   -1    0    0    0  501 -0.00000000000E+00 -0.00000000000E+00 -0.86609573616E+02  0.86609573616E+02  0.00000000000E+00 0.  1.
         35    2    1    2    0    0  0.00000000000E+00  0.00000000000E+00  0.13171464975E+03  0.30493379699E+03  0.27501976581E+03 0.  0.
         25    1    3    3    0    0 -0.52001999332E+02 -0.25546701576E+02  0.10349230079E+03  0.16872314073E+03  0.12000000000E+03 0.  0.
         25    1    3    3    0    0  0.52001999332E+02  0.25546701576E+02  0.28222348964E+02  0.13621065625E+03  0.12000000000E+03 0.  0.
<mgrwt>
<rscale>  0 0.27501977E+03</rscale>
<asrwt>0</asrwt>
<pdfrwt beam="1">  1        1 0.33588342E-01 0.27501977E+03</pdfrwt>
<pdfrwt beam="2">  1       -1 0.13324550E-01 0.27501977E+03</pdfrwt>
<totfact> 0.50573009E+03</totfact>
</mgrwt>
</event>
<event>
 5    1  0.1100736E+001  0.2751005E+03  0.7818608E-02  0.1098395E+00
         -2   -1    0    0    0  501 -0.00000000000E+00  0.00000000000E+00  0.27764509795E+02  0.27764509795E+02  0.00000000000E+00 0.  1.
          2   -1    0    0  501    0  0.00000000000E+00 -0.00000000000E+00 -0.68144821235E+03  0.68144821235E+03  0.00000000000E+00 0.  1.
         35    2    1    2    0    0  0.00000000000E+00  0.00000000000E+00 -0.65368370255E+03  0.70921272214E+03  0.27510053120E+03 0.  0.
         25    1    3    3    0    0 -0.35070390368E+02  0.55241183575E+02 -0.28702386610E+03  0.31790599295E+03  0.12000000000E+03 0.  0.
         25    1    3    3    0    0  0.35070390368E+02 -0.55241183575E+02 -0.36665983645E+03  0.39130672919E+03  0.12000000000E+03 0.  0.
<mgrwt>
<rscale>  0 0.27510053E+03</rscale>
<asrwt>0</asrwt>
<pdfrwt beam="1">  1        2 0.10483819E+00 0.27510053E+03</pdfrwt>
<pdfrwt beam="2">  1       -2 0.42714628E-02 0.27510053E+03</pdfrwt>
<totfact> 0.10740024E+04</totfact>
</mgrwt>
</event>
<event>
 5    1  0.1100736E+001  0.2764765E+03  0.7818608E-02  0.1097629E+00
         -1   -1    0    0    0  501 -0.00000000000E+00  0.00000000000E+00  0.56784853111E+03  0.56784853111E+03  0.00000000000E+00 0.  1.
          1   -1    0    0  501    0  0.00000000000E+00 -0.00000000000E+00 -0.33653023614E+02  0.33653023614E+02  0.00000000000E+00 0.  1.
         35    2    1    2    0    0  0.00000000000E+00  0.00000000000E+00  0.53419550750E+03  0.60150155473E+03  0.27647654531E+03 0.  0.
         25    1    3    3    0    0 -0.23957717485E+02 -0.32018657441E+02  0.38843783179E+03  0.40851329944E+03  0.12000000000E+03 0.  0.
         25    1    3    3    0    0  0.23957717485E+02  0.32018657441E+02  0.14575767571E+03  0.19298825529E+03  0.12000000000E+03 0.  0.
<mgrwt>
<rscale>  0 0.27647655E+03</rscale>
<asrwt>0</asrwt>
<pdfrwt beam="1">  1        1 0.51773887E-02 0.27647655E+03</pdfrwt>
<pdfrwt beam="2">  1       -1 0.87361305E-01 0.27647655E+03</pdfrwt>
<totfact> 0.21449423E+03</totfact>
</mgrwt>
</event>
<event>
 5    1  0.1100736E+001  0.2718430E+03  0.7818608E-02  0.1100229E+00
          2   -1    0    0  501    0  0.00000000000E+00  0.00000000000E+00  0.47603740806E+03  0.47603740806E+03  0.00000000000E+00 0. -1.
         -2   -1    0    0    0  501 -0.00000000000E+00 -0.00000000000E+00 -0.38809234630E+02  0.38809234630E+02  0.00000000000E+00 0. -1.
         35    2    1    2    0    0  0.00000000000E+00  0.00000000000E+00  0.43722817343E+03  0.51484664269E+03  0.27184295071E+03 0.  0.
         25    1    3    3    0    0 -0.37441829078E+01  0.73066299668E+01  0.98724191861E+02  0.15560807115E+03  0.12000000000E+03 0.  0.
         25    1    3    3    0    0  0.37441829078E+01 -0.73066299668E+01  0.33850398157E+03  0.35923857154E+03  0.12000000000E+03 0.  0.
<mgrwt>
<rscale>  0 0.27184295E+03</rscale>
<asrwt>0</asrwt>
<pdfrwt beam="1">  1        2 0.73236520E-01 0.27184295E+03</pdfrwt>
<pdfrwt beam="2">  1       -2 0.59706518E-02 0.27184295E+03</pdfrwt>
<totfact> 0.97470810E+03</totfact>
</mgrwt>
</event>
<event>
 5    1  0.1100736E+001  0.2862142E+03  0.7818608E-02  0.1092342E+00
         -1   -1    0    0    0  501 -0.00000000000E+00  0.00000000000E+00  0.12502244654E+02  0.12502244654E+02  0.00000000000E+00 0.  1.
          1   -1    0    0  501    0  0.00000000000E+00 -0.00000000000E+00 -0.16380772909E+04  0.16380772909E+04  0.00000000000E+00 0.  1.
         35    2    1    2    0    0  0.00000000000E+00  0.00000000000E+00 -0.16255750463E+04  0.16505795356E+04  0.28621420687E+03 0.  0.
         25    1    3    3    0    0  0.53653763314E+02 -0.40773080415E+02 -0.58658879476E+03  0.60251770475E+03  0.12000000000E+03 0.  0.
         25    1    3    3    0    0 -0.53653763314E+02  0.40773080415E+02 -0.10389862515E+04  0.10480618308E+04  0.12000000000E+03 0.  0.
<mgrwt>
<rscale>  0 0.28621421E+03</rscale>
<asrwt>0</asrwt>
<pdfrwt beam="1">  1        1 0.25201186E+00 0.28621421E+03</pdfrwt>
<pdfrwt beam="2">  1       -1 0.19234225E-02 0.28621421E+03</pdfrwt>
<totfact> 0.42144244E+03</totfact>
</mgrwt>
</event>
<event>
 5    1  0.1100736E+001  0.2749819E+03  0.7818608E-02  0.1098462E+00
         -2   -1    0    0    0  501 -0.00000000000E+00  0.00000000000E+00  0.45324561310E+02  0.45324561310E+02  0.00000000000E+00 0.  1.
          2   -1    0    0  501    0  0.00000000000E+00 -0.00000000000E+00 -0.41707536561E+03  0.41707536561E+03  0.00000000000E+00 0.  1.
         35    2    1    2    0    0  0.00000000000E+00  0.00000000000E+00 -0.37175080430E+03  0.46239992692E+03  0.27498187562E+03 0.  0.
         25    1    3    3    0    0  0.37353872574E+02  0.55647437425E+02 -0.18009686048E+03  0.22655425011E+03  0.12000000000E+03 0.  0.
         25    1    3    3    0    0 -0.37353872574E+02 -0.55647437425E+02 -0.19165394381E+03  0.23584567681E+03  0.12000000000E+03 0.  0.
<mgrwt>
<rscale>  0 0.27498188E+03</rscale>
<asrwt>0</asrwt>
<pdfrwt beam="1">  1        2 0.64165441E-01 0.27498188E+03</pdfrwt>
<pdfrwt beam="2">  1       -2 0.69730094E-02 0.27498188E+03</pdfrwt>
<totfact> 0.88794414E+03</totfact>
</mgrwt>
</event>
<event>
 5    1  0.1100736E+001  0.2768985E+03  0.7818608E-02  0.1097395E+00
         -1   -1    0    0    0  501 -0.00000000000E+00  0.00000000000E+00  0.13940316853E+03  0.13940316853E+03  0.00000000000E+00 0.  1.
          1   -1    0    0  501    0  0.00000000000E+00 -0.00000000000E+00 -0.13750181840E+03  0.13750181840E+03  0.00000000000E+00 0.  1.
         35    2    1    2    0    0  0.00000000000E+00  0.00000000000E+00  0.19013501300E+01  0.27690498694E+03  0.27689845911E+03 0.  0.
         25    1    3    3    0    0 -0.20388760588E+02 -0.10489139770E+02 -0.64185072309E+02  0.13800524308E+03  0.12000000000E+03 0.  0.
         25    1    3    3    0    0  0.20388760588E+02  0.10489139770E+02  0.66086422439E+02  0.13889974385E+03  0.12000000000E+03 0.  0.
<mgrwt>
<rscale>  0 0.27689846E+03</rscale>
<asrwt>0</asrwt>
<pdfrwt beam="1">  1        1 0.21154126E-01 0.27689846E+03</pdfrwt>
<pdfrwt beam="2">  1       -1 0.21446641E-01 0.27689846E+03</pdfrwt>
<totfact> 0.42420035E+03</totfact>
</mgrwt>
</event>
<event>
 5    1  0.1100736E+001  0.2749303E+03  0.7818608E-02  0.1098491E+00
         -2   -1    0    0    0  501 -0.00000000000E+00  0.00000000000E+00  0.10066354579E+03  0.10066354579E+03  0.00000000000E+00 0.  1.
          2   -1    0    0  501    0  0.00000000000E+00 -0.00000000000E+00 -0.18772102711E+03  0.18772102711E+03  0.00000000000E+00 0.  1.
         35    2    1    2    0    0  0.00000000000E+00  0.00000000000E+00 -0.87057481324E+02  0.28838457290E+03  0.27493027631E+03 0.  0.
         25    1    3    3    0    0  0.60508519592E+02 -0.27287969770E+02 -0.53521207197E+02  0.14720881039E+03  0.12000000000E+03 0.  0.
         25    1    3    3    0    0 -0.60508519592E+02  0.27287969770E+02 -0.33536274127E+02  0.14117576251E+03  0.12000000000E+03 0.  0.
<mgrwt>
<rscale>  0 0.27493028E+03</rscale>
<asrwt>0</asrwt>
<pdfrwt beam="1">  1        2 0.28880158E-01 0.27493028E+03</pdfrwt>
<pdfrwt beam="2">  1       -2 0.15486699E-01 0.27493028E+03</pdfrwt>
<totfact> 0.58934565E+03</totfact>
</mgrwt>
</event>
<event>
 5    1  0.1100736E+001  0.2733657E+03  0.7818608E-02  0.1099369E+00
          1   -1    0    0  501    0  0.00000000000E+00  0.00000000000E+00  0.11651781849E+03  0.11651781849E+03  0.00000000000E+00 0.  1.
         -1   -1    0    0    0  501 -0.00000000000E+00 -0.00000000000E+00 -0.16033770056E+03  0.16033770056E+03  0.00000000000E+00 0.  1.
         35    2    1    2    0    0  0.00000000000E+00  0.00000000000E+00 -0.43819882074E+02  0.27685551905E+03  0.27336568249E+03 0.  0.
         25    1    3    3    0    0  0.83585781632E+01  0.43088402856E+02  0.27245464637E+02  0.13064758564E+03  0.12000000000E+03 0.  0.
         25    1    3    3    0    0 -0.83585781632E+01 -0.43088402856E+02 -0.71065346711E+02  0.14620793341E+03  0.12000000000E+03 0.  0.
<mgrwt>
<rscale>  0 0.27336568E+03</rscale>
<asrwt>0</asrwt>
<pdfrwt beam="1">  1        1 0.17925818E-01 0.27336568E+03</pdfrwt>
<pdfrwt beam="2">  1       -1 0.24667338E-01 0.27336568E+03</pdfrwt>
<totfact> 0.41692952E+03</totfact>
</mgrwt>
</event>
<event>
 5    1  0.1100736E+001  0.2750369E+03  0.7818608E-02  0.1098431E+00
          3   -1    0    0  501    0  0.00000000000E+00  0.00000000000E+00  0.21177037164E+02  0.21177037164E+02  0.00000000000E+00 0.  1.
         -3   -1    0    0    0  501 -0.00000000000E+00 -0.00000000000E+00 -0.89301098782E+03  0.89301098782E+03  0.00000000000E+00 0.  1.
         35    2    1    2    0    0  0.00000000000E+00  0.00000000000E+00 -0.87183395065E+03  0.91418802498E+03  0.27503692026E+03 0.  0.
         25    1    3    3    0    0 -0.51800062099E+02  0.20733629052E+02 -0.31162911097E+03  0.33856436997E+03  0.12000000000E+03 0.  0.
         25    1    3    3    0    0  0.51800062099E+02 -0.20733629052E+02 -0.56020483968E+03  0.57562365501E+03  0.12000000000E+03 0.  0.
<mgrwt>
<rscale>  0 0.27503692E+03</rscale>
<asrwt>0</asrwt>
<pdfrwt beam="1">  1        3 0.32580054E-02 0.27503692E+03</pdfrwt>
<pdfrwt beam="2">  1       -3 0.13738632E+00 0.27503692E+03</pdfrwt>
<totfact> 0.48373245E+02</totfact>
</mgrwt>
</event>
<event>
 5    1  0.1100736E+001  0.2747946E+03  0.7818608E-02  0.1098566E+00
          1   -1    0    0  501    0  0.00000000000E+00  0.00000000000E+00  0.27077814966E+02  0.27077814966E+02  0.00000000000E+00 0. -1.
         -1   -1    0    0    0  501 -0.00000000000E+00 -0.00000000000E+00 -0.69717639589E+03  0.69717639589E+03  0.00000000000E+00 0. -1.
         35    2    1    2    0    0  0.00000000000E+00  0.00000000000E+00 -0.67009858092E+03  0.72425421086E+03  0.27479456652E+03 0.  0.
         25    1    3    3    0    0  0.26200272438E+02 -0.44888736814E+02 -0.44613875819E+03  0.46490993163E+03  0.12000000000E+03 0.  0.
         25    1    3    3    0    0 -0.26200272438E+02  0.44888736814E+02 -0.22395982273E+03  0.25934427922E+03  0.12000000000E+03 0.  0.
<mgrwt>
<rscale>  0 0.27479457E+03</rscale>
<asrwt>0</asrwt>
<pdfrwt beam="1">  1        1 0.41658178E-02 0.27479457E+03</pdfrwt>
<pdfrwt beam="2">  1       -1 0.10725791E+00 0.27479457E+03</pdfrwt>
<totfact> 0.18454028E+03</totfact>
</mgrwt>
</event>
<event>
 5    1  0.1100736E+001  0.2751514E+03  0.7818608E-02  0.1098367E+00
          1   -1    0    0  501    0  0.00000000000E+00  0.00000000000E+00  0.48940988770E+03  0.48940988770E+03  0.00000000000E+00 0.  1.
         -1   -1    0    0    0  501 -0.00000000000E+00 -0.00000000000E+00 -0.38673255385E+02  0.38673255385E+02  0.00000000000E+00 0.  1.
         35    2    1    2    0    0  0.00000000000E+00  0.00000000000E+00  0.45073663231E+03  0.52808314308E+03  0.27515140250E+03 0.  0.
         25    1    3    3    0    0  0.15769200237E+02  0.63633366054E+02  0.19631213924E+03  0.23924115232E+03  0.12000000000E+03 0.  0.
         25    1    3    3    0    0 -0.15769200237E+02 -0.63633366054E+02  0.25442449308E+03  0.28884199076E+03  0.12000000000E+03 0.  0.
<mgrwt>
<rscale>  0 0.27515140E+03</rscale>
<asrwt>0</asrwt>
<pdfrwt beam="1">  1        1 0.75293824E-01 0.27515140E+03</pdfrwt>
<pdfrwt beam="2">  1       -1 0.59497320E-02 0.27515140E+03</pdfrwt>
<totfact> 0.62582959E+03</totfact>
</mgrwt>
</event>
<event>
 5    1  0.1100736E+001  0.2759561E+03  0.7818608E-02  0.1097918E+00
         -2   -1    0    0    0  501 -0.00000000000E+00  0.00000000000E+00  0.12499700496E+03  0.12499700496E+03  0.00000000000E+00 0. -1.
          2   -1    0    0  501    0  0.00000000000E+00 -0.00000000000E+00 -0.15230721437E+03  0.15230721437E+03  0.00000000000E+00 0. -1.
         35    2    1    2    0    0  0.00000000000E+00  0.00000000000E+00 -0.27310209410E+02  0.27730421932E+03  0.27595612426E+03 0.  0.
         25    1    3    3    0    0  0.45025474301E+01  0.67436927150E+02 -0.22058585943E+02  0.13947972358E+03  0.12000000000E+03 0.  0.
         25    1    3    3    0    0 -0.45025474301E+01 -0.67436927150E+02 -0.52516234669E+01  0.13782449574E+03  0.12000000000E+03 0.  0.
<mgrwt>
<rscale>  0 0.27595612E+03</rscale>
<asrwt>0</asrwt>
<pdfrwt beam="1">  1        2 0.23431879E-01 0.27595612E+03</pdfrwt>
<pdfrwt beam="2">  1       -2 0.19230309E-01 0.27595612E+03</pdfrwt>
<totfact> 0.51713290E+03</totfact>
</mgrwt>
</event>
<event>
 5    1  0.1100736E+001  0.2747287E+03  0.7818608E-02  0.1098603E+00
          2   -1    0    0  501    0  0.00000000000E+00  0.00000000000E+00  0.13040477767E+03  0.13040477767E+03  0.00000000000E+00 0.  1.
         -2   -1    0    0    0  501 -0.00000000000E+00 -0.00000000000E+00 -0.14469537918E+03  0.14469537918E+03  0.00000000000E+00 0.  1.
         35    2    1    2    0    0  0.00000000000E+00  0.00000000000E+00 -0.14290601510E+02  0.27510015685E+03  0.27472872985E+03 0.  0.
         25    1    3    3    0    0 -0.29490732117E+02  0.57459942150E+02  0.10129704758E+02  0.13665269537E+03  0.12000000000E+03 0.  0.
         25    1    3    3    0    0  0.29490732117E+02 -0.57459942150E+02 -0.24420306268E+02  0.13844746148E+03  0.12000000000E+03 0.  0.
<mgrwt>
<rscale>  0 0.27472873E+03</rscale>
<asrwt>0</asrwt>
<pdfrwt beam="1">  1        2 0.20062274E-01 0.27472873E+03</pdfrwt>
<pdfrwt beam="2">  1       -2 0.22260827E-01 0.27472873E+03</pdfrwt>
<totfact> 0.47954507E+03</totfact>
</mgrwt>
</event>
<event>
 4    1  0.1100736E+001  0.2585531E+03  0.7818608E-02  0.1108016E+00
         -2   -1    0    0    0  501 -0.00000000000E+00  0.00000000000E+00  0.34962210279E+02  0.34962210279E+02  0.00000000000E+00 0.  1.
          2   -1    0    0  501    0  0.00000000000E+00 -0.00000000000E+00 -0.47801388891E+03  0.47801388891E+03  0.00000000000E+00 0.  1.
         25    1    1    2    0    0  0.22994739828E+01  0.47219485752E+02 -0.23898692662E+03  0.27156899401E+03  0.12000000000E+03 0.  0.
         25    1    1    2    0    0 -0.22994739828E+01 -0.47219485752E+02 -0.20406475202E+03  0.24140710518E+03  0.12000000000E+03 0.  0.
<mgrwt>
<rscale>  0 0.25855307E+03</rscale>
<asrwt>0</asrwt>
<pdfrwt beam="1">  1        2 0.73540584E-01 0.25855307E+03</pdfrwt>
<pdfrwt beam="2">  1       -2 0.53788026E-02 0.25855307E+03</pdfrwt>
<totfact> 0.11356817E+04</totfact>
</mgrwt>
</event>
<event>
 5    1  0.1100736E+001  0.2740468E+03  0.7818608E-02  0.1098986E+00
          2   -1    0    0  501    0  0.00000000000E+00  0.00000000000E+00  0.13885663065E+03  0.13885663065E+03  0.00000000000E+00 0. -1.
         -2   -1    0    0    0  501 -0.00000000000E+00 -0.00000000000E+00 -0.13521434693E+03  0.13521434693E+03  0.00000000000E+00 0. -1.
         35    2    1    2    0    0  0.00000000000E+00  0.00000000000E+00  0.36422837184E+01  0.27407097758E+03  0.27404677433E+03 0.  0.
         25    1    3    3    0    0  0.50725633593E+02 -0.41704295555E+02 -0.61212506879E+01  0.13692993786E+03  0.12000000000E+03 0.  0.
         25    1    3    3    0    0 -0.50725633593E+02  0.41704295555E+02  0.97635344063E+01  0.13714103972E+03  0.12000000000E+03 0.  0.
<mgrwt>
<rscale>  0 0.27404677E+03</rscale>
<asrwt>0</asrwt>
<pdfrwt beam="1">  1        2 0.21362559E-01 0.27404677E+03</pdfrwt>
<pdfrwt beam="2">  1       -2 0.20802207E-01 0.27404677E+03</pdfrwt>
<totfact> 0.50179475E+03</totfact>
</mgrwt>
</event>
<event>
 5    1  0.1100736E+001  0.2753730E+03  0.7818608E-02  0.1098243E+00
         -2   -1    0    0    0  501 -0.00000000000E+00  0.00000000000E+00  0.45652399614E+02  0.45652399614E+02  0.00000000000E+00 0. -1.
          2   -1    0    0  501    0  0.00000000000E+00 -0.00000000000E+00 -0.41525916532E+03  0.41525916532E+03  0.00000000000E+00 0. -1.
         35    2    1    2    0    0  0.00000000000E+00  0.00000000000E+00 -0.36960676570E+03  0.46091156493E+03  0.27537303687E+03 0.  0.
         25    1    3    3    0    0  0.42788751432E+02  0.50349805020E+02 -0.16163526148E+03  0.21187717637E+03  0.12000000000E+03 0.  0.
         25    1    3    3    0    0 -0.42788751432E+02 -0.50349805020E+02 -0.20797150423E+03  0.24903438856E+03  0.12000000000E+03 0.  0.
<mgrwt>
<rscale>  0 0.27537304E+03</rscale>
<asrwt>0</asrwt>
<pdfrwt beam="1">  1        2 0.63886023E-01 0.27537304E+03</pdfrwt>
<pdfrwt beam="2">  1       -2 0.70234464E-02 0.27537304E+03</pdfrwt>
<totfact> 0.88232875E+03</totfact>
</mgrwt>
</event>
<event>
 5    1  0.1100736E+001  0.2748948E+03  0.7818608E-02  0.1098510E+00
         -1   -1    0    0    0  501 -0.00000000000E+00  0.00000000000E+00  0.46757027758E+03  0.46757027758E+03  0.00000000000E+00 0.  1.
          1   -1    0    0  501    0  0.00000000000E+00 -0.00000000000E+00 -0.40404156685E+02  0.40404156685E+02  0.00000000000E+00 0.  1.
         35    2    1    2    0    0  0.00000000000E+00  0.00000000000E+00  0.42716612090E+03  0.50797443427E+03  0.27489476355E+03 0.  0.
         25    1    3    3    0    0  0.41681024595E+02  0.96613300208E+01  0.30890848132E+03  0.33414831878E+03  0.12000000000E+03 0.  0.
         25    1    3    3    0    0 -0.41681024595E+02 -0.96613300208E+01  0.11825763958E+03  0.17382611549E+03  0.12000000000E+03 0.  0.
<mgrwt>
<rscale>  0 0.27489476E+03</rscale>
<asrwt>0</asrwt>
<pdfrwt beam="1">  1        1 0.62160244E-02 0.27489476E+03</pdfrwt>
<pdfrwt beam="2">  1       -1 0.71933885E-01 0.27489476E+03</pdfrwt>
<totfact> 0.24912102E+03</totfact>
</mgrwt>
</event>
<event>
 5    1  0.1100736E+001  0.2748647E+03  0.7818608E-02  0.1098527E+00
          4   -1    0    0  501    0  0.00000000000E+00  0.00000000000E+00  0.23373875841E+02  0.23373875841E+02  0.00000000000E+00 0. -1.
         -4   -1    0    0    0  501 -0.00000000000E+00 -0.00000000000E+00 -0.80806682600E+03  0.80806682600E+03  0.00000000000E+00 0. -1.
         35    2    1    2    0    0  0.00000000000E+00  0.00000000000E+00 -0.78469295016E+03  0.83144070184E+03  0.27486472063E+03 0.  0.
         25    1    3    3    0    0  0.20457854545E+02 -0.56390805188E+01 -0.20014379565E+03  0.23432426673E+03  0.12000000000E+03 0.  0.
         25    1    3    3    0    0 -0.20457854545E+02  0.56390805188E+01 -0.58454915451E+03  0.59711643511E+03  0.12000000000E+03 0.  0.
<mgrwt>
<rscale>  0 0.27486472E+03</rscale>
<asrwt>0</asrwt>
<pdfrwt beam="1">  1        4 0.35959815E-02 0.27486472E+03</pdfrwt>
<pdfrwt beam="2">  1       -4 0.12431795E+00 0.27486472E+03</pdfrwt>
<totfact> 0.38464393E+02</totfact>
</mgrwt>
</event>
<event>
 5    1  0.1100736E+001  0.2733934E+03  0.7818608E-02  0.1099353E+00
          2   -1    0    0  501    0  0.00000000000E+00  0.00000000000E+00  0.75875205801E+03  0.75875205801E+03  0.00000000000E+00 0. -1.
         -2   -1    0    0    0  501 -0.00000000000E+00 -0.00000000000E+00 -0.24627268865E+02  0.24627268865E+02  0.00000000000E+00 0. -1.
         35    2    1    2    0    0  0.00000000000E+00  0.00000000000E+00  0.73412478914E+03  0.78337932687E+03  0.27339342300E+03 0.  0.
         25    1    3    3    0    0 -0.38314791073E+02 -0.51841590711E+02  0.33433951860E+03  0.36102422002E+03  0.12000000000E+03 0.  0.
         25    1    3    3    0    0  0.38314791073E+02  0.51841590711E+02  0.39978527054E+03  0.42235510685E+03  0.12000000000E+03 0.  0.
<mgrwt>
<rscale>  0 0.27339342E+03</rscale>
<asrwt>0</asrwt>
<pdfrwt beam="1">  1        2 0.11673107E+00 0.27339342E+03</pdfrwt>
<pdfrwt beam="2">  1       -2 0.37888112E-02 0.27339342E+03</pdfrwt>
<totfact> 0.11274769E+04</totfact>
</mgrwt>
</event>
<event>
 5    1  0.1100736E+001  0.2757662E+03  0.7818608E-02  0.1098024E+00
          1   -1    0    0  501    0  0.00000000000E+00  0.00000000000E+00  0.20590498285E+02  0.20590498285E+02  0.00000000000E+00 0. -1.
         -1   -1    0    0    0  501 -0.00000000000E+00 -0.00000000000E+00 -0.92332642801E+03  0.92332642801E+03  0.00000000000E+00 0. -1.
         35    2    1    2    0    0  0.00000000000E+00  0.00000000000E+00 -0.90273592972E+03  0.94391692630E+03  0.27576621427E+03 0.  0.
         25    1    3    3    0    0 -0.46495712448E+02 -0.18828028644E+02 -0.60805271710E+03  0.62180740806E+03  0.12000000000E+03 0.  0.
         25    1    3    3    0    0  0.46495712448E+02  0.18828028644E+02 -0.29468321262E+03  0.32210951824E+03  0.12000000000E+03 0.  0.
<mgrwt>
<rscale>  0 0.27576621E+03</rscale>
<asrwt>0</asrwt>
<pdfrwt beam="1">  1        1 0.31677692E-02 0.27576621E+03</pdfrwt>
<pdfrwt beam="2">  1       -1 0.14205021E+00 0.27576621E+03</pdfrwt>
<totfact> 0.13744667E+03</totfact>
</mgrwt>
</event>
<event>
 4    1  0.1100736E+001  0.3079003E+03  0.7818608E-02  0.1081357E+00
         -1   -1    0    0    0  501 -0.00000000000E+00  0.00000000000E+00  0.78560852331E+02  0.78560852331E+02  0.00000000000E+00 0. -1.
          1   -1    0    0  501    0  0.00000000000E+00 -0.00000000000E+00 -0.30168527918E+03  0.30168527918E+03  0.00000000000E+00 0. -1.
         25    1    1    2    0    0 -0.34965145895E+02  0.61628741783E+02 -0.19235563559E+03  0.23753179531E+03  0.12000000000E+03 0.  0.
         25    1    1    2    0    0  0.34965145895E+02 -0.61628741783E+02 -0.30768791260E+02  0.14271433620E+03  0.12000000000E+03 0.  0.
<mgrwt>
<rscale>  0 0.30790033E+03</rscale>
<asrwt>0</asrwt>
<pdfrwt beam="1">  1        1 0.46413120E-01 0.30790033E+03</pdfrwt>
<pdfrwt beam="2">  1       -1 0.12086285E-01 0.30790033E+03</pdfrwt>
<totfact> 0.39359259E+03</totfact>
</mgrwt>
</event>
<event>
 5    1  0.1100736E+001  0.2746863E+03  0.7818608E-02  0.1098627E+00
         -4   -1    0    0    0  501 -0.00000000000E+00  0.00000000000E+00  0.14042765648E+03  0.14042765648E+03  0.00000000000E+00 0. -1.
          4   -1    0    0  501    0  0.00000000000E+00 -0.00000000000E+00 -0.13432638464E+03  0.13432638464E+03  0.00000000000E+00 0. -1.
         35    2    1    2    0    0  0.00000000000E+00  0.00000000000E+00  0.61012718433E+01  0.27475404111E+03  0.27468628941E+03 0.  0.
         25    1    3    3    0    0  0.32746349735E+02  0.31366452530E+02 -0.46022260251E+02  0.13628729289E+03  0.12000000000E+03 0.  0.
         25    1    3    3    0    0 -0.32746349735E+02 -0.31366452530E+02  0.52123532094E+02  0.13846674822E+03  0.12000000000E+03 0.  0.
<mgrwt>
<rscale>  0 0.27468629E+03</rscale>
<asrwt>0</asrwt>
<pdfrwt beam="1">  1        4 0.20665598E-01 0.27468629E+03</pdfrwt>
<pdfrwt beam="2">  1       -4 0.21604255E-01 0.27468629E+03</pdfrwt>
<totfact> 0.78168111E+02</totfact>
</mgrwt>
</event>
<event>
 5    1  0.1100736E+001  0.2730019E+03  0.7818608E-02  0.1099574E+00
          2   -1    0    0  501    0  0.00000000000E+00  0.00000000000E+00  0.23018833411E+03  0.23018833411E+03  0.00000000000E+00 0. -1.
         -2   -1    0    0    0  501 -0.00000000000E+00 -0.00000000000E+00 -0.80944611279E+02  0.80944611279E+02  0.00000000000E+00 0. -1.
         35    2    1    2    0    0  0.00000000000E+00  0.00000000000E+00  0.14924372284E+03  0.31113294539E+03  0.27300186978E+03 0.  0.
         25    1    3    3    0    0  0.40398237579E+02  0.46856614072E+02  0.97555796756E+02  0.16656738385E+03  0.12000000000E+03 0.  0.
         25    1    3    3    0    0 -0.40398237579E+02 -0.46856614072E+02  0.51687926079E+02  0.14456556154E+03  0.12000000000E+03 0.  0.
<mgrwt>
<rscale>  0 0.27300187E+03</rscale>
<asrwt>0</asrwt>
<pdfrwt beam="1">  1        2 0.35413590E-01 0.27300187E+03</pdfrwt>
<pdfrwt beam="2">  1       -2 0.12453017E-01 0.27300187E+03</pdfrwt>
<totfact> 0.67401146E+03</totfact>
</mgrwt>
</event>
<event>
 5    1  0.1100736E+001  0.2752844E+03  0.7818608E-02  0.1098293E+00
          2   -1    0    0  501    0  0.00000000000E+00  0.00000000000E+00  0.39275236554E+03  0.39275236554E+03  0.00000000000E+00 0. -1.
         -2   -1    0    0    0  501 -0.00000000000E+00 -0.00000000000E+00 -0.48237470380E+02  0.48237470380E+02  0.00000000000E+00 0. -1.
         35    2    1    2    0    0  0.00000000000E+00  0.00000000000E+00  0.34451489516E+03  0.44098983592E+03  0.27528443908E+03 0.  0.
         25    1    3    3    0    0 -0.11373092594E+01 -0.63050405897E+02  0.21046078466E+03  0.25034054613E+03  0.12000000000E+03 0.  0.
         25    1    3    3    0    0  0.11373092594E+01  0.63050405897E+02  0.13405411050E+03  0.19064928980E+03  0.12000000000E+03 0.  0.
<mgrwt>
<rscale>  0 0.27528444E+03</rscale>
<asrwt>0</asrwt>
<pdfrwt beam="1">  1        2 0.60423439E-01 0.27528444E+03</pdfrwt>
<pdfrwt beam="2">  1       -2 0.74211495E-02 0.27528444E+03</pdfrwt>
<totfact> 0.86067233E+03</totfact>
</mgrwt>
</event>
<event>
 5    1  0.1100736E+001  0.2749816E+03  0.7818608E-02  0.1098462E+00
          2   -1    0    0  501    0  0.00000000000E+00  0.00000000000E+00  0.22565560810E+03  0.22565560810E+03  0.00000000000E+00 0. -1.
         -2   -1    0    0    0  501 -0.00000000000E+00 -0.00000000000E+00 -0.83772421450E+02  0.83772421450E+02  0.00000000000E+00 0. -1.
         35    2    1    2    0    0  0.00000000000E+00  0.00000000000E+00  0.14188318665E+03  0.30942802955E+03  0.27498157541E+03 0.  0.
         25    1    3    3    0    0 -0.12433836957E+02 -0.19629176629E+02  0.14178714239E+03  0.18719908821E+03  0.12000000000E+03 0.  0.
         25    1    3    3    0    0  0.12433836957E+02  0.19629176629E+02  0.96044250848E-01  0.12222894134E+03  0.12000000000E+03 0.  0.
<mgrwt>
<rscale>  0 0.27498158E+03</rscale>
<asrwt>0</asrwt>
<pdfrwt beam="1">  1        2 0.34716247E-01 0.27498158E+03</pdfrwt>
<pdfrwt beam="2">  1       -2 0.12888065E-01 0.27498158E+03</pdfrwt>
<totfact> 0.65156635E+03</totfact>
</mgrwt>
</event>
<event>
 5    1  0.1100736E+001  0.2744041E+03  0.7818608E-02  0.1098785E+00
          4   -1    0    0  501    0  0.00000000000E+00  0.00000000000E+00  0.18918973414E+02  0.18918973414E+02  0.00000000000E+00 0. -1.
         -4   -1    0    0    0  501 -0.00000000000E+00 -0.00000000000E+00 -0.99500127664E+03  0.99500127664E+03  0.00000000000E+00 0. -1.
         35    2    1    2    0    0  0.00000000000E+00  0.00000000000E+00 -0.97608230322E+03  0.10139202501E+04  0.27440410128E+03 0.  0.
         25    1    3    3    0    0  0.20871427176E+02  0.28362937770E+02 -0.69654891617E+03  0.70768669998E+03  0.12000000000E+03 0.  0.
         25    1    3    3    0    0 -0.20871427176E+02 -0.28362937770E+02 -0.27953338706E+03  0.30623355008E+03  0.12000000000E+03 0.  0.
<mgrwt>
<rscale>  0 0.27440410E+03</rscale>
<asrwt>0</asrwt>
<pdfrwt beam="1">  1        4 0.29106111E-02 0.27440410E+03</pdfrwt>
<pdfrwt beam="2">  1       -4 0.15307713E+00 0.27440410E+03</pdfrwt>
<totfact> 0.31762504E+02</totfact>
</mgrwt>
</event>
<event>
 5    1  0.1100736E+001  0.2754193E+03  0.7818608E-02  0.1098217E+00
         -2   -1    0    0    0  501 -0.00000000000E+00  0.00000000000E+00  0.86819483088E+01  0.86819483088E+01  0.00000000000E+00 0.  1.
          2   -1    0    0  501    0  0.00000000000E+00 -0.00000000000E+00 -0.21842968413E+04  0.21842968413E+04  0.00000000000E+00 0.  1.
         35    2    1    2    0    0  0.00000000000E+00  0.00000000000E+00 -0.21756148930E+04  0.21929787896E+04  0.27541933314E+03 0.  0.
         25    1    3    3    0    0  0.28941938226E+02 -0.33858658394E+02 -0.68337862699E+03  0.69526282251E+03  0.12000000000E+03 0.  0.
         25    1    3    3    0    0 -0.28941938226E+02  0.33858658394E+02 -0.14922362660E+04  0.14977159671E+04  0.12000000000E+03 0.  0.
<mgrwt>
<rscale>  0 0.27541933E+03</rscale>
<asrwt>0</asrwt>
<pdfrwt beam="1">  1        2 0.33604611E+00 0.27541933E+03</pdfrwt>
<pdfrwt beam="2">  1       -2 0.13356826E-02 0.27541933E+03</pdfrwt>
<totfact> 0.82990532E+03</totfact>
</mgrwt>
</event>
<event>
 5    1  0.1100736E+001  0.2776899E+03  0.7818608E-02  0.1096957E+00
          2   -1    0    0  501    0  0.00000000000E+00  0.00000000000E+00  0.28832484478E+02  0.28832484478E+02  0.00000000000E+00 0. -1.
         -2   -1    0    0    0  501 -0.00000000000E+00 -0.00000000000E+00 -0.66861790149E+03  0.66861790149E+03  0.00000000000E+00 0. -1.
         35    2    1    2    0    0  0.00000000000E+00  0.00000000000E+00 -0.63978541701E+03  0.69745038597E+03  0.27768986490E+03 0.  0.
         25    1    3    3    0    0  0.99158652335E+01 -0.64825281637E+02 -0.25954730546E+03  0.29336912805E+03  0.12000000000E+03 0.  0.
         25    1    3    3    0    0 -0.99158652335E+01  0.64825281637E+02 -0.38023811155E+03  0.40408125792E+03  0.12000000000E+03 0.  0.
<mgrwt>
<rscale>  0 0.27768986E+03</rscale>
<asrwt>0</asrwt>
<pdfrwt beam="1">  1        2 0.44357670E-02 0.27768986E+03</pdfrwt>
<pdfrwt beam="2">  1       -2 0.10286429E+00 0.27768986E+03</pdfrwt>
<totfact> 0.14800113E+03</totfact>
</mgrwt>
</event>
<event>
 5    1  0.1100736E+001  0.2765951E+03  0.7818608E-02  0.1097563E+00
          2   -1    0    0  501    0  0.00000000000E+00  0.00000000000E+00  0.17022880235E+03  0.17022880235E+03  0.00000000000E+00 0. -1.
         -2   -1    0    0    0  501 -0.00000000000E+00 -0.00000000000E+00 -0.11235593193E+03  0.11235593193E+03  0.00000000000E+00 0. -1.
         35    2    1    2    0    0  0.00000000000E+00  0.00000000000E+00  0.57872870421E+02  0.28258473427E+03  0.27659512453E+03 0.  0.
         25    1    3    3    0    0  0.39879244749E+02 -0.25639042648E+02 -0.21926185142E+02  0.13087578945E+03  0.12000000000E+03 0.  0.
         25    1    3    3    0    0 -0.39879244749E+02  0.25639042648E+02  0.79799055563E+02  0.15170894482E+03  0.12000000000E+03 0.  0.
<mgrwt>
<rscale>  0 0.27659512E+03</rscale>
<asrwt>0</asrwt>
<pdfrwt beam="1">  1        2 0.26189046E-01 0.27659512E+03</pdfrwt>
<pdfrwt beam="2">  1       -2 0.17285528E-01 0.27659512E+03</pdfrwt>
<totfact> 0.54682673E+03</totfact>
</mgrwt>
</event>
<event>
 5    1  0.1100736E+001  0.2775283E+03  0.7818608E-02  0.1097047E+00
          2   -1    0    0  501    0  0.00000000000E+00  0.00000000000E+00  0.15068647379E+03  0.15068647379E+03  0.00000000000E+00 0. -1.
         -2   -1    0    0    0  501 -0.00000000000E+00 -0.00000000000E+00 -0.12778514100E+03  0.12778514100E+03  0.00000000000E+00 0. -1.
         35    2    1    2    0    0  0.00000000000E+00  0.00000000000E+00  0.22901332786E+02  0.27847161479E+03  0.27752832144E+03 0.  0.
         25    1    3    3    0    0 -0.39203845019E+02  0.14362795288E+02  0.67427925004E+02  0.14383934240E+03  0.12000000000E+03 0.  0.
         25    1    3    3    0    0  0.39203845019E+02 -0.14362795288E+02 -0.44526592218E+02  0.13463227238E+03  0.12000000000E+03 0.  0.
<mgrwt>
<rscale>  0 0.27752832E+03</rscale>
<asrwt>0</asrwt>
<pdfrwt beam="1">  1        2 0.23182534E-01 0.27752832E+03</pdfrwt>
<pdfrwt beam="2">  1       -2 0.19659252E-01 0.27752832E+03</pdfrwt>
<totfact> 0.50418248E+03</totfact>
</mgrwt>
</event>
<event>
 5    1  0.1100736E+001  0.2749931E+03  0.7818608E-02  0.1098455E+00
          2   -1    0    0  501    0  0.00000000000E+00  0.00000000000E+00  0.32151021483E+04  0.32151021483E+04  0.00000000000E+00 0. -1.
         -2   -1    0    0    0  501 -0.00000000000E+00 -0.00000000000E+00 -0.58801553190E+01  0.58801553190E+01  0.00000000000E+00 0. -1.
         35    2    1    2    0    0  0.00000000000E+00  0.00000000000E+00  0.32092219929E+04  0.32209823036E+04  0.27499309081E+03 0.  0.
         25    1    3    3    0    0  0.33079623839E+02 -0.26973687272E+02  0.99785509008E+03  0.10059506062E+04  0.12000000000E+03 0.  0.
         25    1    3    3    0    0 -0.33079623839E+02  0.26973687272E+02  0.22113669029E+04  0.22150316974E+04  0.12000000000E+03 0.  0.
<mgrwt>
<rscale>  0 0.27499309E+03</rscale>
<asrwt>0</asrwt>
<pdfrwt beam="1">  1        2 0.49462969E+00 0.27499309E+03</pdfrwt>
<pdfrwt beam="2">  1       -2 0.90464185E-03 0.27499309E+03</pdfrwt>
<totfact> 0.38064854E+03</totfact>
</mgrwt>
</event>
<event>
 5    1  0.1100736E+001  0.2740462E+03  0.7818608E-02  0.1098986E+00
         -4   -1    0    0    0  501 -0.00000000000E+00  0.00000000000E+00  0.38240185828E+03  0.38240185828E+03  0.00000000000E+00 0.  1.
          4   -1    0    0  501    0  0.00000000000E+00 -0.00000000000E+00 -0.49098417974E+02  0.49098417974E+02  0.00000000000E+00 0.  1.
         35    2    1    2    0    0  0.00000000000E+00  0.00000000000E+00  0.33330344031E+03  0.43150027626E+03  0.27404617328E+03 0.  0.
         25    1    3    3    0    0  0.16743083528E+02 -0.58733192553E+02  0.12665039799E+03  0.18485194634E+03  0.12000000000E+03 0.  0.
         25    1    3    3    0    0 -0.16743083528E+02  0.58733192553E+02  0.20665304231E+03  0.24664832992E+03  0.12000000000E+03 0.  0.
<mgrwt>
<rscale>  0 0.27404617E+03</rscale>
<asrwt>0</asrwt>
<pdfrwt beam="1">  1        4 0.75536030E-02 0.27404617E+03</pdfrwt>
<pdfrwt beam="2">  1       -4 0.58831053E-01 0.27404617E+03</pdfrwt>
<totfact> 0.62936801E+02</totfact>
</mgrwt>
</event>
<event>
 5    1  0.1100736E+001  0.2739101E+03  0.7818608E-02  0.1099062E+00
          1   -1    0    0  501    0  0.00000000000E+00  0.00000000000E+00  0.61976246103E+02  0.61976246103E+02  0.00000000000E+00 0. -1.
         -1   -1    0    0    0  501 -0.00000000000E+00 -0.00000000000E+00 -0.30264304995E+03  0.30264304995E+03  0.00000000000E+00 0. -1.
         35    2    1    2    0    0  0.00000000000E+00  0.00000000000E+00 -0.24066680385E+03  0.36461929605E+03  0.27391005929E+03 0.  0.
         25    1    3    3    0    0 -0.53248424330E+02  0.11264839358E+02 -0.17004109594E+03  0.21511918931E+03  0.12000000000E+03 0.  0.
         25    1    3    3    0    0  0.53248424330E+02 -0.11264839358E+02 -0.70625707903E+02  0.14950010674E+03  0.12000000000E+03 0.  0.
<mgrwt>
<rscale>  0 0.27391006E+03</rscale>
<asrwt>0</asrwt>
<pdfrwt beam="1">  1        1 0.95348071E-02 0.27391006E+03</pdfrwt>
<pdfrwt beam="2">  1       -1 0.46560469E-01 0.27391006E+03</pdfrwt>
<totfact> 0.31947119E+03</totfact>
</mgrwt>
</event>
<event>
 5    1  0.1100736E+001  0.2761776E+03  0.7818608E-02  0.1097795E+00
         -2   -1    0    0    0  501 -0.00000000000E+00  0.00000000000E+00  0.91872830492E+01  0.91872830492E+01  0.00000000000E+00 0. -1.
          2   -1    0    0  501    0  0.00000000000E+00 -0.00000000000E+00 -0.20755331165E+04  0.20755331165E+04  0.00000000000E+00 0. -1.
         35    2    1    2    0    0  0.00000000000E+00  0.00000000000E+00 -0.20663458334E+04  0.20847203995E+04  0.27617755317E+03 0.  0.
         25    1    3    3    0    0  0.61015458072E+02 -0.28439270142E+02 -0.94487442388E+03  0.95483996309E+03  0.12000000000E+03 0.  0.
         25    1    3    3    0    0 -0.61015458072E+02  0.28439270142E+02 -0.11214714096E+04  0.11298804365E+04  0.12000000000E+03 0.  0.
<mgrwt>
<rscale>  0 0.27617755E+03</rscale>
<asrwt>0</asrwt>
<pdfrwt beam="1">  1        2 0.31931318E+00 0.27617755E+03</pdfrwt>
<pdfrwt beam="2">  1       -2 0.14134264E-02 0.27617755E+03</pdfrwt>
<totfact> 0.87245695E+03</totfact>
</mgrwt>
</event>
<event>
 5    1  0.1100736E+001  0.2749999E+03  0.7818608E-02  0.1098452E+00
          2   -1    0    0  501    0  0.00000000000E+00  0.00000000000E+00  0.18735226383E+04  0.18735226383E+04  0.00000000000E+00 0. -1.
         -2   -1    0    0    0  501 -0.00000000000E+00 -0.00000000000E+00 -0.10091273588E+02  0.10091273588E+02  0.00000000000E+00 0. -1.
         35    2    1    2    0    0  0.00000000000E+00  0.00000000000E+00  0.18634313647E+04  0.18836139119E+04  0.27499985102E+03 0.  0.
         25    1    3    3    0    0  0.35830091190E+02 -0.11347823912E+02  0.55074128550E+03  0.56491462372E+03  0.12000000000E+03 0.  0.
         25    1    3    3    0    0 -0.35830091190E+02  0.11347823912E+02  0.13126900792E+04  0.13186992881E+04  0.12000000000E+03 0.  0.
<mgrwt>
<rscale>  0 0.27499985E+03</rscale>
<asrwt>0</asrwt>
<pdfrwt beam="1">  1        2 0.28823398E+00 0.27499985E+03</pdfrwt>
<pdfrwt beam="2">  1       -2 0.15525051E-02 0.27499985E+03</pdfrwt>
<totfact> 0.97132275E+03</totfact>
</mgrwt>
</event>
<event>
 5    1  0.1100736E+001  0.2741861E+03  0.7818608E-02  0.1098907E+00
          2   -1    0    0  501    0  0.00000000000E+00  0.00000000000E+00  0.44915086851E+03  0.44915086851E+03  0.00000000000E+00 0. -1.
         -2   -1    0    0    0  501 -0.00000000000E+00 -0.00000000000E+00 -0.41844530489E+02  0.41844530489E+02  0.00000000000E+00 0. -1.
         35    2    1    2    0    0  0.00000000000E+00  0.00000000000E+00  0.40730633802E+03  0.49099539900E+03  0.27418612081E+03 0.  0.
         25    1    3    3    0    0  0.49067897161E+02  0.42558892695E+02  0.17992408254E+03  0.22581318242E+03  0.12000000000E+03 0.  0.
         25    1    3    3    0    0 -0.49067897161E+02 -0.42558892695E+02  0.22738225548E+03  0.26518221657E+03  0.12000000000E+03 0.  0.
<mgrwt>
<rscale>  0 0.27418612E+03</rscale>
<asrwt>0</asrwt>
<pdfrwt beam="1">  1        2 0.69100130E-01 0.27418612E+03</pdfrwt>
<pdfrwt beam="2">  1       -2 0.64376204E-02 0.27418612E+03</pdfrwt>
<totfact> 0.92609758E+03</totfact>
</mgrwt>
</event>
<event>
 5    1  0.1100736E+001  0.2750614E+03  0.7818608E-02  0.1098417E+00
         -2   -1    0    0    0  501 -0.00000000000E+00  0.00000000000E+00  0.23541949543E+03  0.23541949543E+03  0.00000000000E+00 0. -1.
          2   -1    0    0  501    0  0.00000000000E+00 -0.00000000000E+00 -0.80344649213E+02  0.80344649213E+02  0.00000000000E+00 0. -1.
         35    2    1    2    0    0  0.00000000000E+00  0.00000000000E+00  0.15507484621E+03  0.31576414464E+03  0.27506142425E+03 0.  0.
         25    1    3    3    0    0 -0.36210015617E+02  0.15650254843E+02  0.13997935503E+03  0.18854791312E+03  0.12000000000E+03 0.  0.
         25    1    3    3    0    0  0.36210015617E+02 -0.15650254843E+02  0.15095491181E+02  0.12721623152E+03  0.12000000000E+03 0.  0.
<mgrwt>
<rscale>  0 0.27506142E+03</rscale>
<asrwt>0</asrwt>
<pdfrwt beam="1">  1        2 0.12360715E-01 0.27506142E+03</pdfrwt>
<pdfrwt beam="2">  1       -2 0.36218384E-01 0.27506142E+03</pdfrwt>
<totfact> 0.35311125E+03</totfact>
</mgrwt>
</event>
<event>
 5    1  0.1100736E+001  0.2740448E+03  0.7818608E-02  0.1098987E+00
         -2   -1    0    0    0  501 -0.00000000000E+00  0.00000000000E+00  0.25478003540E+02  0.25478003540E+02  0.00000000000E+00 0. -1.
          2   -1    0    0  501    0  0.00000000000E+00 -0.00000000000E+00 -0.73691581730E+03  0.73691581730E+03  0.00000000000E+00 0. -1.
         35    2    1    2    0    0  0.00000000000E+00  0.00000000000E+00 -0.71143781376E+03  0.76239382084E+03  0.27404484160E+03 0.  0.
         25    1    3    3    0    0  0.63574496207E+02  0.17176738669E+02 -0.33848240385E+03  0.36511244109E+03  0.12000000000E+03 0.  0.
         25    1    3    3    0    0 -0.63574496207E+02 -0.17176738669E+02 -0.37295540990E+03  0.39728137975E+03  0.12000000000E+03 0.  0.
<mgrwt>
<rscale>  0 0.27404484E+03</rscale>
<asrwt>0</asrwt>
<pdfrwt beam="1">  1        2 0.11337166E+00 0.27404484E+03</pdfrwt>
<pdfrwt beam="2">  1       -2 0.39196931E-02 0.27404484E+03</pdfrwt>
<totfact> 0.11110405E+04</totfact>
</mgrwt>
</event>
<event>
 5    1  0.1100736E+001  0.2740691E+03  0.7818608E-02  0.1098973E+00
         -2   -1    0    0    0  501 -0.00000000000E+00  0.00000000000E+00  0.81865117557E+02  0.81865117557E+02  0.00000000000E+00 0.  1.
          2   -1    0    0  501    0  0.00000000000E+00 -0.00000000000E+00 -0.22938298022E+03  0.22938298022E+03  0.00000000000E+00 0.  1.
         35    2    1    2    0    0  0.00000000000E+00  0.00000000000E+00 -0.14751786266E+03  0.31124809778E+03  0.27406907626E+03 0.  0.
         25    1    3    3    0    0  0.43508495013E+02 -0.19790037968E+02 -0.12572470153E+03  0.18025353066E+03  0.12000000000E+03 0.  0.
         25    1    3    3    0    0 -0.43508495013E+02  0.19790037968E+02 -0.21793161130E+02  0.13099456711E+03  0.12000000000E+03 0.  0.
<mgrwt>
<rscale>  0 0.27406908E+03</rscale>
<asrwt>0</asrwt>
<pdfrwt beam="1">  1        2 0.35289689E-01 0.27406908E+03</pdfrwt>
<pdfrwt beam="2">  1       -2 0.12594634E-01 0.27406908E+03</pdfrwt>
<totfact> 0.66438770E+03</totfact>
</mgrwt>
</event>
<event>
 5    1  0.1100736E+001  0.2746227E+03  0.7818608E-02  0.1098663E+00
          1   -1    0    0  501    0  0.00000000000E+00  0.00000000000E+00  0.10141446145E+04  0.10141446145E+04  0.00000000000E+00 0. -1.
         -1   -1    0    0    0  501 -0.00000000000E+00 -0.00000000000E+00 -0.18591443251E+02  0.18591443251E+02  0.00000000000E+00 0. -1.
         35    2    1    2    0    0  0.00000000000E+00  0.00000000000E+00  0.99555317127E+03  0.10327360578E+04  0.27462273795E+03 0.  0.
         25    1    3    3    0    0 -0.20648983717E+01  0.28533880983E+02  0.72453465331E+03  0.73496184256E+03  0.12000000000E+03 0.  0.
         25    1    3    3    0    0  0.20648983717E+01 -0.28533880983E+02  0.27101851795E+03  0.29777421521E+03  0.12000000000E+03 0.  0.
<mgrwt>
<rscale>  0 0.27462274E+03</rscale>
<asrwt>0</asrwt>
<pdfrwt beam="1">  1        1 0.15602221E+00 0.27462274E+03</pdfrwt>
<pdfrwt beam="2">  1       -1 0.28602228E-02 0.27462274E+03</pdfrwt>
<totfact> 0.63126467E+03</totfact>
</mgrwt>
</event>
<event>
 5    1  0.1100736E+001  0.2748548E+03  0.7818608E-02  0.1098533E+00
         -2   -1    0    0    0  501 -0.00000000000E+00  0.00000000000E+00  0.88445472201E+03  0.88445472201E+03  0.00000000000E+00 0.  1.
          2   -1    0    0  501    0  0.00000000000E+00 -0.00000000000E+00 -0.21353594063E+02  0.21353594063E+02  0.00000000000E+00 0.  1.
         35    2    1    2    0    0  0.00000000000E+00  0.00000000000E+00  0.86310112794E+03  0.90580831607E+03  0.27485477694E+03 0.  0.
         25    1    3    3    0    0  0.26966271330E+02  0.21154499416E+02  0.24190111364E+03  0.27219632881E+03  0.12000000000E+03 0.  0.
         25    1    3    3    0    0 -0.26966271330E+02 -0.21154499416E+02  0.62120001430E+03  0.63361198726E+03  0.12000000000E+03 0.  0.
<mgrwt>
<rscale>  0 0.27485478E+03</rscale>
<asrwt>0</asrwt>
<pdfrwt beam="1">  1        2 0.32851690E-02 0.27485478E+03</pdfrwt>
<pdfrwt beam="2">  1       -2 0.13606993E+00 0.27485478E+03</pdfrwt>
<totfact> 0.11261080E+03</totfact>
</mgrwt>
</event>
<event>
 5    1  0.1100736E+001  0.2752416E+03  0.7818608E-02  0.1098317E+00
          2   -1    0    0  501    0  0.00000000000E+00  0.00000000000E+00  0.32477413944E+03  0.32477413944E+03  0.00000000000E+00 0. -1.
         -2   -1    0    0    0  501 -0.00000000000E+00 -0.00000000000E+00 -0.58315869402E+02  0.58315869402E+02  0.00000000000E+00 0. -1.
         35    2    1    2    0    0  0.00000000000E+00  0.00000000000E+00  0.26645827004E+03  0.38309000884E+03  0.27524161241E+03 0.  0.
         25    1    3    3    0    0  0.24053260934E+00 -0.60863431690E+02  0.93008542306E+02  0.16356956965E+03  0.12000000000E+03 0.  0.
         25    1    3    3    0    0 -0.24053260934E+00  0.60863431690E+02  0.17344972773E+03  0.21952043919E+03  0.12000000000E+03 0.  0.
<mgrwt>
<rscale>  0 0.27524161E+03</rscale>
<asrwt>0</asrwt>
<pdfrwt beam="1">  1        2 0.49965251E-01 0.27524161E+03</pdfrwt>
<pdfrwt beam="2">  1       -2 0.89716724E-02 0.27524161E+03</pdfrwt>
<totfact> 0.78538194E+03</totfact>
</mgrwt>
</event>
<event>
 5    1  0.1100736E+001  0.2723502E+03  0.7818608E-02  0.1099942E+00
          2   -1    0    0  501    0  0.00000000000E+00  0.00000000000E+00  0.13633486698E+04  0.13633486698E+04  0.00000000000E+00 0. -1.
         -2   -1    0    0    0  501 -0.00000000000E+00 -0.00000000000E+00 -0.13601555228E+02  0.13601555228E+02  0.00000000000E+00 0. -1.
         35    2    1    2    0    0  0.00000000000E+00  0.00000000000E+00  0.13497471146E+04  0.13769502250E+04  0.27235023208E+03 0.  0.
         25    1    3    3    0    0 -0.49058915385E+02  0.51176800380E+01  0.88398447528E+03  0.89345482279E+03  0.12000000000E+03 0.  0.
         25    1    3    3    0    0  0.49058915385E+02 -0.51176800380E+01  0.46576263931E+03  0.48349540226E+03  0.12000000000E+03 0.  0.
<mgrwt>
<rscale>  0 0.27235023E+03</rscale>
<asrwt>0</asrwt>
<pdfrwt beam="1">  1        2 0.20974584E+00 0.27235023E+03</pdfrwt>
<pdfrwt beam="2">  1       -2 0.20925480E-02 0.27235023E+03</pdfrwt>
<totfact> 0.11695627E+04</totfact>
</mgrwt>
</event>
<event>
 5    1  0.1100736E+001  0.2720378E+03  0.7818608E-02  0.1100119E+00
         -1   -1    0    0    0  501 -0.00000000000E+00  0.00000000000E+00  0.14591127316E+03  0.14591127316E+03  0.00000000000E+00 0.  1.
          1   -1    0    0  501    0  0.00000000000E+00 -0.00000000000E+00 -0.12679718013E+03  0.12679718013E+03  0.00000000000E+00 0.  1.
         35    2    1    2    0    0  0.00000000000E+00  0.00000000000E+00  0.19114093030E+02  0.27270845328E+03  0.27203777668E+03 0.  0.
         25    1    3    3    0    0 -0.34347322348E+02  0.15598989424E+02 -0.42320618872E+02  0.13271812915E+03  0.12000000000E+03 0.  0.
         25    1    3    3    0    0  0.34347322348E+02 -0.15598989424E+02  0.61434711902E+02  0.13999032413E+03  0.12000000000E+03 0.  0.
<mgrwt>
<rscale>  0 0.27203778E+03</rscale>
<asrwt>0</asrwt>
<pdfrwt beam="1">  1        1 0.19507259E-01 0.27203778E+03</pdfrwt>
<pdfrwt beam="2">  1       -1 0.22447888E-01 0.27203778E+03</pdfrwt>
<totfact> 0.43665747E+03</totfact>
</mgrwt>
</event>
<event>
 5    1  0.1100736E+001  0.2749517E+03  0.7818608E-02  0.1098479E+00
          4   -1    0    0  501    0  0.00000000000E+00  0.00000000000E+00  0.55140684709E+03  0.55140684709E+03  0.00000000000E+00 0. -1.
         -4   -1    0    0    0  501 -0.00000000000E+00 -0.00000000000E+00 -0.34275263798E+02  0.34275263798E+02  0.00000000000E+00 0. -1.
         35    2    1    2    0    0  0.00000000000E+00  0.00000000000E+00  0.51713158329E+03  0.58568211089E+03  0.27495174227E+03 0.  0.
         25    1    3    3    0    0 -0.11854835832E+01 -0.42759463417E+02  0.14850111978E+03  0.19565878375E+03  0.12000000000E+03 0.  0.
         25    1    3    3    0    0  0.11854835832E+01  0.42759463417E+02  0.36863046351E+03  0.39002332713E+03  0.12000000000E+03 0.  0.
<mgrwt>
<rscale>  0 0.27495174E+03</rscale>
<asrwt>0</asrwt>
<pdfrwt beam="1">  1        4 0.84831816E-01 0.27495174E+03</pdfrwt>
<pdfrwt beam="2">  1       -4 0.52731179E-02 0.27495174E+03</pdfrwt>
<totfact> 0.51105895E+02</totfact>
</mgrwt>
</event>
<event>
 5    1  0.1100736E+001  0.2749211E+03  0.7818608E-02  0.1098496E+00
          1   -1    0    0  501    0  0.00000000000E+00  0.00000000000E+00  0.16953476030E+03  0.16953476030E+03  0.00000000000E+00 0. -1.
         -1   -1    0    0    0  501 -0.00000000000E+00 -0.00000000000E+00 -0.11145446042E+03  0.11145446042E+03  0.00000000000E+00 0. -1.
         35    2    1    2    0    0  0.00000000000E+00  0.00000000000E+00  0.58080299882E+02  0.28098922072E+03  0.27492111765E+03 0.  0.
         25    1    3    3    0    0 -0.30288634226E+01  0.50522637242E+02  0.73984538094E+02  0.14978458787E+03  0.12000000000E+03 0.  0.
         25    1    3    3    0    0  0.30288634226E+01 -0.50522637242E+02 -0.15904238212E+02  0.13120463285E+03  0.12000000000E+03 0.  0.
<mgrwt>
<rscale>  0 0.27492112E+03</rscale>
<asrwt>0</asrwt>
<pdfrwt beam="1">  1        1 0.26082271E-01 0.27492112E+03</pdfrwt>
<pdfrwt beam="2">  1       -1 0.17146840E-01 0.27492112E+03</pdfrwt>
<totfact> 0.46635402E+03</totfact>
</mgrwt>
</event>
<event>
 5    1  0.1100736E+001  0.2758068E+03  0.7818608E-02  0.1098001E+00
         -2   -1    0    0    0  501 -0.00000000000E+00  0.00000000000E+00  0.31410698463E+03  0.31410698463E+03  0.00000000000E+00 0. -1.
          2   -1    0    0  501    0  0.00000000000E+00 -0.00000000000E+00 -0.60544152608E+02  0.60544152608E+02  0.00000000000E+00 0. -1.
         35    2    1    2    0    0  0.00000000000E+00  0.00000000000E+00  0.25356283202E+03  0.37465113724E+03  0.27580675273E+03 0.  0.
         25    1    3    3    0    0 -0.35467629261E+02 -0.82973138541E+01  0.20470267305E+03  0.24006245541E+03  0.12000000000E+03 0.  0.
         25    1    3    3    0    0  0.35467629261E+02  0.82973138541E+01  0.48860158974E+02  0.13458868183E+03  0.12000000000E+03 0.  0.
<mgrwt>
<rscale>  0 0.27580675E+03</rscale>
<asrwt>0</asrwt>
<pdfrwt beam="1">  1        2 0.93144852E-02 0.27580675E+03</pdfrwt>
<pdfrwt beam="2">  1       -2 0.48324151E-01 0.27580675E+03</pdfrwt>
<totfact> 0.28714297E+03</totfact>
</mgrwt>
</event>
<event>
 5    1  0.1100736E+001  0.2749981E+03  0.7818608E-02  0.1098453E+00
          1   -1    0    0  501    0  0.00000000000E+00  0.00000000000E+00  0.59249678735E+03  0.59249678735E+03  0.00000000000E+00 0.  1.
         -1   -1    0    0    0  501 -0.00000000000E+00 -0.00000000000E+00 -0.31909006593E+02  0.31909006593E+02  0.00000000000E+00 0.  1.
         35    2    1    2    0    0  0.00000000000E+00  0.00000000000E+00  0.56058778076E+03  0.62440579394E+03  0.27499806468E+03 0.  0.
         25    1    3    3    0    0  0.14705834548E+02 -0.79036372129E-01  0.13157999105E+03  0.17868844916E+03  0.12000000000E+03 0.  0.
         25    1    3    3    0    0 -0.14705834548E+02  0.79036372129E-01  0.42900778971E+03  0.44571734479E+03  0.12000000000E+03 0.  0.
<mgrwt>
<rscale>  0 0.27499806E+03</rscale>
<asrwt>0</asrwt>
<pdfrwt beam="1">  1        1 0.91153344E-01 0.27499806E+03</pdfrwt>
<pdfrwt beam="2">  1       -1 0.49090784E-02 0.27499806E+03</pdfrwt>
<totfact> 0.64520965E+03</totfact>
</mgrwt>
</event>
<event>
 5    1  0.1100736E+001  0.2751065E+03  0.7818608E-02  0.1098392E+00
         -1   -1    0    0    0  501 -0.00000000000E+00  0.00000000000E+00  0.34490812638E+02  0.34490812638E+02  0.00000000000E+00 0. -1.
          1   -1    0    0  501    0  0.00000000000E+00 -0.00000000000E+00 -0.54857787609E+03  0.54857787609E+03  0.00000000000E+00 0. -1.
         35    2    1    2    0    0  0.00000000000E+00  0.00000000000E+00 -0.51408706346E+03  0.58306868873E+03  0.27510650113E+03 0.  0.
         25    1    3    3    0    0  0.64902812251E+02  0.17384207959E+02 -0.26236790560E+03  0.29622880281E+03  0.12000000000E+03 0.  0.
         25    1    3    3    0    0 -0.64902812251E+02 -0.17384207959E+02 -0.25171915786E+03  0.28683988592E+03  0.12000000000E+03 0.  0.
<mgrwt>
<rscale>  0 0.27510650E+03</rscale>
<asrwt>0</asrwt>
<pdfrwt beam="1">  1        1 0.84396587E-01 0.27510650E+03</pdfrwt>
<pdfrwt beam="2">  1       -1 0.53062794E-02 0.27510650E+03</pdfrwt>
<totfact> 0.63807023E+03</totfact>
</mgrwt>
</event>
<event>
 5    1  0.1100736E+001  0.2747005E+03  0.7818608E-02  0.1098619E+00
          2   -1    0    0  501    0  0.00000000000E+00  0.00000000000E+00  0.83796199380E+03  0.83796199380E+03  0.00000000000E+00 0. -1.
         -2   -1    0    0    0  501 -0.00000000000E+00 -0.00000000000E+00 -0.22513064969E+02  0.22513064969E+02  0.00000000000E+00 0. -1.
         35    2    1    2    0    0  0.00000000000E+00  0.00000000000E+00  0.81544892883E+03  0.86047505877E+03  0.27470051189E+03 0.  0.
         25    1    3    3    0    0 -0.47785901661E+02  0.34118403953E+02  0.50764470694E+03  0.52492923940E+03  0.12000000000E+03 0.  0.
         25    1    3    3    0    0  0.47785901661E+02 -0.34118403953E+02  0.30780422189E+03  0.33554581937E+03  0.12000000000E+03 0.  0.
<mgrwt>
<rscale>  0 0.27470051E+03</rscale>
<asrwt>0</asrwt>
<pdfrwt beam="1">  1        2 0.12891721E+00 0.27470051E+03</pdfrwt>
<pdfrwt beam="2">  1       -2 0.34635491E-02 0.27470051E+03</pdfrwt>
<totfact> 0.11369758E+04</totfact>
</mgrwt>
</event>
<event>
 5    1  0.1100736E+001  0.2710773E+03  0.7818608E-02  0.1100665E+00
          2   -1    0    0  501    0  0.00000000000E+00  0.00000000000E+00  0.24191188392E+04  0.24191188392E+04  0.00000000000E+00 0.  1.
         -2   -1    0    0    0  501 -0.00000000000E+00 -0.00000000000E+00 -0.75939730534E+01  0.75939730534E+01  0.00000000000E+00 0.  1.
         35    2    1    2    0    0  0.00000000000E+00  0.00000000000E+00  0.24115248661E+04  0.24267128122E+04  0.27107728254E+03 0.  0.
         25    1    3    3    0    0 -0.61401454733E+02 -0.13313244340E+02  0.12490133953E+04  0.12563366757E+04  0.12000000000E+03 0.  0.
         25    1    3    3    0    0  0.61401454733E+02  0.13313244340E+02  0.11625114709E+04  0.11703761365E+04  0.12000000000E+03 0.  0.
<mgrwt>
<rscale>  0 0.27107728E+03</rscale>
<asrwt>0</asrwt>
<pdfrwt beam="1">  1        2 0.37217152E+00 0.27107728E+03</pdfrwt>
<pdfrwt beam="2">  1       -2 0.11683055E-02 0.27107728E+03</pdfrwt>
<totfact> 0.75472327E+03</totfact>
</mgrwt>
</event>
<event>
 5    1  0.1100736E+001  0.2751731E+03  0.7818608E-02  0.1098355E+00
          2   -1    0    0  501    0  0.00000000000E+00  0.00000000000E+00  0.20811530682E+04  0.20811530682E+04  0.00000000000E+00 0. -1.
         -2   -1    0    0    0  501 -0.00000000000E+00 -0.00000000000E+00 -0.90959502802E+01  0.90959502802E+01  0.00000000000E+00 0. -1.
         35    2    1    2    0    0  0.00000000000E+00  0.00000000000E+00  0.20720571179E+04  0.20902490184E+04  0.27517314428E+03 0.  0.
         25    1    3    3    0    0 -0.30868061348E+02  0.25490845398E+02  0.62503377399E+03  0.63770670299E+03  0.12000000000E+03 0.  0.
         25    1    3    3    0    0  0.30868061348E+02 -0.25490845398E+02  0.14470233439E+04  0.14525423155E+04  0.12000000000E+03 0.  0.
<mgrwt>
<rscale>  0 0.27517314E+03</rscale>
<asrwt>0</asrwt>
<pdfrwt beam="1">  1        2 0.32017702E+00 0.27517314E+03</pdfrwt>
<pdfrwt beam="2">  1       -2 0.13993786E-02 0.27517314E+03</pdfrwt>
<totfact> 0.87923997E+03</totfact>
</mgrwt>
</event>
<event>
 5    1  0.1100736E+001  0.2750081E+03  0.7818608E-02  0.1098447E+00
          3   -1    0    0  501    0  0.00000000000E+00  0.00000000000E+00  0.34686924226E+02  0.34686924226E+02  0.00000000000E+00 0.  1.
         -3   -1    0    0    0  501 -0.00000000000E+00 -0.00000000000E+00 -0.54508623813E+03  0.54508623813E+03  0.00000000000E+00 0.  1.
         35    2    1    2    0    0  0.00000000000E+00  0.00000000000E+00 -0.51039931390E+03  0.57977316235E+03  0.27500810925E+03 0.  0.
         25    1    3    3    0    0 -0.56119300524E+02  0.36223381745E+02 -0.26947575645E+03  0.30245444714E+03  0.12000000000E+03 0.  0.
         25    1    3    3    0    0  0.56119300524E+02 -0.36223381745E+02 -0.24092355745E+03  0.27731871522E+03  0.12000000000E+03 0.  0.
<mgrwt>
<rscale>  0 0.27500811E+03</rscale>
<asrwt>0</asrwt>
<pdfrwt beam="1">  1        3 0.53364500E-02 0.27500811E+03</pdfrwt>
<pdfrwt beam="2">  1       -3 0.83859419E-01 0.27500811E+03</pdfrwt>
<totfact> 0.70127254E+02</totfact>
</mgrwt>
</event>
<event>
 5    1  0.1100736E+001  0.2752745E+03  0.7818608E-02  0.1098298E+00
          2   -1    0    0  501    0  0.00000000000E+00  0.00000000000E+00  0.19444596661E+03  0.19444596661E+03  0.00000000000E+00 0. -1.
         -2   -1    0    0    0  501 -0.00000000000E+00 -0.00000000000E+00 -0.97425585680E+02  0.97425585680E+02  0.00000000000E+00 0. -1.
         35    2    1    2    0    0  0.00000000000E+00  0.00000000000E+00  0.97020380934E+02  0.29187155229E+03  0.27527449704E+03 0.  0.
         25    1    3    3    0    0  0.49063840507E+02 -0.44118871470E+02  0.33884417039E+02  0.14107405496E+03  0.12000000000E+03 0.  0.
         25    1    3    3    0    0 -0.49063840507E+02  0.44118871470E+02  0.63135963895E+02  0.15079749733E+03  0.12000000000E+03 0.  0.
<mgrwt>
<rscale>  0 0.27527450E+03</rscale>
<asrwt>0</asrwt>
<pdfrwt beam="1">  1        2 0.29914764E-01 0.27527450E+03</pdfrwt>
<pdfrwt beam="2">  1       -2 0.14988552E-01 0.27527450E+03</pdfrwt>
<totfact> 0.59852615E+03</totfact>
</mgrwt>
</event>
<event>
 5    1  0.1100736E+001  0.2752333E+03  0.7818608E-02  0.1098321E+00
         -2   -1    0    0    0  501 -0.00000000000E+00  0.00000000000E+00  0.46655168224E+02  0.46655168224E+02  0.00000000000E+00 0. -1.
          2   -1    0    0  501    0  0.00000000000E+00 -0.00000000000E+00 -0.40592174576E+03  0.40592174576E+03  0.00000000000E+00 0. -1.
         35    2    1    2    0    0  0.00000000000E+00  0.00000000000E+00 -0.35926657753E+03  0.45257691398E+03  0.27523333616E+03 0.  0.
         25    1    3    3    0    0 -0.45482757546E+01 -0.38633723912E+02 -0.27007336834E+03  0.29808199496E+03  0.12000000000E+03 0.  0.
         25    1    3    3    0    0  0.45482757546E+01  0.38633723912E+02 -0.89193209194E+02  0.15449491902E+03  0.12000000000E+03 0.  0.
<mgrwt>
<rscale>  0 0.27523334E+03</rscale>
<asrwt>0</asrwt>
<pdfrwt beam="1">  1        2 0.62449502E-01 0.27523334E+03</pdfrwt>
<pdfrwt beam="2">  1       -2 0.71777179E-02 0.27523334E+03</pdfrwt>
<totfact> 0.87449691E+03</totfact>
</mgrwt>
</event>
<event>
 5    1  0.1100736E+001  0.2743250E+03  0.7818608E-02  0.1098830E+00
         -2   -1    0    0    0  501 -0.00000000000E+00  0.00000000000E+00  0.16140139170E+02  0.16140139170E+02  0.00000000000E+00 0.  1.
          2   -1    0    0  501    0  0.00000000000E+00 -0.00000000000E+00 -0.11656372361E+04  0.11656372361E+04  0.00000000000E+00 0.  1.
         35    2    1    2    0    0  0.00000000000E+00  0.00000000000E+00 -0.11494970969E+04  0.11817773752E+04  0.27432496942E+03 0.  0.
         25    1    3    3    0    0 -0.18657240384E+02  0.42139631476E+02 -0.78088756411E+03  0.79139701095E+03  0.12000000000E+03 0.  0.
         25    1    3    3    0    0  0.18657240384E+02 -0.42139631476E+02 -0.36860953280E+03  0.39038036430E+03  0.12000000000E+03 0.  0.
<mgrwt>
<rscale>  0 0.27432497E+03</rscale>
<asrwt>0</asrwt>
<pdfrwt beam="1">  1        2 0.17932883E+00 0.27432497E+03</pdfrwt>
<pdfrwt beam="2">  1       -2 0.24830980E-02 0.27432497E+03</pdfrwt>
<totfact> 0.11720147E+04</totfact>
</mgrwt>
</event>
<event>
 5    1  0.1100736E+001  0.2747307E+03  0.7818608E-02  0.1098602E+00
         -2   -1    0    0    0  501 -0.00000000000E+00  0.00000000000E+00  0.23294999701E+02  0.23294999701E+02  0.00000000000E+00 0.  1.
          2   -1    0    0  501    0  0.00000000000E+00 -0.00000000000E+00 -0.81001264914E+03  0.81001264914E+03  0.00000000000E+00 0.  1.
         35    2    1    2    0    0  0.00000000000E+00  0.00000000000E+00 -0.78671764944E+03  0.83330764884E+03  0.27473073668E+03 0.  0.
         25    1    3    3    0    0  0.45016311540E+02 -0.28244960897E+02 -0.51638027544E+03  0.53279717997E+03  0.12000000000E+03 0.  0.
         25    1    3    3    0    0 -0.45016311540E+02  0.28244960897E+02 -0.27033737400E+03  0.30051046887E+03  0.12000000000E+03 0.  0.
<mgrwt>
<rscale>  0 0.27473074E+03</rscale>
<asrwt>0</asrwt>
<pdfrwt beam="1">  1        2 0.12461732E+00 0.27473074E+03</pdfrwt>
<pdfrwt beam="2">  1       -2 0.35838464E-02 0.27473074E+03</pdfrwt>
<totfact> 0.11285901E+04</totfact>
</mgrwt>
</event>
<event>
 5    1  0.1100736E+001  0.2748943E+03  0.7818608E-02  0.1098511E+00
         -1   -1    0    0    0  501 -0.00000000000E+00  0.00000000000E+00  0.66030755780E+01  0.66030755780E+01  0.00000000000E+00 0.  1.
          1   -1    0    0  501    0  0.00000000000E+00 -0.00000000000E+00 -0.28610487316E+04  0.28610487316E+04  0.00000000000E+00 0.  1.
         35    2    1    2    0    0  0.00000000000E+00  0.00000000000E+00 -0.28544456560E+04  0.28676518072E+04  0.27489431429E+03 0.  0.
         25    1    3    3    0    0 -0.66436375875E+02 -0.88275965331E+01 -0.14267005152E+04  0.14333059962E+04  0.12000000000E+03 0.  0.
         25    1    3    3    0    0  0.66436375875E+02  0.88275965331E+01 -0.14277451408E+04  0.14343458110E+04  0.12000000000E+03 0.  0.
<mgrwt>
<rscale>  0 0.27489431E+03</rscale>
<asrwt>0</asrwt>
<pdfrwt beam="1">  1        1 0.44016215E+00 0.27489431E+03</pdfrwt>
<pdfrwt beam="2">  1       -1 0.10158559E-02 0.27489431E+03</pdfrwt>
<totfact> 0.16617830E+03</totfact>
</mgrwt>
</event>
<event>
 5    1  0.1100736E+001  0.2730075E+03  0.7818608E-02  0.1099571E+00
         -3   -1    0    0    0  501 -0.00000000000E+00  0.00000000000E+00  0.36090984025E+02  0.36090984025E+02  0.00000000000E+00 0.  1.
          3   -1    0    0  501    0  0.00000000000E+00 -0.00000000000E+00 -0.51628609048E+03  0.51628609048E+03  0.00000000000E+00 0.  1.
         35    2    1    2    0    0  0.00000000000E+00  0.00000000000E+00 -0.48019510646E+03  0.55237707451E+03  0.27300749473E+03 0.  0.
         25    1    3    3    0    0  0.49567797303E+02  0.21318128589E+02 -0.16653595388E+03  0.21223961240E+03  0.12000000000E+03 0.  0.
         25    1    3    3    0    0 -0.49567797303E+02 -0.21318128589E+02 -0.31365915257E+03  0.34013746211E+03  0.12000000000E+03 0.  0.
<mgrwt>
<rscale>  0 0.27300749E+03</rscale>
<asrwt>0</asrwt>
<pdfrwt beam="1">  1        3 0.79428633E-01 0.27300749E+03</pdfrwt>
<pdfrwt beam="2">  1       -3 0.55524589E-02 0.27300749E+03</pdfrwt>
<totfact> 0.74208741E+02</totfact>
</mgrwt>
</event>
<event>
 5    1  0.1100736E+001  0.2749760E+03  0.7818608E-02  0.1098465E+00
          2   -1    0    0  501    0  0.00000000000E+00  0.00000000000E+00  0.30559438059E+03  0.30559438059E+03  0.00000000000E+00 0.  1.
         -2   -1    0    0    0  501 -0.00000000000E+00 -0.00000000000E+00 -0.61856357051E+02  0.61856357051E+02  0.00000000000E+00 0.  1.
         35    2    1    2    0    0  0.00000000000E+00  0.00000000000E+00  0.24373802354E+03  0.36745073764E+03  0.27497603618E+03 0.  0.
         25    1    3    3    0    0  0.36281330310E+02 -0.18546548729E+02  0.19311585796E+03  0.23098494322E+03  0.12000000000E+03 0.  0.
         25    1    3    3    0    0 -0.36281330310E+02  0.18546548729E+02  0.50622165577E+02  0.13646579442E+03  0.12000000000E+03 0.  0.
<mgrwt>
<rscale>  0 0.27497604E+03</rscale>
<asrwt>0</asrwt>
<pdfrwt beam="1">  1        2 0.47014519E-01 0.27497604E+03</pdfrwt>
<pdfrwt beam="2">  1       -2 0.95163628E-02 0.27497604E+03</pdfrwt>
<totfact> 0.76397392E+03</totfact>
</mgrwt>
</event>
<event>
 5    1  0.1100736E+001  0.2755247E+03  0.7818608E-02  0.1098159E+00
         -1   -1    0    0    0  501 -0.00000000000E+00  0.00000000000E+00  0.49300859089E+01  0.49300859089E+01  0.00000000000E+00 0. -1.
          1   -1    0    0  501    0  0.00000000000E+00 -0.00000000000E+00 -0.38495190075E+04  0.38495190075E+04  0.00000000000E+00 0. -1.
         35    2    1    2    0    0  0.00000000000E+00  0.00000000000E+00 -0.38445889216E+04  0.38544490934E+04  0.27552465890E+03 0.  0.
         25    1    3    3    0    0  0.50945217650E+02  0.41250398504E+02 -0.16876006862E+04  0.16931311486E+04  0.12000000000E+03 0.  0.
         25    1    3    3    0    0 -0.50945217650E+02 -0.41250398504E+02 -0.21569882355E+04  0.21613179448E+04  0.12000000000E+03 0.  0.
<mgrwt>
<rscale>  0 0.27552466E+03</rscale>
<asrwt>0</asrwt>
<pdfrwt beam="1">  1        1 0.59223565E+00 0.27552466E+03</pdfrwt>
<pdfrwt beam="2">  1       -1 0.75847225E-03 0.27552466E+03</pdfrwt>
<totfact> 0.46855331E+02</totfact>
</mgrwt>
</event>
<event>
 5    1  0.1100736E+001  0.2779976E+03  0.7818608E-02  0.1096788E+00
          2   -1    0    0  501    0  0.00000000000E+00  0.00000000000E+00  0.71798396066E+03  0.71798396066E+03  0.00000000000E+00 0.  1.
         -2   -1    0    0    0  501 -0.00000000000E+00 -0.00000000000E+00 -0.26909607930E+02  0.26909607930E+02  0.00000000000E+00 0.  1.
         35    2    1    2    0    0  0.00000000000E+00  0.00000000000E+00  0.69107435273E+03  0.74489356859E+03  0.27799760345E+03 0.  0.
         25    1    3    3    0    0  0.36025148106E+02  0.60038136144E+02  0.33408164979E+03  0.36181892960E+03  0.12000000000E+03 0.  0.
         25    1    3    3    0    0 -0.36025148106E+02 -0.60038136144E+02  0.35699270294E+03  0.38307463899E+03  0.12000000000E+03 0.  0.
<mgrwt>
<rscale>  0 0.27799760E+03</rscale>
<asrwt>0</asrwt>
<pdfrwt beam="1">  1        2 0.11045906E+00 0.27799760E+03</pdfrwt>
<pdfrwt beam="2">  1       -2 0.41399402E-02 0.27799760E+03</pdfrwt>
<totfact> 0.10571123E+04</totfact>
</mgrwt>
</event>
<event>
 5    1  0.1100736E+001  0.2751179E+03  0.7818608E-02  0.1098386E+00
          1   -1    0    0  501    0  0.00000000000E+00  0.00000000000E+00  0.81508724442E+03  0.81508724442E+03  0.00000000000E+00 0.  1.
         -1   -1    0    0    0  501 -0.00000000000E+00 -0.00000000000E+00 -0.23215263914E+02  0.23215263914E+02  0.00000000000E+00 0.  1.
         35    2    1    2    0    0  0.00000000000E+00  0.00000000000E+00  0.79187198050E+03  0.83830250833E+03  0.27511790557E+03 0.  0.
         25    1    3    3    0    0  0.65111767009E+02  0.94738915414E+01  0.43828568181E+03  0.45915535030E+03  0.12000000000E+03 0.  0.
         25    1    3    3    0    0 -0.65111767009E+02 -0.94738915414E+01  0.35358629869E+03  0.37914715803E+03  0.12000000000E+03 0.  0.
<mgrwt>
<rscale>  0 0.27511791E+03</rscale>
<asrwt>0</asrwt>
<pdfrwt beam="1">  1        1 0.12539802E+00 0.27511791E+03</pdfrwt>
<pdfrwt beam="2">  1       -1 0.35715797E-02 0.27511791E+03</pdfrwt>
<totfact> 0.65049148E+03</totfact>
</mgrwt>
</event>
<event>
 5    1  0.1100736E+001  0.2718147E+03  0.7818608E-02  0.1100245E+00
          1   -1    0    0  501    0  0.00000000000E+00  0.00000000000E+00  0.71578151543E+03  0.71578151543E+03  0.00000000000E+00 0. -1.
         -1   -1    0    0    0  501 -0.00000000000E+00 -0.00000000000E+00 -0.25805087679E+02  0.25805087679E+02  0.00000000000E+00 0. -1.
         35    2    1    2    0    0  0.00000000000E+00  0.00000000000E+00  0.68997642775E+03  0.74158660311E+03  0.27181467778E+03 0.  0.
         25    1    3    3    0    0  0.37491660945E+02 -0.44865253349E+02  0.27530806760E+03  0.30596249391E+03  0.12000000000E+03 0.  0.
         25    1    3    3    0    0 -0.37491660945E+02  0.44865253349E+02  0.41466836015E+03  0.43562410919E+03  0.12000000000E+03 0.  0.
<mgrwt>
<rscale>  0 0.27181468E+03</rscale>
<asrwt>0</asrwt>
<pdfrwt beam="1">  1        1 0.11012022E+00 0.27181468E+03</pdfrwt>
<pdfrwt beam="2">  1       -1 0.39700140E-02 0.27181468E+03</pdfrwt>
<totfact> 0.67628006E+03</totfact>
</mgrwt>
</event>
<event>
 5    1  0.1100736E+001  0.2748420E+03  0.7818608E-02  0.1098540E+00
         -1   -1    0    0    0  501 -0.00000000000E+00  0.00000000000E+00  0.28106180406E+04  0.28106180406E+04  0.00000000000E+00 0.  1.
          1   -1    0    0  501    0  0.00000000000E+00 -0.00000000000E+00 -0.67189940073E+01  0.67189940073E+01  0.00000000000E+00 0.  1.
         35    2    1    2    0    0  0.00000000000E+00  0.00000000000E+00  0.28038990466E+04  0.28173370346E+04  0.27484196020E+03 0.  0.
         25    1    3    3    0    0 -0.36334896628E+02 -0.48757271791E+02  0.16895246198E+04  0.16948719530E+04  0.12000000000E+03 0.  0.
         25    1    3    3    0    0  0.36334896628E+02  0.48757271791E+02  0.11143744268E+04  0.11224650816E+04  0.12000000000E+03 0.  0.
<mgrwt>
<rscale>  0 0.27484196E+03</rscale>
<asrwt>0</asrwt>
<pdfrwt beam="1">  1        1 0.10336936E-02 0.27484196E+03</pdfrwt>
<pdfrwt beam="2">  1       -1 0.43240184E+00 0.27484196E+03</pdfrwt>
<totfact> 0.81991754E+01</totfact>
</mgrwt>
</event>
<event>
 5    1  0.1100736E+001  0.2725178E+03  0.7818608E-02  0.1099847E+00
          2   -1    0    0  501    0  0.00000000000E+00  0.00000000000E+00  0.30362287792E+03  0.30362287792E+03  0.00000000000E+00 0.  1.
         -2   -1    0    0    0  501 -0.00000000000E+00 -0.00000000000E+00 -0.61149815371E+02  0.61149815371E+02  0.00000000000E+00 0.  1.
         35    2    1    2    0    0  0.00000000000E+00  0.00000000000E+00  0.24247306255E+03  0.36477269329E+03  0.27251776403E+03 0.  0.
         25    1    3    3    0    0  0.10258379820E+01  0.55973618828E+02  0.78228629295E+02  0.15379797395E+03  0.12000000000E+03 0.  0.
         25    1    3    3    0    0 -0.10258379820E+01 -0.55973618828E+02  0.16424443326E+03  0.21097471935E+03  0.12000000000E+03 0.  0.
<mgrwt>
<rscale>  0 0.27251776E+03</rscale>
<asrwt>0</asrwt>
<pdfrwt beam="1">  1        2 0.46711211E-01 0.27251776E+03</pdfrwt>
<pdfrwt beam="2">  1       -2 0.94076641E-02 0.27251776E+03</pdfrwt>
<totfact> 0.78314873E+03</totfact>
</mgrwt>
</event>
<event>
 5    1  0.1100736E+001  0.2770836E+03  0.7818608E-02  0.1097293E+00
          2   -1    0    0  501    0  0.00000000000E+00  0.00000000000E+00  0.16190352667E+03  0.16190352667E+03  0.00000000000E+00 0.  1.
         -2   -1    0    0    0  501 -0.00000000000E+00 -0.00000000000E+00 -0.11855100798E+03  0.11855100798E+03  0.00000000000E+00 0.  1.
         35    2    1    2    0    0  0.00000000000E+00  0.00000000000E+00  0.43352518692E+02  0.28045453465E+03  0.27708357066E+03 0.  0.
         25    1    3    3    0    0  0.55283657731E+02 -0.39972642669E+02  0.97116491411E+01  0.13837778399E+03  0.12000000000E+03 0.  0.
         25    1    3    3    0    0 -0.55283657731E+02  0.39972642669E+02  0.33640869551E+02  0.14207675066E+03  0.12000000000E+03 0.  0.
<mgrwt>
<rscale>  0 0.27708357E+03</rscale>
<asrwt>0</asrwt>
<pdfrwt beam="1">  1        2 0.24908235E-01 0.27708357E+03</pdfrwt>
<pdfrwt beam="2">  1       -2 0.18238616E-01 0.27708357E+03</pdfrwt>
<totfact> 0.52832304E+03</totfact>
</mgrwt>
</event>
<event>
 5    1  0.1100736E+001  0.2753726E+03  0.7818608E-02  0.1098243E+00
          1   -1    0    0  501    0  0.00000000000E+00  0.00000000000E+00  0.12479590561E+04  0.12479590561E+04  0.00000000000E+00 0. -1.
         -1   -1    0    0    0  501 -0.00000000000E+00 -0.00000000000E+00 -0.15190822078E+02  0.15190822078E+02  0.00000000000E+00 0. -1.
         35    2    1    2    0    0  0.00000000000E+00  0.00000000000E+00  0.12327682340E+04  0.12631498782E+04  0.27537264920E+03 0.  0.
         25    1    3    3    0    0 -0.59751281280E+02 -0.23135481317E+02  0.51885571696E+03  0.53639232016E+03  0.12000000000E+03 0.  0.
         25    1    3    3    0    0  0.59751281280E+02  0.23135481317E+02  0.71391251707E+03  0.72675755802E+03  0.12000000000E+03 0.  0.
<mgrwt>
<rscale>  0 0.27537265E+03</rscale>
<asrwt>0</asrwt>
<pdfrwt beam="1">  1        1 0.19199362E+00 0.27537265E+03</pdfrwt>
<pdfrwt beam="2">  1       -1 0.23370505E-02 0.27537265E+03</pdfrwt>
<totfact> 0.57813948E+03</totfact>
</mgrwt>
</event>
<event>
 5    1  0.1100736E+001  0.2747246E+03  0.7818608E-02  0.1098606E+00
          1   -1    0    0  501    0  0.00000000000E+00  0.00000000000E+00  0.20952019377E+03  0.20952019377E+03  0.00000000000E+00 0. -1.
         -1   -1    0    0    0  501 -0.00000000000E+00 -0.00000000000E+00 -0.90055307504E+02  0.90055307504E+02  0.00000000000E+00 0. -1.
         35    2    1    2    0    0  0.00000000000E+00  0.00000000000E+00  0.11946488627E+03  0.29957550128E+03  0.27472462924E+03 0.  0.
         25    1    3    3    0    0  0.34201389930E+02  0.22068893589E+02  0.11755377863E+03  0.17284577521E+03  0.12000000000E+03 0.  0.
         25    1    3    3    0    0 -0.34201389930E+02 -0.22068893589E+02  0.19111076434E+01  0.12672972607E+03  0.12000000000E+03 0.  0.
<mgrwt>
<rscale>  0 0.27472463E+03</rscale>
<asrwt>0</asrwt>
<pdfrwt beam="1">  1        1 0.32233876E-01 0.27472463E+03</pdfrwt>
<pdfrwt beam="2">  1       -1 0.13854663E-01 0.27472463E+03</pdfrwt>
<totfact> 0.50084585E+03</totfact>
</mgrwt>
</event>
<event>
 5    1  0.1100736E+001  0.2754976E+03  0.7818608E-02  0.1098174E+00
         -2   -1    0    0    0  501 -0.00000000000E+00  0.00000000000E+00  0.23529410934E+02  0.23529410934E+02  0.00000000000E+00 0. -1.
          2   -1    0    0  501    0  0.00000000000E+00 -0.00000000000E+00 -0.80642590485E+03  0.80642590485E+03  0.00000000000E+00 0. -1.
         35    2    1    2    0    0  0.00000000000E+00  0.00000000000E+00 -0.78289649392E+03  0.82995531579E+03  0.27549756081E+03 0.  0.
         25    1    3    3    0    0  0.43189280204E+01 -0.67480128685E+02 -0.38667962929E+03  0.41047942289E+03  0.12000000000E+03 0.  0.
         25    1    3    3    0    0 -0.43189280204E+01  0.67480128685E+02 -0.39621686463E+03  0.41947589290E+03  0.12000000000E+03 0.  0.
<mgrwt>
<rscale>  0 0.27549756E+03</rscale>
<asrwt>0</asrwt>
<pdfrwt beam="1">  1        2 0.12406551E+00 0.27549756E+03</pdfrwt>
<pdfrwt beam="2">  1       -2 0.36199099E-02 0.27549756E+03</pdfrwt>
<totfact> 0.11182222E+04</totfact>
</mgrwt>
</event>
<event>
 5    1  0.1100736E+001  0.2755675E+03  0.7818608E-02  0.1098135E+00
          2   -1    0    0  501    0  0.00000000000E+00  0.00000000000E+00  0.11419845270E+04  0.11419845270E+04  0.00000000000E+00 0. -1.
         -2   -1    0    0    0  501 -0.00000000000E+00 -0.00000000000E+00 -0.16624009319E+02  0.16624009319E+02  0.00000000000E+00 0. -1.
         35    2    1    2    0    0  0.00000000000E+00  0.00000000000E+00  0.11253605176E+04  0.11586085363E+04  0.27556749749E+03 0.  0.
         25    1    3    3    0    0 -0.44075081260E+02  0.33285189084E+02  0.72734455545E+03  0.73924327454E+03  0.12000000000E+03 0.  0.
         25    1    3    3    0    0  0.44075081260E+02 -0.33285189084E+02  0.39801596219E+03  0.41936526174E+03  0.12000000000E+03 0.  0.
<mgrwt>
<rscale>  0 0.27556750E+03</rscale>
<asrwt>0</asrwt>
<pdfrwt beam="1">  1        2 0.17568987E+00 0.27556750E+03</pdfrwt>
<pdfrwt beam="2">  1       -2 0.25575408E-02 0.27556750E+03</pdfrwt>
<totfact> 0.11578017E+04</totfact>
</mgrwt>
</event>
<event>
 5    1  0.1100736E+001  0.2750334E+03  0.7818608E-02  0.1098433E+00
         -2   -1    0    0    0  501 -0.00000000000E+00  0.00000000000E+00  0.10309547470E+02  0.10309547470E+02  0.00000000000E+00 0. -1.
          2   -1    0    0  501    0  0.00000000000E+00 -0.00000000000E+00 -0.18343041603E+04  0.18343041603E+04  0.00000000000E+00 0. -1.
         35    2    1    2    0    0  0.00000000000E+00  0.00000000000E+00 -0.18239946128E+04  0.18446137077E+04  0.27503342208E+03 0.  0.
         25    1    3    3    0    0  0.87345867981E+01 -0.20530820456E+02 -0.13368678350E+04  0.13424281791E+04  0.12000000000E+03 0.  0.
         25    1    3    3    0    0 -0.87345867981E+01  0.20530820456E+02 -0.48712677775E+03  0.50218552866E+03  0.12000000000E+03 0.  0.
<mgrwt>
<rscale>  0 0.27503342E+03</rscale>
<asrwt>0</asrwt>
<pdfrwt beam="1">  1        2 0.28220051E+00 0.27503342E+03</pdfrwt>
<pdfrwt beam="2">  1       -2 0.15860850E-02 0.27503342E+03</pdfrwt>
<totfact> 0.98705335E+03</totfact>
</mgrwt>
</event>
<event>
 5    1  0.1100736E+001  0.2748716E+03  0.7818608E-02  0.1098523E+00
          2   -1    0    0  501    0  0.00000000000E+00  0.00000000000E+00  0.88051543505E+03  0.88051543505E+03  0.00000000000E+00 0.  1.
         -2   -1    0    0    0  501 -0.00000000000E+00 -0.00000000000E+00 -0.21451748442E+02  0.21451748442E+02  0.00000000000E+00 0.  1.
         35    2    1    2    0    0  0.00000000000E+00  0.00000000000E+00  0.85906368660E+03  0.90196718349E+03  0.27487157447E+03 0.  0.
         25    1    3    3    0    0 -0.18063200129E+02  0.57757176958E+02  0.52386461818E+03  0.54082927886E+03  0.12000000000E+03 0.  0.
         25    1    3    3    0    0  0.18063200129E+02 -0.57757176958E+02  0.33519906842E+03  0.36113790463E+03  0.12000000000E+03 0.  0.
<mgrwt>
<rscale>  0 0.27487157E+03</rscale>
<asrwt>0</asrwt>
<pdfrwt beam="1">  1        2 0.13546389E+00 0.27487157E+03</pdfrwt>
<pdfrwt beam="2">  1       -2 0.33002697E-02 0.27487157E+03</pdfrwt>
<totfact> 0.11452443E+04</totfact>
</mgrwt>
</event>
<event>
 5    1  0.1100736E+001  0.2756591E+03  0.7818608E-02  0.1098084E+00
         -2   -1    0    0    0  501 -0.00000000000E+00  0.00000000000E+00  0.53568419219E+02  0.53568419219E+02  0.00000000000E+00 0.  1.
          2   -1    0    0  501    0  0.00000000000E+00 -0.00000000000E+00 -0.35463018248E+03  0.35463018248E+03  0.00000000000E+00 0.  1.
         35    2    1    2    0    0  0.00000000000E+00  0.00000000000E+00 -0.30106176326E+03  0.40819860170E+03  0.27565905233E+03 0.  0.
         25    1    3    3    0    0  0.47292180726E+02 -0.77351503480E+01 -0.22155721166E+03  0.25648388048E+03  0.12000000000E+03 0.  0.
         25    1    3    3    0    0 -0.47292180726E+02  0.77351503480E+01 -0.79504551603E+02  0.15171472122E+03  0.12000000000E+03 0.  0.
<mgrwt>
<rscale>  0 0.27565905E+03</rscale>
<asrwt>0</asrwt>
<pdfrwt beam="1">  1        2 0.54558491E-01 0.27565905E+03</pdfrwt>
<pdfrwt beam="2">  1       -2 0.82412951E-02 0.27565905E+03</pdfrwt>
<totfact> 0.81628401E+03</totfact>
</mgrwt>
</event>
<event>
 5    1  0.1100736E+001  0.2749830E+03  0.7818608E-02  0.1098461E+00
         -2   -1    0    0    0  501 -0.00000000000E+00  0.00000000000E+00  0.16093012034E+02  0.16093012034E+02  0.00000000000E+00 0. -1.
          2   -1    0    0  501    0  0.00000000000E+00 -0.00000000000E+00 -0.11746658679E+04  0.11746658679E+04  0.00000000000E+00 0. -1.
         35    2    1    2    0    0  0.00000000000E+00  0.00000000000E+00 -0.11585728559E+04  0.11907588800E+04  0.27498299546E+03 0.  0.
         25    1    3    3    0    0 -0.32728190290E+02 -0.50098343931E+02 -0.44773269313E+03  0.46738158179E+03  0.12000000000E+03 0.  0.
         25    1    3    3    0    0  0.32728190290E+02  0.50098343931E+02 -0.71084016276E+03  0.72337729816E+03  0.12000000000E+03 0.  0.
<mgrwt>
<rscale>  0 0.27498300E+03</rscale>
<asrwt>0</asrwt>
<pdfrwt beam="1">  1        2 0.18071787E+00 0.27498300E+03</pdfrwt>
<pdfrwt beam="2">  1       -2 0.24758473E-02 0.27498300E+03</pdfrwt>
<totfact> 0.11632271E+04</totfact>
</mgrwt>
</event>
<event>
 5    1  0.1100736E+001  0.2753234E+03  0.7818608E-02  0.1098271E+00
         -2   -1    0    0    0  501 -0.00000000000E+00  0.00000000000E+00  0.45813826495E+03  0.45813826495E+03  0.00000000000E+00 0.  1.
          2   -1    0    0  501    0  0.00000000000E+00 -0.00000000000E+00 -0.41364673391E+02  0.41364673391E+02  0.00000000000E+00 0.  1.
         35    2    1    2    0    0  0.00000000000E+00  0.00000000000E+00  0.41677359156E+03  0.49950293834E+03  0.27532337131E+03 0.  0.
         25    1    3    3    0    0 -0.20583408801E+02 -0.59797082369E+02  0.25098755027E+03  0.28529654426E+03  0.12000000000E+03 0.  0.
         25    1    3    3    0    0  0.20583408801E+02  0.59797082369E+02  0.16578604128E+03  0.21420639407E+03  0.12000000000E+03 0.  0.
<mgrwt>
<rscale>  0 0.27532337E+03</rscale>
<asrwt>0</asrwt>
<pdfrwt beam="1">  1        2 0.63637962E-02 0.27532337E+03</pdfrwt>
<pdfrwt beam="2">  1       -2 0.70482807E-01 0.27532337E+03</pdfrwt>
<totfact> 0.21445338E+03</totfact>
</mgrwt>
</event>
<event>
 5    1  0.1100736E+001  0.2743084E+03  0.7818608E-02  0.1098839E+00
          3   -1    0    0  501    0  0.00000000000E+00  0.00000000000E+00  0.74592613594E+02  0.74592613594E+02  0.00000000000E+00 0.  1.
         -3   -1    0    0    0  501 -0.00000000000E+00 -0.00000000000E+00 -0.25218684777E+03  0.25218684777E+03  0.00000000000E+00 0.  1.
         35    2    1    2    0    0  0.00000000000E+00  0.00000000000E+00 -0.17759423418E+03  0.32677946137E+03  0.27430841102E+03 0.  0.
         25    1    3    3    0    0  0.15553511103E+02  0.46337285397E+02 -0.14236813122E+03  0.19250387142E+03  0.12000000000E+03 0.  0.
         25    1    3    3    0    0 -0.15553511103E+02 -0.46337285397E+02 -0.35226102960E+02  0.13427558995E+03  0.12000000000E+03 0.  0.
<mgrwt>
<rscale>  0 0.27430841E+03</rscale>
<asrwt>0</asrwt>
<pdfrwt beam="1">  1        3 0.11475787E-01 0.27430841E+03</pdfrwt>
<pdfrwt beam="2">  1       -3 0.38797977E-01 0.27430841E+03</pdfrwt>
<totfact> 0.98124731E+02</totfact>
</mgrwt>
</event>
<event>
 5    1  0.1100736E+001  0.2748649E+03  0.7818608E-02  0.1098527E+00
         -2   -1    0    0    0  501 -0.00000000000E+00  0.00000000000E+00  0.25778864066E+02  0.25778864066E+02  0.00000000000E+00 0.  1.
          2   -1    0    0  501    0  0.00000000000E+00 -0.00000000000E+00 -0.73268075402E+03  0.73268075402E+03  0.00000000000E+00 0.  1.
         35    2    1    2    0    0  0.00000000000E+00  0.00000000000E+00 -0.70690188995E+03  0.75845961808E+03  0.27486489453E+03 0.  0.
         25    1    3    3    0    0 -0.44172725006E+02  0.36892217632E+02 -0.25884720943E+03  0.29105694149E+03  0.12000000000E+03 0.  0.
         25    1    3    3    0    0  0.44172725006E+02 -0.36892217632E+02 -0.44805468052E+03  0.46740267659E+03  0.12000000000E+03 0.  0.
<mgrwt>
<rscale>  0 0.27486489E+03</rscale>
<asrwt>0</asrwt>
<pdfrwt beam="1">  1        2 0.11272011E+00 0.27486489E+03</pdfrwt>
<pdfrwt beam="2">  1       -2 0.39659793E-02 0.27486489E+03</pdfrwt>
<totfact> 0.10995113E+04</totfact>
</mgrwt>
</event>
<event>
 4    1  0.1100736E+001  0.2574686E+03  0.7818608E-02  0.1108674E+00
          1   -1    0    0  501    0  0.00000000000E+00  0.00000000000E+00  0.86924727358E+02  0.86924727358E+02  0.00000000000E+00 0. -1.
         -1   -1    0    0    0  501 -0.00000000000E+00 -0.00000000000E+00 -0.19065367954E+03  0.19065367954E+03  0.00000000000E+00 0. -1.
         25    1    1    2    0    0 -0.19321178479E+02 -0.30501101361E+02 -0.20085140294E+02  0.12691350591E+03  0.12000000000E+03 0.  0.
         25    1    1    2    0    0  0.19321178479E+02  0.30501101361E+02 -0.83643811887E+02  0.15066490099E+03  0.12000000000E+03 0.  0.
<mgrwt>
<rscale>  0 0.25746859E+03</rscale>
<asrwt>0</asrwt>
<pdfrwt beam="1">  1        1 0.13373035E-01 0.25746859E+03</pdfrwt>
<pdfrwt beam="2">  1       -1 0.29331335E-01 0.25746859E+03</pdfrwt>
<totfact> 0.45667939E+03</totfact>
</mgrwt>
</event>
<event>
 5    1  0.1100736E+001  0.2792921E+03  0.7818608E-02  0.1096076E+00
         -1   -1    0    0    0  501 -0.00000000000E+00  0.00000000000E+00  0.12820514706E+02  0.12820514706E+02  0.00000000000E+00 0. -1.
          1   -1    0    0  501    0  0.00000000000E+00 -0.00000000000E+00 -0.15210792638E+04  0.15210792638E+04  0.00000000000E+00 0. -1.
         35    2    1    2    0    0  0.00000000000E+00  0.00000000000E+00 -0.15082587491E+04  0.15338997785E+04  0.27929209850E+03 0.  0.
         25    1    3    3    0    0 -0.33532702408E+02 -0.62826038027E+02 -0.78394185350E+03  0.79626401580E+03  0.12000000000E+03 0.  0.
         25    1    3    3    0    0  0.33532702408E+02  0.62826038027E+02 -0.72431689560E+03  0.73763576271E+03  0.12000000000E+03 0.  0.
<mgrwt>
<rscale>  0 0.27929210E+03</rscale>
<asrwt>0</asrwt>
<pdfrwt beam="1">  1        1 0.23401205E+00 0.27929210E+03</pdfrwt>
<pdfrwt beam="2">  1       -1 0.19723881E-02 0.27929210E+03</pdfrwt>
<totfact> 0.48502787E+03</totfact>
</mgrwt>
</event>
<event>
 5    1  0.1100736E+001  0.2893510E+03  0.7818608E-02  0.1090688E+00
          2   -1    0    0  501    0  0.00000000000E+00  0.00000000000E+00  0.68952025974E+02  0.68952025974E+02  0.00000000000E+00 0.  1.
         -2   -1    0    0    0  501 -0.00000000000E+00 -0.00000000000E+00 -0.30355884559E+03  0.30355884559E+03  0.00000000000E+00 0.  1.
         35    2    1    2    0    0  0.00000000000E+00  0.00000000000E+00 -0.23460681961E+03  0.37251087156E+03  0.28935097999E+03 0.  0.
         25    1    3    3    0    0 -0.64230157500E+02 -0.43778220967E+02 -0.88836065840E+02  0.16832674285E+03  0.12000000000E+03 0.  0.
         25    1    3    3    0    0  0.64230157500E+02  0.43778220967E+02 -0.14577075377E+03  0.20418412872E+03  0.12000000000E+03 0.  0.
<mgrwt>
<rscale>  0 0.28935098E+03</rscale>
<asrwt>0</asrwt>
<pdfrwt beam="1">  1        2 0.10608004E-01 0.28935098E+03</pdfrwt>
<pdfrwt beam="2">  1       -2 0.46701362E-01 0.28935098E+03</pdfrwt>
<totfact> 0.26164108E+03</totfact>
</mgrwt>
</event>
<event>
 5    1  0.1100736E+001  0.2725658E+03  0.7818608E-02  0.1099820E+00
         -1   -1    0    0    0  501 -0.00000000000E+00  0.00000000000E+00  0.56535930751E+02  0.56535930751E+02  0.00000000000E+00 0. -1.
          1   -1    0    0  501    0  0.00000000000E+00 -0.00000000000E+00 -0.32851731283E+03  0.32851731283E+03  0.00000000000E+00 0. -1.
         35    2    1    2    0    0  0.00000000000E+00  0.00000000000E+00 -0.27198138208E+03  0.38505324358E+03  0.27256582360E+03 0.  0.
         25    1    3    3    0    0  0.60187849105E+02  0.21991569449E+02 -0.14753907678E+03  0.20068379477E+03  0.12000000000E+03 0.  0.
         25    1    3    3    0    0 -0.60187849105E+02 -0.21991569449E+02 -0.12444230530E+03  0.18436944881E+03  0.12000000000E+03 0.  0.
<mgrwt>
<rscale>  0 0.27256582E+03</rscale>
<asrwt>0</asrwt>
<pdfrwt beam="1">  1        1 0.50541126E-01 0.27256582E+03</pdfrwt>
<pdfrwt beam="2">  1       -1 0.86978353E-02 0.27256582E+03</pdfrwt>
<totfact> 0.58660645E+03</totfact>
</mgrwt>
</event>
<event>
 5    1  0.1100736E+001  0.2752130E+03  0.7818608E-02  0.1098333E+00
          1   -1    0    0  501    0  0.00000000000E+00  0.00000000000E+00  0.14873751547E+04  0.14873751547E+04  0.00000000000E+00 0. -1.
         -1   -1    0    0    0  501 -0.00000000000E+00 -0.00000000000E+00 -0.12730848492E+02  0.12730848492E+02  0.00000000000E+00 0. -1.
         35    2    1    2    0    0  0.00000000000E+00  0.00000000000E+00  0.14746443062E+04  0.15001060031E+04  0.27521299203E+03 0.  0.
         25    1    3    3    0    0  0.54990954594E+02 -0.25255672259E+02  0.57620840039E+03  0.59167387533E+03  0.12000000000E+03 0.  0.
         25    1    3    3    0    0 -0.54990954594E+02  0.25255672259E+02  0.89843590577E+03  0.90843212782E+03  0.12000000000E+03 0.  0.
<mgrwt>
<rscale>  0 0.27521299E+03</rscale>
<asrwt>0</asrwt>
<pdfrwt beam="1">  1        1 0.22882681E+00 0.27521299E+03</pdfrwt>
<pdfrwt beam="2">  1       -1 0.19585932E-02 0.27521299E+03</pdfrwt>
<totfact> 0.51583947E+03</totfact>
</mgrwt>
</event>
<event>
 5    1  0.1100736E+001  0.2764824E+03  0.7818608E-02  0.1097626E+00
          1   -1    0    0  501    0  0.00000000000E+00  0.00000000000E+00  0.25102074010E+03  0.25102074010E+03  0.00000000000E+00 0. -1.
         -1   -1    0    0    0  501 -0.00000000000E+00 -0.00000000000E+00 -0.76131659039E+02  0.76131659039E+02  0.00000000000E+00 0. -1.
         35    2    1    2    0    0  0.00000000000E+00  0.00000000000E+00  0.17488908106E+03  0.32715239914E+03  0.27648237121E+03 0.  0.
         25    1    3    3    0    0 -0.30855330572E+01  0.16227179267E+02  0.86192243706E+01  0.12143777374E+03  0.12000000000E+03 0.  0.
         25    1    3    3    0    0  0.30855330572E+01 -0.16227179267E+02  0.16626985669E+03  0.20571462541E+03  0.12000000000E+03 0.  0.
<mgrwt>
<rscale>  0 0.27648237E+03</rscale>
<asrwt>0</asrwt>
<pdfrwt beam="1">  1        1 0.38618575E-01 0.27648237E+03</pdfrwt>
<pdfrwt beam="2">  1       -1 0.11712563E-01 0.27648237E+03</pdfrwt>
<totfact> 0.51947385E+03</totfact>
</mgrwt>
</event>
<event>
 5    1  0.1100736E+001  0.2755030E+03  0.7818608E-02  0.1098171E+00
         -1   -1    0    0    0  501 -0.00000000000E+00  0.00000000000E+00  0.97856614483E+01  0.97856614483E+01  0.00000000000E+00 0. -1.
          1   -1    0    0  501    0  0.00000000000E+00 -0.00000000000E+00 -0.19391100103E+04  0.19391100103E+04  0.00000000000E+00 0. -1.
         35    2    1    2    0    0  0.00000000000E+00  0.00000000000E+00 -0.19293243488E+04  0.19488956717E+04  0.27550298780E+03 0.  0.
         25    1    3    3    0    0 -0.26275911006E+02  0.52382942007E+02 -0.12036192729E+04  0.12110052643E+04  0.12000000000E+03 0.  0.
         25    1    3    3    0    0  0.26275911006E+02 -0.52382942007E+02 -0.72570507589E+03  0.73789040736E+03  0.12000000000E+03 0.  0.
<mgrwt>
<rscale>  0 0.27550299E+03</rscale>
<asrwt>0</asrwt>
<pdfrwt beam="1">  1        1 0.29832429E+00 0.27550299E+03</pdfrwt>
<pdfrwt beam="2">  1       -1 0.15054880E-02 0.27550299E+03</pdfrwt>
<totfact> 0.38365139E+03</totfact>
</mgrwt>
</event>
<event>
 5    1  0.1100736E+001  0.2754743E+03  0.7818608E-02  0.1098187E+00
         -2   -1    0    0    0  501 -0.00000000000E+00  0.00000000000E+00  0.77123495967E+03  0.77123495967E+03  0.00000000000E+00 0.  1.
          2   -1    0    0  501    0  0.00000000000E+00 -0.00000000000E+00 -0.24598884721E+02  0.24598884721E+02  0.00000000000E+00 0.  1.
         35    2    1    2    0    0  0.00000000000E+00  0.00000000000E+00  0.74663607495E+03  0.79583384439E+03  0.27547428095E+03 0.  0.
         25    1    3    3    0    0 -0.67498286493E+02 -0.19005313706E+01  0.36335671361E+03  0.38857139888E+03  0.12000000000E+03 0.  0.
         25    1    3    3    0    0  0.67498286493E+02  0.19005313706E+01  0.38327936134E+03  0.40726244551E+03  0.12000000000E+03 0.  0.
<mgrwt>
<rscale>  0 0.27547428E+03</rscale>
<asrwt>0</asrwt>
<pdfrwt beam="1">  1        2 0.37844444E-02 0.27547428E+03</pdfrwt>
<pdfrwt beam="2">  1       -2 0.11865151E+00 0.27547428E+03</pdfrwt>
<totfact> 0.13037864E+03</totfact>
</mgrwt>
</event>
<event>
 5    1  0.1100736E+001  0.2755963E+03  0.7818608E-02  0.1098119E+00
         -3   -1    0    0    0  501 -0.00000000000E+00  0.00000000000E+00  0.25632734591E+02  0.25632734591E+02  0.00000000000E+00 0. -1.
          3   -1    0    0  501    0  0.00000000000E+00 -0.00000000000E+00 -0.74078423920E+03  0.74078423920E+03  0.00000000000E+00 0. -1.
         35    2    1    2    0    0  0.00000000000E+00  0.00000000000E+00 -0.71515150461E+03  0.76641697380E+03  0.27559626843E+03 0.  0.
         25    1    3    3    0    0  0.48552379884E+02 -0.15465312509E+02 -0.48168850948E+03  0.49901936801E+03  0.12000000000E+03 0.  0.
         25    1    3    3    0    0 -0.48552379884E+02  0.15465312509E+02 -0.23346299514E+03  0.26739760579E+03  0.12000000000E+03 0.  0.
<mgrwt>
<rscale>  0 0.27559627E+03</rscale>
<asrwt>0</asrwt>
<pdfrwt beam="1">  1        3 0.11396679E+00 0.27559627E+03</pdfrwt>
<pdfrwt beam="2">  1       -3 0.39434981E-02 0.27559627E+03</pdfrwt>
<totfact> 0.56404850E+02</totfact>
</mgrwt>
</event>
<event>
 5    1  0.1100736E+001  0.2716919E+03  0.7818608E-02  0.1100315E+00
         -2   -1    0    0    0  501 -0.00000000000E+00  0.00000000000E+00  0.11949901732E+03  0.11949901732E+03  0.00000000000E+00 0.  1.
          2   -1    0    0  501    0  0.00000000000E+00 -0.00000000000E+00 -0.15442901578E+03  0.15442901578E+03  0.00000000000E+00 0.  1.
         35    2    1    2    0    0  0.00000000000E+00  0.00000000000E+00 -0.34929998465E+02  0.27392803310E+03  0.27169185215E+03 0.  0.
         25    1    3    3    0    0  0.45817246147E+02  0.42997789500E+02 -0.27849562963E+02  0.13828820667E+03  0.12000000000E+03 0.  0.
         25    1    3    3    0    0 -0.45817246147E+02 -0.42997789500E+02 -0.70804355015E+01  0.13563982643E+03  0.12000000000E+03 0.  0.
<mgrwt>
<rscale>  0 0.27169185E+03</rscale>
<asrwt>0</asrwt>
<pdfrwt beam="1">  1        2 0.23758310E-01 0.27169185E+03</pdfrwt>
<pdfrwt beam="2">  1       -2 0.18384464E-01 0.27169185E+03</pdfrwt>
<totfact> 0.54922579E+03</totfact>
</mgrwt>
</event>
<event>
 5    1  0.1100736E+001  0.2760040E+03  0.7818608E-02  0.1097892E+00
          2   -1    0    0  501    0  0.00000000000E+00  0.00000000000E+00  0.16678365061E+03  0.16678365061E+03  0.00000000000E+00 0.  1.
         -2   -1    0    0    0  501 -0.00000000000E+00 -0.00000000000E+00 -0.11418713151E+03  0.11418713151E+03  0.00000000000E+00 0.  1.
         35    2    1    2    0    0  0.00000000000E+00  0.00000000000E+00  0.52596519096E+02  0.28097078212E+03  0.27600396117E+03 0.  0.
         25    1    3    3    0    0  0.45617524818E+02  0.50334398202E+02  0.31877435014E+02  0.14152978865E+03  0.12000000000E+03 0.  0.
         25    1    3    3    0    0 -0.45617524818E+02 -0.50334398202E+02  0.20719084082E+02  0.13944099346E+03  0.12000000000E+03 0.  0.
<mgrwt>
<rscale>  0 0.27600396E+03</rscale>
<asrwt>0</asrwt>
<pdfrwt beam="1">  1        2 0.25659023E-01 0.27600396E+03</pdfrwt>
<pdfrwt beam="2">  1       -2 0.17567251E-01 0.27600396E+03</pdfrwt>
<totfact> 0.54438357E+03</totfact>
</mgrwt>
</event>
<event>
 5    1  0.1100736E+001  0.2749984E+03  0.7818608E-02  0.1098453E+00
         -4   -1    0    0    0  501 -0.00000000000E+00  0.00000000000E+00  0.85611949256E+02  0.85611949256E+02  0.00000000000E+00 0.  1.
          4   -1    0    0  501    0  0.00000000000E+00 -0.00000000000E+00 -0.22083395455E+03  0.22083395455E+03  0.00000000000E+00 0.  1.
         35    2    1    2    0    0  0.00000000000E+00  0.00000000000E+00 -0.13522200530E+03  0.30644590381E+03  0.27499836589E+03 0.  0.
         25    1    3    3    0    0 -0.29238382921E+02 -0.58154419800E+02 -0.85894777286E+02  0.16129083155E+03  0.12000000000E+03 0.  0.
         25    1    3    3    0    0  0.29238382921E+02  0.58154419800E+02 -0.49327228011E+02  0.14515507226E+03  0.12000000000E+03 0.  0.
<mgrwt>
<rscale>  0 0.27499837E+03</rscale>
<asrwt>0</asrwt>
<pdfrwt beam="1">  1        4 0.33974454E-01 0.27499837E+03</pdfrwt>
<pdfrwt beam="2">  1       -4 0.13171069E-01 0.27499837E+03</pdfrwt>
<totfact> 0.74283568E+02</totfact>
</mgrwt>
</event>
<event>
 5    1  0.1100736E+001  0.2751120E+03  0.7818608E-02  0.1098389E+00
          2   -1    0    0  501    0  0.00000000000E+00  0.00000000000E+00  0.53887060901E+02  0.53887060901E+02  0.00000000000E+00 0. -1.
         -2   -1    0    0    0  501 -0.00000000000E+00 -0.00000000000E+00 -0.35113541174E+03  0.35113541174E+03  0.00000000000E+00 0. -1.
         35    2    1    2    0    0  0.00000000000E+00  0.00000000000E+00 -0.29724835084E+03  0.40502247264E+03  0.27511201586E+03 0.  0.
         25    1    3    3    0    0 -0.13759301697E+00  0.13108583328E+02 -0.24572083236E+03  0.27377103818E+03  0.12000000000E+03 0.  0.
         25    1    3    3    0    0  0.13759301697E+00 -0.13108583328E+02 -0.51527518481E+02  0.13125143447E+03  0.12000000000E+03 0.  0.
<mgrwt>
<rscale>  0 0.27511202E+03</rscale>
<asrwt>0</asrwt>
<pdfrwt beam="1">  1        2 0.82903170E-02 0.27511202E+03</pdfrwt>
<pdfrwt beam="2">  1       -2 0.54020833E-01 0.27511202E+03</pdfrwt>
<totfact> 0.26594285E+03</totfact>
</mgrwt>
</event>
<event>
 5    1  0.1100736E+001  0.2741673E+03  0.7818608E-02  0.1098918E+00
         -2   -1    0    0    0  501 -0.00000000000E+00  0.00000000000E+00  0.15024686623E+02  0.15024686623E+02  0.00000000000E+00 0. -1.
          2   -1    0    0  501    0  0.00000000000E+00 -0.00000000000E+00 -0.12507365607E+04  0.12507365607E+04  0.00000000000E+00 0. -1.
         35    2    1    2    0    0  0.00000000000E+00  0.00000000000E+00 -0.12357118741E+04  0.12657612474E+04  0.27416728378E+03 0.  0.
         25    1    3    3    0    0 -0.42408598977E+02 -0.40311867994E+02 -0.47418759889E+03  0.49262299470E+03  0.12000000000E+03 0.  0.
         25    1    3    3    0    0  0.42408598977E+02  0.40311867994E+02 -0.76152427522E+03  0.77313825266E+03  0.12000000000E+03 0.  0.
<mgrwt>
<rscale>  0 0.27416728E+03</rscale>
<asrwt>0</asrwt>
<pdfrwt beam="1">  1        2 0.19242095E+00 0.27416728E+03</pdfrwt>
<pdfrwt beam="2">  1       -2 0.23114910E-02 0.27416728E+03</pdfrwt>
<totfact> 0.11658560E+04</totfact>
</mgrwt>
</event>
<event>
 5    1  0.1100736E+001  0.2748953E+03  0.7818608E-02  0.1098510E+00
         -2   -1    0    0    0  501 -0.00000000000E+00  0.00000000000E+00  0.32112514943E+03  0.32112514943E+03  0.00000000000E+00 0. -1.
          2   -1    0    0  501    0  0.00000000000E+00 -0.00000000000E+00 -0.58830215544E+02  0.58830215544E+02  0.00000000000E+00 0. -1.
         35    2    1    2    0    0  0.00000000000E+00  0.00000000000E+00  0.26229493389E+03  0.37995536498E+03  0.27489533832E+03 0.  0.
         25    1    3    3    0    0 -0.38230280553E+01 -0.66162896639E+02  0.14494973669E+03  0.19950581596E+03  0.12000000000E+03 0.  0.
         25    1    3    3    0    0  0.38230280553E+01  0.66162896639E+02  0.11734519720E+03  0.18044954902E+03  0.12000000000E+03 0.  0.
<mgrwt>
<rscale>  0 0.27489534E+03</rscale>
<asrwt>0</asrwt>
<pdfrwt beam="1">  1        2 0.90508025E-02 0.27489534E+03</pdfrwt>
<pdfrwt beam="2">  1       -2 0.49403868E-01 0.27489534E+03</pdfrwt>
<totfact> 0.28486137E+03</totfact>
</mgrwt>
</event>
<event>
 5    1  0.1100736E+001  0.2819267E+03  0.7818608E-02  0.1094641E+00
         -2   -1    0    0    0  501 -0.00000000000E+00  0.00000000000E+00  0.19646957557E+02  0.19646957557E+02  0.00000000000E+00 0.  1.
          2   -1    0    0  501    0  0.00000000000E+00 -0.00000000000E+00 -0.10113866003E+04  0.10113866003E+04  0.00000000000E+00 0.  1.
         35    2    1    2    0    0  0.00000000000E+00  0.00000000000E+00 -0.99173964270E+03  0.10310335578E+04  0.28192672530E+03 0.  0.
         25    1    3    3    0    0  0.31463023344E+02  0.40697727449E+02 -0.30151158827E+03  0.32856576924E+03  0.12000000000E+03 0.  0.
         25    1    3    3    0    0 -0.31463023344E+02 -0.40697727449E+02 -0.69022805443E+03  0.70246778857E+03  0.12000000000E+03 0.  0.
<mgrwt>
<rscale>  0 0.28192673E+03</rscale>
<asrwt>0</asrwt>
<pdfrwt beam="1">  1        2 0.15559790E+00 0.28192673E+03</pdfrwt>
<pdfrwt beam="2">  1       -2 0.30226097E-02 0.28192673E+03</pdfrwt>
<totfact> 0.10805860E+04</totfact>
</mgrwt>
</event>
<event>
 5    1  0.1100736E+001  0.2764775E+03  0.7818608E-02  0.1097629E+00
          2   -1    0    0  501    0  0.00000000000E+00  0.00000000000E+00  0.40791135090E+03  0.40791135090E+03  0.00000000000E+00 0.  1.
         -2   -1    0    0    0  501 -0.00000000000E+00 -0.00000000000E+00 -0.46848309325E+02  0.46848309325E+02  0.00000000000E+00 0.  1.
         35    2    1    2    0    0  0.00000000000E+00  0.00000000000E+00  0.36106304157E+03  0.45475966022E+03  0.27647753720E+03 0.  0.
         25    1    3    3    0    0 -0.13200000770E+02 -0.66729627573E+02  0.19550528678E+03  0.23926846924E+03  0.12000000000E+03 0.  0.
         25    1    3    3    0    0  0.13200000770E+02  0.66729627573E+02  0.16555775480E+03  0.21549119098E+03  0.12000000000E+03 0.  0.
<mgrwt>
<rscale>  0 0.27647754E+03</rscale>
<asrwt>0</asrwt>
<pdfrwt beam="1">  1        2 0.62755590E-01 0.27647754E+03</pdfrwt>
<pdfrwt beam="2">  1       -2 0.72074325E-02 0.27647754E+03</pdfrwt>
<totfact> 0.86444663E+03</totfact>
</mgrwt>
</event>
<event>
 5    1  0.1100736E+001  0.2758353E+03  0.7818608E-02  0.1097986E+00
          1   -1    0    0  501    0  0.00000000000E+00  0.00000000000E+00  0.16261207758E+03  0.16261207758E+03  0.00000000000E+00 0.  1.
         -1   -1    0    0    0  501 -0.00000000000E+00 -0.00000000000E+00 -0.11697332522E+03  0.11697332522E+03  0.00000000000E+00 0.  1.
         35    2    1    2    0    0  0.00000000000E+00  0.00000000000E+00  0.45638752356E+02  0.27958540280E+03  0.27583528009E+03 0.  0.
         25    1    3    3    0    0  0.51279957958E+02  0.66160361577E+01 -0.21915331035E+02  0.13249033081E+03  0.12000000000E+03 0.  0.
         25    1    3    3    0    0 -0.51279957958E+02 -0.66160361577E+01  0.67554083391E+02  0.14709507200E+03  0.12000000000E+03 0.  0.
<mgrwt>
<rscale>  0 0.27583528E+03</rscale>
<asrwt>0</asrwt>
<pdfrwt beam="1">  1        1 0.25017243E-01 0.27583528E+03</pdfrwt>
<pdfrwt beam="2">  1       -1 0.17995896E-01 0.27583528E+03</pdfrwt>
<totfact> 0.45504944E+03</totfact>
</mgrwt>
</event>
<event>
 5    1  0.1100736E+001  0.2751893E+03  0.7818608E-02  0.1098346E+00
         -2   -1    0    0    0  501 -0.00000000000E+00  0.00000000000E+00  0.18084157705E+02  0.18084157705E+02  0.00000000000E+00 0.  1.
          2   -1    0    0  501    0  0.00000000000E+00 -0.00000000000E+00 -0.10468986952E+04  0.10468986952E+04  0.00000000000E+00 0.  1.
         35    2    1    2    0    0  0.00000000000E+00  0.00000000000E+00 -0.10288145375E+04  0.10649828529E+04  0.27518925200E+03 0.  0.
         25    1    3    3    0    0  0.33305090848E+02 -0.58506615566E+02 -0.51505441750E+03  0.53311659713E+03  0.12000000000E+03 0.  0.
         25    1    3    3    0    0 -0.33305090848E+02  0.58506615566E+02 -0.51376011998E+03  0.53186625576E+03  0.12000000000E+03 0.  0.
<mgrwt>
<rscale>  0 0.27518925E+03</rscale>
<asrwt>0</asrwt>
<pdfrwt beam="1">  1        2 0.16106131E+00 0.27518925E+03</pdfrwt>
<pdfrwt beam="2">  1       -2 0.27821785E-02 0.27518925E+03</pdfrwt>
<totfact> 0.11625111E+04</totfact>
</mgrwt>
</event>
<event>
 5    1  0.1100736E+001  0.2749902E+03  0.7818608E-02  0.1098457E+00
         -2   -1    0    0    0  501 -0.00000000000E+00  0.00000000000E+00  0.45917728209E+02  0.45917728209E+02  0.00000000000E+00 0.  1.
          2   -1    0    0  501    0  0.00000000000E+00 -0.00000000000E+00 -0.41171259868E+03  0.41171259868E+03  0.00000000000E+00 0.  1.
         35    2    1    2    0    0  0.00000000000E+00  0.00000000000E+00 -0.36579487047E+03  0.45763032689E+03  0.27499023406E+03 0.  0.
         25    1    3    3    0    0  0.62736633295E+02 -0.20514182762E+02 -0.16263892545E+03  0.21262205182E+03  0.12000000000E+03 0.  0.
         25    1    3    3    0    0 -0.62736633295E+02  0.20514182762E+02 -0.20315594502E+03  0.24500827506E+03  0.12000000000E+03 0.  0.
<mgrwt>
<rscale>  0 0.27499023E+03</rscale>
<asrwt>0</asrwt>
<pdfrwt beam="1">  1        2 0.63340398E-01 0.27499023E+03</pdfrwt>
<pdfrwt beam="2">  1       -2 0.70642660E-02 0.27499023E+03</pdfrwt>
<totfact> 0.88261211E+03</totfact>
</mgrwt>
</event>
<event>
 5    1  0.1100736E+001  0.2797256E+03  0.7818608E-02  0.1095839E+00
         -1   -1    0    0    0  501 -0.00000000000E+00  0.00000000000E+00  0.15935525722E+03  0.15935525722E+03  0.00000000000E+00 0.  1.
          1   -1    0    0  501    0  0.00000000000E+00 -0.00000000000E+00 -0.12275467826E+03  0.12275467826E+03  0.00000000000E+00 0.  1.
         35    2    1    2    0    0  0.00000000000E+00  0.00000000000E+00  0.36600578963E+02  0.28210993547E+03  0.27972560361E+03 0.  0.
         25    1    3    3    0    0  0.10947072205E+02 -0.63399680761E+02 -0.13944812006E+02  0.13687152988E+03  0.12000000000E+03 0.  0.
         25    1    3    3    0    0 -0.10947072205E+02  0.63399680761E+02  0.50545390969E+02  0.14523840559E+03  0.12000000000E+03 0.  0.
<mgrwt>
<rscale>  0 0.27972560E+03</rscale>
<asrwt>0</asrwt>
<pdfrwt beam="1">  1        1 0.18885335E-01 0.27972560E+03</pdfrwt>
<pdfrwt beam="2">  1       -1 0.24516193E-01 0.27972560E+03</pdfrwt>
<totfact> 0.39395732E+03</totfact>
</mgrwt>
</event>
<event>
 5    1  0.1100736E+001  0.2742910E+03  0.7818608E-02  0.1098849E+00
          2   -1    0    0  501    0  0.00000000000E+00  0.00000000000E+00  0.28416663221E+03  0.28416663221E+03  0.00000000000E+00 0.  1.
         -2   -1    0    0    0  501 -0.00000000000E+00 -0.00000000000E+00 -0.66189633458E+02  0.66189633458E+02  0.00000000000E+00 0.  1.
         35    2    1    2    0    0  0.00000000000E+00  0.00000000000E+00  0.21797699875E+03  0.35035626566E+03  0.27429097854E+03 0.  0.
         25    1    3    3    0    0 -0.43543671726E+02 -0.37704020901E+02  0.66793727809E+02  0.14892631270E+03  0.12000000000E+03 0.  0.
         25    1    3    3    0    0  0.43543671726E+02  0.37704020901E+02  0.15118327094E+03  0.20142995296E+03  0.12000000000E+03 0.  0.
<mgrwt>
<rscale>  0 0.27429098E+03</rscale>
<asrwt>0</asrwt>
<pdfrwt beam="1">  1        2 0.43717943E-01 0.27429098E+03</pdfrwt>
<pdfrwt beam="2">  1       -2 0.10183021E-01 0.27429098E+03</pdfrwt>
<totfact> 0.74184214E+03</totfact>
</mgrwt>
</event>
<event>
 5    1  0.1100736E+001  0.2744351E+03  0.7818608E-02  0.1098768E+00
          2   -1    0    0  501    0  0.00000000000E+00  0.00000000000E+00  0.62614299256E+02  0.62614299256E+02  0.00000000000E+00 0.  1.
         -2   -1    0    0    0  501 -0.00000000000E+00 -0.00000000000E+00 -0.30070860408E+03  0.30070860408E+03  0.00000000000E+00 0.  1.
         35    2    1    2    0    0  0.00000000000E+00  0.00000000000E+00 -0.23809430483E+03  0.36332290334E+03  0.27443511820E+03 0.  0.
         25    1    3    3    0    0  0.13492859124E+02  0.40817911515E+02 -0.18629911614E+03  0.22573329356E+03  0.12000000000E+03 0.  0.
         25    1    3    3    0    0 -0.13492859124E+02 -0.40817911515E+02 -0.51795188689E+02  0.13758960978E+03  0.12000000000E+03 0.  0.
<mgrwt>
<rscale>  0 0.27443512E+03</rscale>
<asrwt>0</asrwt>
<pdfrwt beam="1">  1        2 0.96329692E-02 0.27443512E+03</pdfrwt>
<pdfrwt beam="2">  1       -2 0.46262862E-01 0.27443512E+03</pdfrwt>
<totfact> 0.30001035E+03</totfact>
</mgrwt>
</event>
<event>
 5    1  0.1100736E+001  0.2750369E+03  0.7818608E-02  0.1098431E+00
          2   -1    0    0  501    0  0.00000000000E+00  0.00000000000E+00  0.53665570428E+03  0.53665570428E+03  0.00000000000E+00 0.  1.
         -2   -1    0    0    0  501 -0.00000000000E+00 -0.00000000000E+00 -0.35239218203E+02  0.35239218203E+02  0.00000000000E+00 0.  1.
         35    2    1    2    0    0  0.00000000000E+00  0.00000000000E+00  0.50141648607E+03  0.57189492248E+03  0.27503692452E+03 0.  0.
         25    1    3    3    0    0  0.20759874235E+01 -0.16602968056E+02  0.38596693533E+03  0.40453732020E+03  0.12000000000E+03 0.  0.
         25    1    3    3    0    0 -0.20759874235E+01  0.16602968056E+02  0.11544955075E+03  0.16735760228E+03  0.12000000000E+03 0.  0.
<mgrwt>
<rscale>  0 0.27503692E+03</rscale>
<asrwt>0</asrwt>
<pdfrwt beam="1">  1        2 0.82562410E-01 0.27503692E+03</pdfrwt>
<pdfrwt beam="2">  1       -2 0.54214186E-02 0.27503692E+03</pdfrwt>
<totfact> 0.98814347E+03</totfact>
</mgrwt>
</event>
<event>
 5    1  0.1100736E+001  0.2763001E+03  0.7818608E-02  0.1097727E+00
         -1   -1    0    0    0  501 -0.00000000000E+00  0.00000000000E+00  0.13145680885E+02  0.13145680885E+02  0.00000000000E+00 0. -1.
          1   -1    0    0  501    0  0.00000000000E+00 -0.00000000000E+00 -0.14518404332E+04  0.14518404332E+04  0.00000000000E+00 0. -1.
         35    2    1    2    0    0  0.00000000000E+00  0.00000000000E+00 -0.14386947523E+04  0.14649861140E+04  0.27630006175E+03 0.  0.
         25    1    3    3    0    0 -0.14194022217E+02  0.34955102237E+02 -0.10221790292E+04  0.10298899442E+04  0.12000000000E+03 0.  0.
         25    1    3    3    0    0  0.14194022217E+02 -0.34955102237E+02 -0.41651572304E+03  0.43509616980E+03  0.12000000000E+03 0.  0.
<mgrwt>
<rscale>  0 0.27630006E+03</rscale>
<asrwt>0</asrwt>
<pdfrwt beam="1">  1        1 0.22336003E+00 0.27630006E+03</pdfrwt>
<pdfrwt beam="2">  1       -1 0.20224127E-02 0.27630006E+03</pdfrwt>
<totfact> 0.51977169E+03</totfact>
</mgrwt>
</event>
<event>
 5    1  0.1100736E+001  0.2735649E+03  0.7818608E-02  0.1099257E+00
          1   -1    0    0  501    0  0.00000000000E+00  0.00000000000E+00  0.14193854959E+04  0.14193854959E+04  0.00000000000E+00 0. -1.
         -1   -1    0    0    0  501 -0.00000000000E+00 -0.00000000000E+00 -0.13181361542E+02  0.13181361542E+02  0.00000000000E+00 0. -1.
         35    2    1    2    0    0  0.00000000000E+00  0.00000000000E+00  0.14062041343E+04  0.14325668574E+04  0.27356486170E+03 0.  0.
         25    1    3    3    0    0 -0.37140112959E+02  0.13672793036E+02  0.42883389228E+03  0.44706245697E+03  0.12000000000E+03 0.  0.
         25    1    3    3    0    0  0.37140112959E+02 -0.13672793036E+02  0.97737024206E+03  0.98550440046E+03  0.12000000000E+03 0.  0.
<mgrwt>
<rscale>  0 0.27356486E+03</rscale>
<asrwt>0</asrwt>
<pdfrwt beam="1">  1        1 0.21836688E+00 0.27356486E+03</pdfrwt>
<pdfrwt beam="2">  1       -1 0.20279029E-02 0.27356486E+03</pdfrwt>
<totfact> 0.54417357E+03</totfact>
</mgrwt>
</event>
<event>
 5    1  0.1100736E+001  0.2815230E+03  0.7818608E-02  0.1094860E+00
         -2   -1    0    0    0  501 -0.00000000000E+00  0.00000000000E+00  0.11297682889E+02  0.11297682889E+02  0.00000000000E+00 0. -1.
          2   -1    0    0  501    0  0.00000000000E+00 -0.00000000000E+00 -0.17537931612E+04  0.17537931612E+04  0.00000000000E+00 0. -1.
         35    2    1    2    0    0  0.00000000000E+00  0.00000000000E+00 -0.17424954784E+04  0.17650908441E+04  0.28152299366E+03 0.  0.
         25    1    3    3    0    0 -0.24484423667E+02 -0.35214171716E+02 -0.12460887644E+04  0.12525880143E+04  0.12000000000E+03 0.  0.
         25    1    3    3    0    0  0.24484423667E+02  0.35214171716E+02 -0.49640671395E+03  0.51250282979E+03  0.12000000000E+03 0.  0.
<mgrwt>
<rscale>  0 0.28152299E+03</rscale>
<asrwt>0</asrwt>
<pdfrwt beam="1">  1        2 0.26981436E+00 0.28152299E+03</pdfrwt>
<pdfrwt beam="2">  1       -2 0.17381049E-02 0.28152299E+03</pdfrwt>
<totfact> 0.95169905E+03</totfact>
</mgrwt>
</event>
<event>
 5    1  0.1100736E+001  0.2749059E+03  0.7818608E-02  0.1098504E+00
         -3   -1    0    0    0  501 -0.00000000000E+00  0.00000000000E+00  0.59237907694E+02  0.59237907694E+02  0.00000000000E+00 0. -1.
          3   -1    0    0  501    0  0.00000000000E+00 -0.00000000000E+00 -0.31893955020E+03  0.31893955020E+03  0.00000000000E+00 0. -1.
         35    2    1    2    0    0  0.00000000000E+00  0.00000000000E+00 -0.25970164250E+03  0.37817745789E+03  0.27490588669E+03 0.  0.
         25    1    3    3    0    0  0.20838724882E+02  0.58283467787E+02 -0.94453347774E+02  0.16478061166E+03  0.12000000000E+03 0.  0.
         25    1    3    3    0    0 -0.20838724882E+02 -0.58283467787E+02 -0.16524829473E+03  0.21339684623E+03  0.12000000000E+03 0.  0.
<mgrwt>
<rscale>  0 0.27490589E+03</rscale>
<asrwt>0</asrwt>
<pdfrwt beam="1">  1        3 0.49067623E-01 0.27490589E+03</pdfrwt>
<pdfrwt beam="2">  1       -3 0.91135243E-02 0.27490589E+03</pdfrwt>
<totfact> 0.90834682E+02</totfact>
</mgrwt>
</event>
<event>
 5    1  0.1100736E+001  0.2746756E+03  0.7818608E-02  0.1098633E+00
         -4   -1    0    0    0  501 -0.00000000000E+00  0.00000000000E+00  0.25910497869E+03  0.25910497869E+03  0.00000000000E+00 0.  1.
          4   -1    0    0  501    0  0.00000000000E+00 -0.00000000000E+00 -0.72795484460E+02  0.72795484460E+02  0.00000000000E+00 0.  1.
         35    2    1    2    0    0  0.00000000000E+00  0.00000000000E+00  0.18630949423E+03  0.33190046315E+03  0.27467560831E+03 0.  0.
         25    1    3    3    0    0  0.12137968342E+02  0.49175050268E+01  0.17229993680E+03  0.21037770878E+03  0.12000000000E+03 0.  0.
         25    1    3    3    0    0 -0.12137968342E+02 -0.49175050268E+01  0.14009557439E+02  0.12152275437E+03  0.12000000000E+03 0.  0.
<mgrwt>
<rscale>  0 0.27467561E+03</rscale>
<asrwt>0</asrwt>
<pdfrwt beam="1">  1        4 0.11199305E-01 0.27467561E+03</pdfrwt>
<pdfrwt beam="2">  1       -4 0.39862304E-01 0.27467561E+03</pdfrwt>
<totfact> 0.71826561E+02</totfact>
</mgrwt>
</event>
<event>
 5    1  0.1100736E+001  0.2752172E+03  0.7818608E-02  0.1098330E+00
          1   -1    0    0  501    0  0.00000000000E+00  0.00000000000E+00  0.25900564002E+02  0.25900564002E+02  0.00000000000E+00 0. -1.
         -1   -1    0    0    0  501 -0.00000000000E+00 -0.00000000000E+00 -0.73110872216E+03  0.73110872216E+03  0.00000000000E+00 0. -1.
         35    2    1    2    0    0  0.00000000000E+00  0.00000000000E+00 -0.70520815816E+03  0.75700928616E+03  0.27521721059E+03 0.  0.
         25    1    3    3    0    0 -0.54876635162E+02 -0.30447840224E+02 -0.41984526152E+03  0.44114460178E+03  0.12000000000E+03 0.  0.
         25    1    3    3    0    0  0.54876635162E+02  0.30447840224E+02 -0.28536289664E+03  0.31586468438E+03  0.12000000000E+03 0.  0.
<mgrwt>
<rscale>  0 0.27521721E+03</rscale>
<asrwt>0</asrwt>
<pdfrwt beam="1">  1        1 0.39847027E-02 0.27521721E+03</pdfrwt>
<pdfrwt beam="2">  1       -1 0.11247825E+00 0.27521721E+03</pdfrwt>
<totfact> 0.17599707E+03</totfact>
</mgrwt>
</event>
<event>
 5    1  0.1100736E+001  0.2894484E+03  0.7818608E-02  0.1090637E+00
          2   -1    0    0  501    0  0.00000000000E+00  0.00000000000E+00  0.85013600818E+03  0.85013600818E+03  0.00000000000E+00 0. -1.
         -2   -1    0    0    0  501 -0.00000000000E+00 -0.00000000000E+00 -0.24637350538E+02  0.24637350538E+02  0.00000000000E+00 0. -1.
         35    2    1    2    0    0  0.00000000000E+00  0.00000000000E+00  0.82549865764E+03  0.87477335872E+03  0.28944843298E+03 0.  0.
         25    1    3    3    0    0  0.20031194410E+02  0.75627758556E+02  0.47500184105E+03  0.49613259883E+03  0.12000000000E+03 0.  0.
         25    1    3    3    0    0 -0.20031194410E+02 -0.75627758556E+02  0.35049681659E+03  0.37864075989E+03  0.12000000000E+03 0.  0.
<mgrwt>
<rscale>  0 0.28944843E+03</rscale>
<asrwt>0</asrwt>
<pdfrwt beam="1">  1        2 0.13079013E+00 0.28944843E+03</pdfrwt>
<pdfrwt beam="2">  1       -2 0.37903623E-02 0.28944843E+03</pdfrwt>
<totfact> 0.97633259E+03</totfact>
</mgrwt>
</event>
<event>
 5    1  0.1100736E+001  0.2798572E+03  0.7818608E-02  0.1095767E+00
         -2   -1    0    0    0  501 -0.00000000000E+00  0.00000000000E+00  0.30935362558E+03  0.30935362558E+03  0.00000000000E+00 0.  1.
          2   -1    0    0  501    0  0.00000000000E+00 -0.00000000000E+00 -0.63293292120E+02  0.63293292120E+02  0.00000000000E+00 0.  1.
         35    2    1    2    0    0  0.00000000000E+00  0.00000000000E+00  0.24606033346E+03  0.37264691770E+03  0.27985717351E+03 0.  0.
         25    1    3    3    0    0  0.17193543472E+02 -0.28987645424E+02  0.38351803415E+02  0.13040997795E+03  0.12000000000E+03 0.  0.
         25    1    3    3    0    0 -0.17193543472E+02  0.28987645424E+02  0.20770853004E+03  0.24223693974E+03  0.12000000000E+03 0.  0.
<mgrwt>
<rscale>  0 0.27985717E+03</rscale>
<asrwt>0</asrwt>
<pdfrwt beam="1">  1        2 0.97374297E-02 0.27985717E+03</pdfrwt>
<pdfrwt beam="2">  1       -2 0.47592865E-01 0.27985717E+03</pdfrwt>
<totfact> 0.28008958E+03</totfact>
</mgrwt>
</event>
<event>
 5    1  0.1100736E+001  0.2749082E+03  0.7818608E-02  0.1098503E+00
         -2   -1    0    0    0  501 -0.00000000000E+00  0.00000000000E+00  0.31901522772E+03  0.31901522772E+03  0.00000000000E+00 0. -1.
          2   -1    0    0  501    0  0.00000000000E+00 -0.00000000000E+00 -0.59224851282E+02  0.59224851282E+02  0.00000000000E+00 0. -1.
         35    2    1    2    0    0  0.00000000000E+00  0.00000000000E+00  0.25979037644E+03  0.37824007900E+03  0.27490819863E+03 0.  0.
         25    1    3    3    0    0  0.39865897908E+02 -0.42068249154E+02  0.17624005401E+03  0.22095154229E+03  0.12000000000E+03 0.  0.
         25    1    3    3    0    0 -0.39865897908E+02  0.42068249154E+02  0.83550322424E+02  0.15728853671E+03  0.12000000000E+03 0.  0.
<mgrwt>
<rscale>  0 0.27490820E+03</rscale>
<asrwt>0</asrwt>
<pdfrwt beam="1">  1        2 0.91115158E-02 0.27490820E+03</pdfrwt>
<pdfrwt beam="2">  1       -2 0.49079265E-01 0.27490820E+03</pdfrwt>
<totfact> 0.28620945E+03</totfact>
</mgrwt>
</event>
<event>
 5    1  0.1100736E+001  0.2792226E+03  0.7818608E-02  0.1096114E+00
          1   -1    0    0  501    0  0.00000000000E+00  0.00000000000E+00  0.29950673397E+03  0.29950673397E+03  0.00000000000E+00 0. -1.
         -1   -1    0    0    0  501 -0.00000000000E+00 -0.00000000000E+00 -0.65078064768E+02  0.65078064768E+02  0.00000000000E+00 0. -1.
         35    2    1    2    0    0  0.00000000000E+00  0.00000000000E+00  0.23442866920E+03  0.36458479874E+03  0.27922262538E+03 0.  0.
         25    1    3    3    0    0  0.61881108913E+02 -0.26293162324E+02  0.86021258451E+02  0.16223519634E+03  0.12000000000E+03 0.  0.
         25    1    3    3    0    0 -0.61881108913E+02  0.26293162324E+02  0.14840741075E+03  0.20234960240E+03  0.12000000000E+03 0.  0.
<mgrwt>
<rscale>  0 0.27922263E+03</rscale>
<asrwt>0</asrwt>
<pdfrwt beam="1">  1        1 0.46077958E-01 0.27922263E+03</pdfrwt>
<pdfrwt beam="2">  1       -1 0.10012010E-01 0.27922263E+03</pdfrwt>
<totfact> 0.53111510E+03</totfact>
</mgrwt>
</event>
<event>
 5    1  0.1100736E+001  0.2754545E+03  0.7818608E-02  0.1098198E+00
         -2   -1    0    0    0  501 -0.00000000000E+00  0.00000000000E+00  0.27793528497E+02  0.27793528497E+02  0.00000000000E+00 0.  1.
          2   -1    0    0  501    0  0.00000000000E+00 -0.00000000000E+00 -0.68248942175E+03  0.68248942175E+03  0.00000000000E+00 0.  1.
         35    2    1    2    0    0  0.00000000000E+00  0.00000000000E+00 -0.65469589325E+03  0.71028295025E+03  0.27545445498E+03 0.  0.
         25    1    3    3    0    0 -0.27499165399E+02 -0.15641935594E+02 -0.48137210190E+03  0.49711163207E+03  0.12000000000E+03 0.  0.
         25    1    3    3    0    0  0.27499165399E+02  0.15641935594E+02 -0.17332379135E+03  0.21317131818E+03  0.12000000000E+03 0.  0.
<mgrwt>
<rscale>  0 0.27545445E+03</rscale>
<asrwt>0</asrwt>
<pdfrwt beam="1">  1        2 0.10499837E+00 0.27545445E+03</pdfrwt>
<pdfrwt beam="2">  1       -2 0.42759277E-02 0.27545445E+03</pdfrwt>
<totfact> 0.10703927E+04</totfact>
</mgrwt>
</event>
<event>
 5    1  0.1100736E+001  0.2877979E+03  0.7818608E-02  0.1091505E+00
          2   -1    0    0  501    0  0.00000000000E+00  0.00000000000E+00  0.22785105517E+04  0.22785105517E+04  0.00000000000E+00 0. -1.
         -2   -1    0    0    0  501 -0.00000000000E+00 -0.00000000000E+00 -0.90879141404E+01  0.90879141404E+01  0.00000000000E+00 0. -1.
         35    2    1    2    0    0  0.00000000000E+00  0.00000000000E+00  0.22694226375E+04  0.22875984658E+04  0.28779790313E+03 0.  0.
         25    1    3    3    0    0 -0.38570286789E+02 -0.54199117534E+02  0.78991151846E+03  0.80173899640E+03  0.12000000000E+03 0.  0.
         25    1    3    3    0    0  0.38570286789E+02  0.54199117534E+02  0.14795111191E+04  0.14858594694E+04  0.12000000000E+03 0.  0.
<mgrwt>
<rscale>  0 0.28779790E+03</rscale>
<asrwt>0</asrwt>
<pdfrwt beam="1">  1        2 0.35053963E+00 0.28779790E+03</pdfrwt>
<pdfrwt beam="2">  1       -2 0.13981425E-02 0.28779790E+03</pdfrwt>
<totfact> 0.69147719E+03</totfact>
</mgrwt>
</event>
<event>
 5    1  0.1100736E+001  0.2742348E+03  0.7818608E-02  0.1098880E+00
         -2   -1    0    0    0  501 -0.00000000000E+00  0.00000000000E+00  0.34387815440E+02  0.34387815440E+02  0.00000000000E+00 0. -1.
          2   -1    0    0  501    0  0.00000000000E+00 -0.00000000000E+00 -0.54673960619E+03  0.54673960619E+03  0.00000000000E+00 0. -1.
         35    2    1    2    0    0  0.00000000000E+00  0.00000000000E+00 -0.51235179075E+03  0.58112742163E+03  0.27423479481E+03 0.  0.
         25    1    3    3    0    0 -0.62512509173E+02 -0.21819058304E+02 -0.24736304969E+03  0.28279385329E+03  0.12000000000E+03 0.  0.
         25    1    3    3    0    0  0.62512509173E+02  0.21819058304E+02 -0.26498874106E+03  0.29833356834E+03  0.12000000000E+03 0.  0.
<mgrwt>
<rscale>  0 0.27423479E+03</rscale>
<asrwt>0</asrwt>
<pdfrwt beam="1">  1        2 0.84113783E-01 0.27423479E+03</pdfrwt>
<pdfrwt beam="2">  1       -2 0.52904333E-02 0.27423479E+03</pdfrwt>
<totfact> 0.10041307E+04</totfact>
</mgrwt>
</event>
<event>
 5    1  0.1100736E+001  0.2750430E+03  0.7818608E-02  0.1098428E+00
         -2   -1    0    0    0  501 -0.00000000000E+00  0.00000000000E+00  0.58805235219E+02  0.58805235219E+02  0.00000000000E+00 0. -1.
          2   -1    0    0  501    0  0.00000000000E+00 -0.00000000000E+00 -0.32160668227E+03  0.32160668227E+03  0.00000000000E+00 0. -1.
         35    2    1    2    0    0  0.00000000000E+00  0.00000000000E+00 -0.26280144705E+03  0.38041191749E+03  0.27504295373E+03 0.  0.
         25    1    3    3    0    0 -0.62889536285E+02  0.57468299365E+01 -0.99739005896E+02  0.16833297100E+03  0.12000000000E+03 0.  0.
         25    1    3    3    0    0  0.62889536285E+02 -0.57468299365E+01 -0.16306244115E+03  0.21207894649E+03  0.12000000000E+03 0.  0.
<mgrwt>
<rscale>  0 0.27504295E+03</rscale>
<asrwt>0</asrwt>
<pdfrwt beam="1">  1        2 0.49477952E-01 0.27504295E+03</pdfrwt>
<pdfrwt beam="2">  1       -2 0.90469591E-02 0.27504295E+03</pdfrwt>
<totfact> 0.78330280E+03</totfact>
</mgrwt>
</event>
<event>
 5    1  0.1100736E+001  0.2756811E+03  0.7818608E-02  0.1098071E+00
         -1   -1    0    0    0  501 -0.00000000000E+00  0.00000000000E+00  0.56937136447E+02  0.56937136447E+02  0.00000000000E+00 0. -1.
          1   -1    0    0  501    0  0.00000000000E+00 -0.00000000000E+00 -0.33370164380E+03  0.33370164380E+03  0.00000000000E+00 0. -1.
         35    2    1    2    0    0  0.00000000000E+00  0.00000000000E+00 -0.27676450735E+03  0.39063878025E+03  0.27568109130E+03 0.  0.
         25    1    3    3    0    0  0.77180796920E+01  0.66248886713E+02 -0.15582524464E+03  0.20767761221E+03  0.12000000000E+03 0.  0.
         25    1    3    3    0    0 -0.77180796920E+01 -0.66248886713E+02 -0.12093926271E+03  0.18296116804E+03  0.12000000000E+03 0.  0.
<mgrwt>
<rscale>  0 0.27568109E+03</rscale>
<asrwt>0</asrwt>
<pdfrwt beam="1">  1        1 0.51338716E-01 0.27568109E+03</pdfrwt>
<pdfrwt beam="2">  1       -1 0.87595593E-02 0.27568109E+03</pdfrwt>
<totfact> 0.56912378E+03</totfact>
</mgrwt>
</event>
<event>
 5    1  0.1100736E+001  0.2694328E+03  0.7818608E-02  0.1101605E+00
         -1   -1    0    0    0  501 -0.00000000000E+00  0.00000000000E+00  0.13032035902E+02  0.13032035902E+02  0.00000000000E+00 0. -1.
          1   -1    0    0  501    0  0.00000000000E+00 -0.00000000000E+00 -0.13926071814E+04  0.13926071814E+04  0.00000000000E+00 0. -1.
         35    2    1    2    0    0  0.00000000000E+00  0.00000000000E+00 -0.13795751455E+04  0.14056392173E+04  0.26943278780E+03 0.  0.
         25    1    3    3    0    0 -0.35243696805E+02  0.29431781238E+02 -0.90107146056E+03  0.91018576397E+03  0.12000000000E+03 0.  0.
         25    1    3    3    0    0  0.35243696805E+02 -0.29431781238E+02 -0.47850368490E+03  0.49545345328E+03  0.12000000000E+03 0.  0.
<mgrwt>
<rscale>  0 0.26943279E+03</rscale>
<asrwt>0</asrwt>
<pdfrwt beam="1">  1        1 0.21424734E+00 0.26943279E+03</pdfrwt>
<pdfrwt beam="2">  1       -1 0.20049278E-02 0.26943279E+03</pdfrwt>
<totfact> 0.57657843E+03</totfact>
</mgrwt>
</event>
<event>
 5    1  0.1100736E+001  0.2766205E+03  0.7818608E-02  0.1097549E+00
         -2   -1    0    0    0  501 -0.00000000000E+00  0.00000000000E+00  0.22516206466E+02  0.22516206466E+02  0.00000000000E+00 0. -1.
          2   -1    0    0  501    0  0.00000000000E+00 -0.00000000000E+00 -0.84959815021E+03  0.84959815021E+03  0.00000000000E+00 0. -1.
         35    2    1    2    0    0  0.00000000000E+00  0.00000000000E+00 -0.82708194374E+03  0.87211435667E+03  0.27662051524E+03 0.  0.
         25    1    3    3    0    0 -0.61144832542E+02 -0.11577677083E+02 -0.50583593355E+03  0.52358640627E+03  0.12000000000E+03 0.  0.
         25    1    3    3    0    0  0.61144832542E+02  0.11577677083E+02 -0.32124601019E+03  0.34852795041E+03  0.12000000000E+03 0.  0.
<mgrwt>
<rscale>  0 0.27662052E+03</rscale>
<asrwt>0</asrwt>
<pdfrwt beam="1">  1        2 0.13070741E+00 0.27662052E+03</pdfrwt>
<pdfrwt beam="2">  1       -2 0.34640317E-02 0.27662052E+03</pdfrwt>
<totfact> 0.11167896E+04</totfact>
</mgrwt>
</event>
<event>
 5    1  0.1100736E+001  0.2774918E+03  0.7818608E-02  0.1097067E+00
         -1   -1    0    0    0  501 -0.00000000000E+00  0.00000000000E+00  0.29681772015E+02  0.29681772015E+02  0.00000000000E+00 0.  1.
          1   -1    0    0  501    0  0.00000000000E+00 -0.00000000000E+00 -0.64856045204E+03  0.64856045204E+03  0.00000000000E+00 0.  1.
         35    2    1    2    0    0  0.00000000000E+00  0.00000000000E+00 -0.61887868003E+03  0.67824222406E+03  0.27749179069E+03 0.  0.
         25    1    3    3    0    0  0.51290755479E+02  0.21069919599E+02 -0.41243630260E+03  0.43310320573E+03  0.12000000000E+03 0.  0.
         25    1    3    3    0    0 -0.51290755479E+02 -0.21069919599E+02 -0.20644237743E+03  0.24513901833E+03  0.12000000000E+03 0.  0.
<mgrwt>
<rscale>  0 0.27749179E+03</rscale>
<asrwt>0</asrwt>
<pdfrwt beam="1">  1        1 0.99778536E-01 0.27749179E+03</pdfrwt>
<pdfrwt beam="2">  1       -1 0.45664263E-02 0.27749179E+03</pdfrwt>
<totfact> 0.63348904E+03</totfact>
</mgrwt>
</event>
<event>
 4    1  0.1100736E+001  0.2577719E+03  0.7818608E-02  0.1108489E+00
          1   -1    0    0  501    0  0.00000000000E+00  0.00000000000E+00  0.46884212264E+03  0.46884212264E+03  0.00000000000E+00 0. -1.
         -1   -1    0    0    0  501 -0.00000000000E+00 -0.00000000000E+00 -0.35431091595E+02  0.35431091595E+02  0.00000000000E+00 0. -1.
         25    1    1    2    0    0  0.97683788027E+01 -0.44615551939E+02  0.19477954419E+03  0.23329174768E+03  0.12000000000E+03 0.  0.
         25    1    1    2    0    0 -0.97683788027E+01  0.44615551939E+02  0.23863148686E+03  0.27098146656E+03  0.12000000000E+03 0.  0.
<mgrwt>
<rscale>  0 0.25777190E+03</rscale>
<asrwt>0</asrwt>
<pdfrwt beam="1">  1        1 0.72129553E-01 0.25777190E+03</pdfrwt>
<pdfrwt beam="2">  1       -1 0.54509375E-02 0.25777190E+03</pdfrwt>
<totfact> 0.75379609E+03</totfact>
</mgrwt>
</event>
<event>
 5    1  0.1100736E+001  0.2753602E+03  0.7818608E-02  0.1098250E+00
          1   -1    0    0  501    0  0.00000000000E+00  0.00000000000E+00  0.10527762424E+03  0.10527762424E+03  0.00000000000E+00 0. -1.
         -1   -1    0    0    0  501 -0.00000000000E+00 -0.00000000000E+00 -0.18005541334E+03  0.18005541334E+03  0.00000000000E+00 0. -1.
         35    2    1    2    0    0  0.00000000000E+00  0.00000000000E+00 -0.74777789104E+02  0.28533303758E+03  0.27536017249E+03 0.  0.
         25    1    3    3    0    0 -0.32453213801E+02 -0.48439451259E+02 -0.72623560943E+02  0.15190053696E+03  0.12000000000E+03 0.  0.
         25    1    3    3    0    0  0.32453213801E+02  0.48439451259E+02 -0.21542281605E+01  0.13343250063E+03  0.12000000000E+03 0.  0.
<mgrwt>
<rscale>  0 0.27536017E+03</rscale>
<asrwt>0</asrwt>
<pdfrwt beam="1">  1        1 0.16196558E-01 0.27536017E+03</pdfrwt>
<pdfrwt beam="2">  1       -1 0.27700833E-01 0.27536017E+03</pdfrwt>
<totfact> 0.39200319E+03</totfact>
</mgrwt>
</event>
<event>
 5    1  0.1100736E+001  0.2739382E+03  0.7818608E-02  0.1099047E+00
          3   -1    0    0  501    0  0.00000000000E+00  0.00000000000E+00  0.11475718863E+04  0.11475718863E+04  0.00000000000E+00 0.  1.
         -3   -1    0    0    0  501 -0.00000000000E+00 -0.00000000000E+00 -0.16348028467E+02  0.16348028467E+02  0.00000000000E+00 0.  1.
         35    2    1    2    0    0  0.00000000000E+00  0.00000000000E+00  0.11312238578E+04  0.11639199148E+04  0.27393822563E+03 0.  0.
         25    1    3    3    0    0  0.34191692226E+02  0.56233684656E+02  0.58858663287E+03  0.60428927138E+03  0.12000000000E+03 0.  0.
         25    1    3    3    0    0 -0.34191692226E+02 -0.56233684656E+02  0.54263722496E+03  0.55963064339E+03  0.12000000000E+03 0.  0.
<mgrwt>
<rscale>  0 0.27393823E+03</rscale>
<asrwt>0</asrwt>
<pdfrwt beam="1">  1        3 0.17654946E+00 0.27393823E+03</pdfrwt>
<pdfrwt beam="2">  1       -3 0.25150822E-02 0.27393823E+03</pdfrwt>
<totfact> 0.38223229E+02</totfact>
</mgrwt>
</event>
<event>
 5    1  0.1100736E+001  0.2749629E+03  0.7818608E-02  0.1098472E+00
         -1   -1    0    0    0  501 -0.00000000000E+00  0.00000000000E+00  0.74024190957E+02  0.74024190957E+02  0.00000000000E+00 0.  1.
          1   -1    0    0  501    0  0.00000000000E+00 -0.00000000000E+00 -0.25533741739E+03  0.25533741739E+03  0.00000000000E+00 0.  1.
         35    2    1    2    0    0  0.00000000000E+00  0.00000000000E+00 -0.18131322643E+03  0.32936160835E+03  0.27496287563E+03 0.  0.
         25    1    3    3    0    0 -0.21558808837E+02  0.56506824697E+02 -0.12544232124E+03  0.18383030064E+03  0.12000000000E+03 0.  0.
         25    1    3    3    0    0  0.21558808837E+02 -0.56506824697E+02 -0.55870905194E+02  0.14553130771E+03  0.12000000000E+03 0.  0.
<mgrwt>
<rscale>  0 0.27496288E+03</rscale>
<asrwt>0</asrwt>
<pdfrwt beam="1">  1        1 0.39282680E-01 0.27496288E+03</pdfrwt>
<pdfrwt beam="2">  1       -1 0.11388337E-01 0.27496288E+03</pdfrwt>
<totfact> 0.53111582E+03</totfact>
</mgrwt>
</event>
<event>
 5    1  0.1100736E+001  0.2748095E+03  0.7818608E-02  0.1098558E+00
         -2   -1    0    0    0  501 -0.00000000000E+00  0.00000000000E+00  0.47846820453E+02  0.47846820453E+02  0.00000000000E+00 0. -1.
          2   -1    0    0  501    0  0.00000000000E+00 -0.00000000000E+00 -0.39459384811E+03  0.39459384811E+03  0.00000000000E+00 0. -1.
         35    2    1    2    0    0  0.00000000000E+00  0.00000000000E+00 -0.34674702766E+03  0.44244066857E+03  0.27480946856E+03 0.  0.
         25    1    3    3    0    0 -0.55471424019E+02 -0.75534600562E+01 -0.23243905108E+03  0.26751083363E+03  0.12000000000E+03 0.  0.
         25    1    3    3    0    0  0.55471424019E+02  0.75534600562E+01 -0.11430797658E+03  0.17492983494E+03  0.12000000000E+03 0.  0.
<mgrwt>
<rscale>  0 0.27480947E+03</rscale>
<asrwt>0</asrwt>
<pdfrwt beam="1">  1        2 0.60706744E-01 0.27480947E+03</pdfrwt>
<pdfrwt beam="2">  1       -2 0.73610495E-02 0.27480947E+03</pdfrwt>
<totfact> 0.86714446E+03</totfact>
</mgrwt>
</event>
<event>
 5    1  0.1100736E+001  0.2756283E+03  0.7818608E-02  0.1098101E+00
         -1   -1    0    0    0  501 -0.00000000000E+00  0.00000000000E+00  0.95282177184E+02  0.95282177184E+02  0.00000000000E+00 0.  1.
          1   -1    0    0  501    0  0.00000000000E+00 -0.00000000000E+00 -0.19933149414E+03  0.19933149414E+03  0.00000000000E+00 0.  1.
         35    2    1    2    0    0  0.00000000000E+00  0.00000000000E+00 -0.10404931695E+03  0.29461367132E+03  0.27562829131E+03 0.  0.
         25    1    3    3    0    0 -0.40118210455E+01 -0.51758998499E+02 -0.98587253156E+02  0.16375144310E+03  0.12000000000E+03 0.  0.
         25    1    3    3    0    0  0.40118210455E+01  0.51758998499E+02 -0.54620637991E+01  0.13086222822E+03  0.12000000000E+03 0.  0.
<mgrwt>
<rscale>  0 0.27562829E+03</rscale>
<asrwt>0</asrwt>
<pdfrwt beam="1">  1        1 0.30666383E-01 0.27562829E+03</pdfrwt>
<pdfrwt beam="2">  1       -1 0.14658797E-01 0.27562829E+03</pdfrwt>
<totfact> 0.48785800E+03</totfact>
</mgrwt>
</event>
<event>
 5    1  0.1100736E+001  0.2745933E+03  0.7818608E-02  0.1098679E+00
         -3   -1    0    0    0  501 -0.00000000000E+00  0.00000000000E+00  0.38541665430E+03  0.38541665430E+03  0.00000000000E+00 0. -1.
          3   -1    0    0  501    0  0.00000000000E+00 -0.00000000000E+00 -0.48909062956E+02  0.48909062956E+02  0.00000000000E+00 0. -1.
         35    2    1    2    0    0  0.00000000000E+00  0.00000000000E+00  0.33650759134E+03  0.43432571726E+03  0.27459328039E+03 0.  0.
         25    1    3    3    0    0 -0.56389795553E+02 -0.29909226922E+02  0.13758352928E+03  0.19340009935E+03  0.12000000000E+03 0.  0.
         25    1    3    3    0    0  0.56389795553E+02  0.29909226922E+02  0.19892406206E+03  0.24092561791E+03  0.12000000000E+03 0.  0.
<mgrwt>
<rscale>  0 0.27459328E+03</rscale>
<asrwt>0</asrwt>
<pdfrwt beam="1">  1        3 0.75244715E-02 0.27459328E+03</pdfrwt>
<pdfrwt beam="2">  1       -3 0.59294868E-01 0.27459328E+03</pdfrwt>
<totfact> 0.84529517E+02</totfact>
</mgrwt>
</event>
<event>
 5    1  0.1100736E+001  0.2753664E+03  0.7818608E-02  0.1098247E+00
         -2   -1    0    0    0  501 -0.00000000000E+00  0.00000000000E+00  0.58859897672E+02  0.58859897672E+02  0.00000000000E+00 0. -1.
          2   -1    0    0  501    0  0.00000000000E+00 -0.00000000000E+00 -0.32206425842E+03  0.32206425842E+03  0.00000000000E+00 0. -1.
         35    2    1    2    0    0  0.00000000000E+00  0.00000000000E+00 -0.26320436075E+03  0.38092415609E+03  0.27536644163E+03 0.  0.
         25    1    3    3    0    0 -0.15253819719E+02  0.17334203330E+02 -0.21934879105E+03  0.25109170786E+03  0.12000000000E+03 0.  0.
         25    1    3    3    0    0  0.15253819719E+02 -0.17334203330E+02 -0.43855569702E+02  0.12983244824E+03  0.12000000000E+03 0.  0.
<mgrwt>
<rscale>  0 0.27536644E+03</rscale>
<asrwt>0</asrwt>
<pdfrwt beam="1">  1        2 0.49548348E-01 0.27536644E+03</pdfrwt>
<pdfrwt beam="2">  1       -2 0.90553688E-02 0.27536644E+03</pdfrwt>
<totfact> 0.78099516E+03</totfact>
</mgrwt>
</event>
<event>
 5    1  0.1100736E+001  0.2741778E+03  0.7818608E-02  0.1098912E+00
         -1   -1    0    0    0  501 -0.00000000000E+00  0.00000000000E+00  0.16351294349E+04  0.16351294349E+04  0.00000000000E+00 0.  1.
          1   -1    0    0  501    0  0.00000000000E+00 -0.00000000000E+00 -0.11493505728E+02  0.11493505728E+02  0.00000000000E+00 0.  1.
         35    2    1    2    0    0  0.00000000000E+00  0.00000000000E+00  0.16236359292E+04  0.16466229407E+04  0.27417782205E+03 0.  0.
         25    1    3    3    0    0 -0.22546363971E+02  0.43536206886E+01  0.11852375465E+04  0.11915180797E+04  0.12000000000E+03 0.  0.
         25    1    3    3    0    0  0.22546363971E+02 -0.43536206886E+01  0.43839838270E+03  0.45510486099E+03  0.12000000000E+03 0.  0.
<mgrwt>
<rscale>  0 0.27417782E+03</rscale>
<asrwt>0</asrwt>
<pdfrwt beam="1">  1        1 0.17682329E-02 0.27417782E+03</pdfrwt>
<pdfrwt beam="2">  1       -1 0.25155819E+00 0.27417782E+03</pdfrwt>
<totfact> 0.55883152E+02</totfact>
</mgrwt>
</event>
<event>
 5    1  0.1100736E+001  0.2750136E+03  0.7818608E-02  0.1098444E+00
         -1   -1    0    0    0  501 -0.00000000000E+00  0.00000000000E+00  0.18779606576E+02  0.18779606576E+02  0.00000000000E+00 0.  1.
          1   -1    0    0  501    0  0.00000000000E+00 -0.00000000000E+00 -0.10068429091E+04  0.10068429091E+04  0.00000000000E+00 0.  1.
         35    2    1    2    0    0  0.00000000000E+00  0.00000000000E+00 -0.98806330253E+03  0.10256225157E+04  0.27501355397E+03 0.  0.
         25    1    3    3    0    0 -0.17425254701E+02 -0.59785361888E+01 -0.73481996239E+03  0.74478168581E+03  0.12000000000E+03 0.  0.
         25    1    3    3    0    0  0.17425254701E+02  0.59785361888E+01 -0.25324334014E+03  0.28084082987E+03  0.12000000000E+03 0.  0.
<mgrwt>
<rscale>  0 0.27501355E+03</rscale>
<asrwt>0</asrwt>
<pdfrwt beam="1">  1        1 0.15489890E+00 0.27501355E+03</pdfrwt>
<pdfrwt beam="2">  1       -1 0.28891704E-02 0.27501355E+03</pdfrwt>
<totfact> 0.62982670E+03</totfact>
</mgrwt>
</event>
<event>
 5    1  0.1100736E+001  0.2750260E+03  0.7818608E-02  0.1098437E+00
          2   -1    0    0  501    0  0.00000000000E+00  0.00000000000E+00  0.43875050850E+03  0.43875050850E+03  0.00000000000E+00 0.  1.
         -2   -1    0    0    0  501 -0.00000000000E+00 -0.00000000000E+00 -0.43099252669E+02  0.43099252669E+02  0.00000000000E+00 0.  1.
         35    2    1    2    0    0  0.00000000000E+00  0.00000000000E+00  0.39565125583E+03  0.48184976117E+03  0.27502595532E+03 0.  0.
         25    1    3    3    0    0  0.34505264769E+01 -0.61416606438E+02  0.15062145894E+03  0.20216510473E+03  0.12000000000E+03 0.  0.
         25    1    3    3    0    0 -0.34505264769E+01  0.61416606438E+02  0.24502979689E+03  0.27968465643E+03  0.12000000000E+03 0.  0.
<mgrwt>
<rscale>  0 0.27502596E+03</rscale>
<asrwt>0</asrwt>
<pdfrwt beam="1">  1        2 0.67500075E-01 0.27502596E+03</pdfrwt>
<pdfrwt beam="2">  1       -2 0.66306545E-02 0.27502596E+03</pdfrwt>
<totfact> 0.90804200E+03</totfact>
</mgrwt>
</event>
<event>
 5    1  0.1100736E+001  0.2753000E+03  0.7818608E-02  0.1098284E+00
         -2   -1    0    0    0  501 -0.00000000000E+00  0.00000000000E+00  0.84434019416E+01  0.84434019416E+01  0.00000000000E+00 0. -1.
          2   -1    0    0  501    0  0.00000000000E+00 -0.00000000000E+00 -0.22440622680E+04  0.22440622680E+04  0.00000000000E+00 0. -1.
         35    2    1    2    0    0  0.00000000000E+00  0.00000000000E+00 -0.22356188661E+04  0.22525056700E+04  0.27529997974E+03 0.  0.
         25    1    3    3    0    0  0.14763725757E+02 -0.20205199673E+02 -0.60544985429E+03  0.61773436343E+03  0.12000000000E+03 0.  0.
         25    1    3    3    0    0 -0.14763725757E+02  0.20205199673E+02 -0.16301690118E+04  0.16347713066E+04  0.12000000000E+03 0.  0.
<mgrwt>
<rscale>  0 0.27529998E+03</rscale>
<asrwt>0</asrwt>
<pdfrwt beam="1">  1        2 0.34524074E+00 0.27529998E+03</pdfrwt>
<pdfrwt beam="2">  1       -2 0.12989834E-02 0.27529998E+03</pdfrwt>
<totfact> 0.80326161E+03</totfact>
</mgrwt>
</event>
<event>
 5    1  0.1100736E+001  0.2753726E+03  0.7818608E-02  0.1098244E+00
          2   -1    0    0  501    0  0.00000000000E+00  0.00000000000E+00  0.17634350595E+04  0.17634350595E+04  0.00000000000E+00 0. -1.
         -2   -1    0    0    0  501 -0.00000000000E+00 -0.00000000000E+00 -0.10750335295E+02  0.10750335295E+02  0.00000000000E+00 0. -1.
         35    2    1    2    0    0  0.00000000000E+00  0.00000000000E+00  0.17526847242E+04  0.17741853948E+04  0.27537260692E+03 0.  0.
         25    1    3    3    0    0  0.37012193573E+02  0.18699227519E+02  0.53311572602E+03  0.54802549294E+03  0.12000000000E+03 0.  0.
         25    1    3    3    0    0 -0.37012193573E+02 -0.18699227519E+02  0.12195689982E+04  0.12261599018E+04  0.12000000000E+03 0.  0.
<mgrwt>
<rscale>  0 0.27537261E+03</rscale>
<asrwt>0</asrwt>
<pdfrwt beam="1">  1        2 0.27129747E+00 0.27537261E+03</pdfrwt>
<pdfrwt beam="2">  1       -2 0.16538991E-02 0.27537261E+03</pdfrwt>
<totfact> 0.10114100E+04</totfact>
</mgrwt>
</event>
<event>
 5    1  0.1100736E+001  0.2758668E+03  0.7818608E-02  0.1097968E+00
          3   -1    0    0  501    0  0.00000000000E+00  0.00000000000E+00  0.22260366745E+03  0.22260366745E+03  0.00000000000E+00 0.  1.
         -3   -1    0    0    0  501 -0.00000000000E+00 -0.00000000000E+00 -0.85468624295E+02  0.85468624295E+02  0.00000000000E+00 0.  1.
         35    2    1    2    0    0  0.00000000000E+00  0.00000000000E+00  0.13713504316E+03  0.30807229175E+03  0.27586684629E+03 0.  0.
         25    1    3    3    0    0 -0.37510864679E+02  0.56411900658E+02  0.75292289530E+02  0.15702960348E+03  0.12000000000E+03 0.  0.
         25    1    3    3    0    0  0.37510864679E+02 -0.56411900658E+02  0.61842753630E+02  0.15104268827E+03  0.12000000000E+03 0.  0.
<mgrwt>
<rscale>  0 0.27586685E+03</rscale>
<asrwt>0</asrwt>
<pdfrwt beam="1">  1        3 0.34246718E-01 0.27586685E+03</pdfrwt>
<pdfrwt beam="2">  1       -3 0.13149019E-01 0.27586685E+03</pdfrwt>
<totfact> 0.99052429E+02</totfact>
</mgrwt>
</event>
<event>
 5    1  0.1100736E+001  0.2749410E+03  0.7818608E-02  0.1098485E+00
          2   -1    0    0  501    0  0.00000000000E+00  0.00000000000E+00  0.45621793996E+03  0.45621793996E+03  0.00000000000E+00 0.  1.
         -2   -1    0    0    0  501 -0.00000000000E+00 -0.00000000000E+00 -0.41423481715E+02  0.41423481715E+02  0.00000000000E+00 0.  1.
         35    2    1    2    0    0  0.00000000000E+00  0.00000000000E+00  0.41479445824E+03  0.49764142167E+03  0.27494097908E+03 0.  0.
         25    1    3    3    0    0  0.36033351028E+01 -0.65881763949E+02  0.18562121919E+03  0.23066995439E+03  0.12000000000E+03 0.  0.
         25    1    3    3    0    0 -0.36033351028E+01  0.65881763949E+02  0.22917323905E+03  0.26697146728E+03  0.12000000000E+03 0.  0.
<mgrwt>
<rscale>  0 0.27494098E+03</rscale>
<asrwt>0</asrwt>
<pdfrwt beam="1">  1        2 0.70187372E-01 0.27494098E+03</pdfrwt>
<pdfrwt beam="2">  1       -2 0.63728436E-02 0.27494098E+03</pdfrwt>
<totfact> 0.92469073E+03</totfact>
</mgrwt>
</event>
<event>
 5    1  0.1100736E+001  0.2767831E+03  0.7818608E-02  0.1097459E+00
         -1   -1    0    0    0  501 -0.00000000000E+00  0.00000000000E+00  0.12339881861E+03  0.12339881861E+03  0.00000000000E+00 0.  1.
          1   -1    0    0  501    0  0.00000000000E+00 -0.00000000000E+00 -0.15520585418E+03  0.15520585418E+03  0.00000000000E+00 0.  1.
         35    2    1    2    0    0  0.00000000000E+00  0.00000000000E+00 -0.31807035575E+02  0.27860467279E+03  0.27678308508E+03 0.  0.
         25    1    3    3    0    0  0.24090865993E+02 -0.56524507928E+02  0.15556442698E+02  0.13571069497E+03  0.12000000000E+03 0.  0.
         25    1    3    3    0    0 -0.24090865993E+02  0.56524507928E+02 -0.47363478273E+02  0.14289397781E+03  0.12000000000E+03 0.  0.
<mgrwt>
<rscale>  0 0.27678309E+03</rscale>
<asrwt>0</asrwt>
<pdfrwt beam="1">  1        1 0.23877824E-01 0.27678309E+03</pdfrwt>
<pdfrwt beam="2">  1       -1 0.18984434E-01 0.27678309E+03</pdfrwt>
<totfact> 0.44301727E+03</totfact>
</mgrwt>
</event>
<event>
 5    1  0.1100736E+001  0.2754883E+03  0.7818608E-02  0.1098179E+00
          2   -1    0    0  501    0  0.00000000000E+00  0.00000000000E+00  0.33739816110E+03  0.33739816110E+03  0.00000000000E+00 0. -1.
         -2   -1    0    0    0  501 -0.00000000000E+00 -0.00000000000E+00 -0.56234594042E+02  0.56234594042E+02  0.00000000000E+00 0. -1.
         35    2    1    2    0    0  0.00000000000E+00  0.00000000000E+00  0.28116356706E+03  0.39363275514E+03  0.27548828374E+03 0.  0.
         25    1    3    3    0    0 -0.58771517364E+02 -0.68046060460E+01  0.18738751404E+03  0.23024872276E+03  0.12000000000E+03 0.  0.
         25    1    3    3    0    0  0.58771517364E+02  0.68046060460E+01  0.93776053021E+02  0.16338403238E+03  0.12000000000E+03 0.  0.
<mgrwt>
<rscale>  0 0.27548828E+03</rscale>
<asrwt>0</asrwt>
<pdfrwt beam="1">  1        2 0.51907409E-01 0.27548828E+03</pdfrwt>
<pdfrwt beam="2">  1       -2 0.86514761E-02 0.27548828E+03</pdfrwt>
<totfact> 0.79815671E+03</totfact>
</mgrwt>
</event>
<event>
 5    1  0.1100736E+001  0.2761527E+03  0.7818608E-02  0.1097809E+00
          2   -1    0    0  501    0  0.00000000000E+00  0.00000000000E+00  0.94585681863E+03  0.94585681863E+03  0.00000000000E+00 0.  1.
         -2   -1    0    0    0  501 -0.00000000000E+00 -0.00000000000E+00 -0.20156416743E+02  0.20156416743E+02  0.00000000000E+00 0.  1.
         35    2    1    2    0    0  0.00000000000E+00  0.00000000000E+00  0.92570040189E+03  0.96601323537E+03  0.27615274191E+03 0.  0.
         25    1    3    3    0    0  0.19411528698E+02 -0.36383181570E+02  0.65331399793E+03  0.66552214331E+03  0.12000000000E+03 0.  0.
         25    1    3    3    0    0 -0.19411528698E+02  0.36383181570E+02  0.27238640396E+03  0.30049109206E+03  0.12000000000E+03 0.  0.
<mgrwt>
<rscale>  0 0.27615274E+03</rscale>
<asrwt>0</asrwt>
<pdfrwt beam="1">  1        2 0.14551640E+00 0.27615274E+03</pdfrwt>
<pdfrwt beam="2">  1       -2 0.31009879E-02 0.27615274E+03</pdfrwt>
<totfact> 0.11413312E+04</totfact>
</mgrwt>
</event>
<event>
 5    1  0.1100736E+001  0.2750629E+03  0.7818608E-02  0.1098416E+00
         -4   -1    0    0    0  501 -0.00000000000E+00  0.00000000000E+00  0.51582339007E+03  0.51582339007E+03  0.00000000000E+00 0.  1.
          4   -1    0    0  501    0  0.00000000000E+00 -0.00000000000E+00 -0.36669337393E+02  0.36669337393E+02  0.00000000000E+00 0.  1.
         35    2    1    2    0    0  0.00000000000E+00  0.00000000000E+00  0.47915405268E+03  0.55249272746E+03  0.27506291590E+03 0.  0.
         25    1    3    3    0    0  0.63144965869E+02  0.12348952585E+02  0.27847964282E+03  0.30998499127E+03  0.12000000000E+03 0.  0.
         25    1    3    3    0    0 -0.63144965869E+02 -0.12348952585E+02  0.20067440985E+03  0.24250773620E+03  0.12000000000E+03 0.  0.
<mgrwt>
<rscale>  0 0.27506292E+03</rscale>
<asrwt>0</asrwt>
<pdfrwt beam="1">  1        4 0.56414369E-02 0.27506292E+03</pdfrwt>
<pdfrwt beam="2">  1       -4 0.79357440E-01 0.27506292E+03</pdfrwt>
<totfact> 0.53184776E+02</totfact>
</mgrwt>
</event>
<event>
 5    1  0.1100736E+001  0.2753961E+03  0.7818608E-02  0.1098230E+00
          2   -1    0    0  501    0  0.00000000000E+00  0.00000000000E+00  0.11897567012E+04  0.11897567012E+04  0.00000000000E+00 0.  1.
         -2   -1    0    0    0  501 -0.00000000000E+00 -0.00000000000E+00 -0.15936664521E+02  0.15936664521E+02  0.00000000000E+00 0.  1.
         35    2    1    2    0    0  0.00000000000E+00  0.00000000000E+00  0.11738200367E+04  0.12056933658E+04  0.27539610316E+03 0.  0.
         25    1    3    3    0    0 -0.38199860987E+02 -0.10063018199E+02  0.82671516765E+03  0.83631241898E+03  0.12000000000E+03 0.  0.
         25    1    3    3    0    0  0.38199860987E+02  0.10063018199E+02  0.34710486907E+03  0.36938094678E+03  0.12000000000E+03 0.  0.
<mgrwt>
<rscale>  0 0.27539610E+03</rscale>
<asrwt>0</asrwt>
<pdfrwt beam="1">  1        2 0.18303942E+00 0.27539610E+03</pdfrwt>
<pdfrwt beam="2">  1       -2 0.24517955E-02 0.27539610E+03</pdfrwt>
<totfact> 0.11570002E+04</totfact>
</mgrwt>
</event>
<event>
 5    1  0.1100736E+001  0.2753434E+03  0.7818608E-02  0.1098260E+00
         -2   -1    0    0    0  501 -0.00000000000E+00  0.00000000000E+00  0.22452101867E+02  0.22452101867E+02  0.00000000000E+00 0. -1.
          2   -1    0    0  501    0  0.00000000000E+00 -0.00000000000E+00 -0.84417464605E+03  0.84417464605E+03  0.00000000000E+00 0. -1.
         35    2    1    2    0    0  0.00000000000E+00  0.00000000000E+00 -0.82172254418E+03  0.86662674792E+03  0.27534338668E+03 0.  0.
         25    1    3    3    0    0 -0.50027276309E+02 -0.43319811066E+02 -0.45239802772E+03  0.47269790552E+03  0.12000000000E+03 0.  0.
         25    1    3    3    0    0  0.50027276309E+02  0.43319811066E+02 -0.36932451647E+03  0.39392884239E+03  0.12000000000E+03 0.  0.
<mgrwt>
<rscale>  0 0.27534339E+03</rscale>
<asrwt>0</asrwt>
<pdfrwt beam="1">  1        2 0.12987301E+00 0.27534339E+03</pdfrwt>
<pdfrwt beam="2">  1       -2 0.34541699E-02 0.27534339E+03</pdfrwt>
<totfact> 0.11307841E+04</totfact>
</mgrwt>
</event>
<event>
 5    1  0.1100736E+001  0.2750646E+03  0.7818608E-02  0.1098416E+00
         -2   -1    0    0    0  501 -0.00000000000E+00  0.00000000000E+00  0.49791903786E+02  0.49791903786E+02  0.00000000000E+00 0.  1.
          2   -1    0    0  501    0  0.00000000000E+00 -0.00000000000E+00 -0.37988362366E+03  0.37988362366E+03  0.00000000000E+00 0.  1.
         35    2    1    2    0    0  0.00000000000E+00  0.00000000000E+00 -0.33009171988E+03  0.42967552745E+03  0.27506456580E+03 0.  0.
         25    1    3    3    0    0  0.49377741711E+02  0.40132297154E+02 -0.13131173110E+03  0.18892202988E+03  0.12000000000E+03 0.  0.
         25    1    3    3    0    0 -0.49377741711E+02 -0.40132297154E+02 -0.19877998878E+03  0.24075349757E+03  0.12000000000E+03 0.  0.
<mgrwt>
<rscale>  0 0.27506457E+03</rscale>
<asrwt>0</asrwt>
<pdfrwt beam="1">  1        2 0.58443634E-01 0.27506457E+03</pdfrwt>
<pdfrwt beam="2">  1       -2 0.76602929E-02 0.27506457E+03</pdfrwt>
<totfact> 0.84932411E+03</totfact>
</mgrwt>
</event>
<event>
 5    1  0.1100736E+001  0.2750285E+03  0.7818608E-02  0.1098436E+00
          1   -1    0    0  501    0  0.00000000000E+00  0.00000000000E+00  0.24769029697E+03  0.24769029697E+03  0.00000000000E+00 0.  1.
         -1   -1    0    0    0  501 -0.00000000000E+00 -0.00000000000E+00 -0.76346043713E+02  0.76346043713E+02  0.00000000000E+00 0.  1.
         35    2    1    2    0    0  0.00000000000E+00  0.00000000000E+00  0.17134425326E+03  0.32403634068E+03  0.27502853844E+03 0.  0.
         25    1    3    3    0    0  0.40809405642E+02 -0.53335626919E+02  0.86000231465E+02  0.16219166594E+03  0.12000000000E+03 0.  0.
         25    1    3    3    0    0 -0.40809405642E+02  0.53335626919E+02  0.85344021793E+02  0.16184467475E+03  0.12000000000E+03 0.  0.
<mgrwt>
<rscale>  0 0.27502854E+03</rscale>
<asrwt>0</asrwt>
<pdfrwt beam="1">  1        1 0.38106199E-01 0.27502854E+03</pdfrwt>
<pdfrwt beam="2">  1       -1 0.11745545E-01 0.27502854E+03</pdfrwt>
<totfact> 0.52585773E+03</totfact>
</mgrwt>
</event>
<event>
 5    1  0.1100736E+001  0.2752749E+03  0.7818608E-02  0.1098298E+00
         -2   -1    0    0    0  501 -0.00000000000E+00  0.00000000000E+00  0.32289487774E+02  0.32289487774E+02  0.00000000000E+00 0.  1.
          2   -1    0    0  501    0  0.00000000000E+00 -0.00000000000E+00 -0.58669469498E+03  0.58669469498E+03  0.00000000000E+00 0.  1.
         35    2    1    2    0    0  0.00000000000E+00  0.00000000000E+00 -0.55440520721E+03  0.61898418276E+03  0.27527492571E+03 0.  0.
         25    1    3    3    0    0 -0.38122040912E+02  0.45648445714E+02 -0.34855815359E+03  0.37340307582E+03  0.12000000000E+03 0.  0.
         25    1    3    3    0    0  0.38122040912E+02 -0.45648445714E+02 -0.20584705362E+03  0.24558110693E+03  0.12000000000E+03 0.  0.
<mgrwt>
<rscale>  0 0.27527493E+03</rscale>
<asrwt>0</asrwt>
<pdfrwt beam="1">  1        2 0.90260717E-01 0.27527493E+03</pdfrwt>
<pdfrwt beam="2">  1       -2 0.49676138E-02 0.27527493E+03</pdfrwt>
<totfact> 0.10194243E+04</totfact>
</mgrwt>
</event>
<event>
 5    1  0.1100736E+001  0.2688591E+03  0.7818608E-02  0.1101934E+00
          2   -1    0    0  501    0  0.00000000000E+00  0.00000000000E+00  0.84671796097E+03  0.84671796097E+03  0.00000000000E+00 0.  1.
         -2   -1    0    0    0  501 -0.00000000000E+00 -0.00000000000E+00 -0.21342765920E+02  0.21342765920E+02  0.00000000000E+00 0.  1.
         35    2    1    2    0    0  0.00000000000E+00  0.00000000000E+00  0.82537519505E+03  0.86806072689E+03  0.26885909500E+03 0.  0.
         25    1    3    3    0    0  0.16556165456E+02 -0.66233577297E+01  0.59965391655E+03  0.61180290545E+03  0.12000000000E+03 0.  0.
         25    1    3    3    0    0 -0.16556165456E+02  0.66233577297E+01  0.22572127850E+03  0.25625782144E+03  0.12000000000E+03 0.  0.
<mgrwt>
<rscale>  0 0.26885910E+03</rscale>
<asrwt>0</asrwt>
<pdfrwt beam="1">  1        2 0.13026428E+00 0.26885910E+03</pdfrwt>
<pdfrwt beam="2">  1       -2 0.32835031E-02 0.26885910E+03</pdfrwt>
<totfact> 0.12139223E+04</totfact>
</mgrwt>
</event>
<event>
 5    1  0.1100736E+001  0.2756321E+03  0.7818608E-02  0.1098099E+00
          1   -1    0    0  501    0  0.00000000000E+00  0.00000000000E+00  0.42093926503E+03  0.42093926503E+03  0.00000000000E+00 0.  1.
         -1   -1    0    0    0  501 -0.00000000000E+00 -0.00000000000E+00 -0.45121138086E+02  0.45121138086E+02  0.00000000000E+00 0.  1.
         35    2    1    2    0    0  0.00000000000E+00  0.00000000000E+00  0.37581812694E+03  0.46606040311E+03  0.27563206420E+03 0.  0.
         25    1    3    3    0    0 -0.27485513083E+02  0.16943855465E+02  0.87153245313E+02  0.15178351635E+03  0.12000000000E+03 0.  0.
         25    1    3    3    0    0  0.27485513083E+02 -0.16943855465E+02  0.28866488163E+03  0.31427688676E+03  0.12000000000E+03 0.  0.
<mgrwt>
<rscale>  0 0.27563206E+03</rscale>
<asrwt>0</asrwt>
<pdfrwt beam="1">  1        1 0.64759884E-01 0.27563206E+03</pdfrwt>
<pdfrwt beam="2">  1       -1 0.69417138E-02 0.27563206E+03</pdfrwt>
<totfact> 0.60347329E+03</totfact>
</mgrwt>
</event>
<event>
 5    1  0.1100736E+001  0.2686415E+03  0.7818608E-02  0.1102060E+00
          1   -1    0    0  501    0  0.00000000000E+00  0.00000000000E+00  0.32226205518E+04  0.32226205518E+04  0.00000000000E+00 0. -1.
         -1   -1    0    0    0  501 -0.00000000000E+00 -0.00000000000E+00 -0.55985693728E+01  0.55985693728E+01  0.00000000000E+00 0. -1.
         35    2    1    2    0    0  0.00000000000E+00  0.00000000000E+00  0.32170219825E+04  0.32282191212E+04  0.26864150626E+03 0.  0.
         25    1    3    3    0    0 -0.30692818837E+02  0.51943765515E+02  0.15921186198E+04  0.15977740464E+04  0.12000000000E+03 0.  0.
         25    1    3    3    0    0  0.30692818837E+02 -0.51943765515E+02  0.16249033626E+04  0.16304450748E+04  0.12000000000E+03 0.  0.
<mgrwt>
<rscale>  0 0.26864151E+03</rscale>
<asrwt>0</asrwt>
<pdfrwt beam="1">  1        1 0.49578630E+00 0.26864151E+03</pdfrwt>
<pdfrwt beam="2">  1       -1 0.86132094E-03 0.26864151E+03</pdfrwt>
<totfact> 0.11746389E+03</totfact>
</mgrwt>
</event>
<event>
 5    1  0.1100736E+001  0.2748476E+03  0.7818608E-02  0.1098537E+00
         -2   -1    0    0    0  501 -0.00000000000E+00  0.00000000000E+00  0.15137830885E+02  0.15137830885E+02  0.00000000000E+00 0. -1.
          2   -1    0    0  501    0  0.00000000000E+00 -0.00000000000E+00 -0.12475570235E+04  0.12475570235E+04  0.00000000000E+00 0. -1.
         35    2    1    2    0    0  0.00000000000E+00  0.00000000000E+00 -0.12324191926E+04  0.12626948544E+04  0.27484764683E+03 0.  0.
         25    1    3    3    0    0 -0.20381510290E+02  0.58905277889E+02 -0.50366952904E+03  0.52150573555E+03  0.12000000000E+03 0.  0.
         25    1    3    3    0    0  0.20381510290E+02 -0.58905277889E+02 -0.72874966359E+03  0.74118911886E+03  0.12000000000E+03 0.  0.
<mgrwt>
<rscale>  0 0.27484765E+03</rscale>
<asrwt>0</asrwt>
<pdfrwt beam="1">  1        2 0.19193186E+00 0.27484765E+03</pdfrwt>
<pdfrwt beam="2">  1       -2 0.23288970E-02 0.27484765E+03</pdfrwt>
<totfact> 0.11578285E+04</totfact>
</mgrwt>
</event>
<event>
 5    1  0.1100736E+001  0.2745662E+03  0.7818608E-02  0.1098694E+00
         -4   -1    0    0    0  501 -0.00000000000E+00  0.00000000000E+00  0.16988817266E+03  0.16988817266E+03  0.00000000000E+00 0. -1.
          4   -1    0    0  501    0  0.00000000000E+00 -0.00000000000E+00 -0.11093559241E+03  0.11093559241E+03  0.00000000000E+00 0. -1.
         35    2    1    2    0    0  0.00000000000E+00  0.00000000000E+00  0.58952580251E+02  0.28082376506E+03  0.27456616744E+03 0.  0.
         25    1    3    3    0    0  0.65331708074E+02  0.17432563067E+01  0.15931586498E+02  0.13756847921E+03  0.12000000000E+03 0.  0.
         25    1    3    3    0    0 -0.65331708074E+02 -0.17432563067E+01  0.43020993753E+02  0.14325528586E+03  0.12000000000E+03 0.  0.
<mgrwt>
<rscale>  0 0.27456617E+03</rscale>
<asrwt>0</asrwt>
<pdfrwt beam="1">  1        4 0.17067014E-01 0.27456617E+03</pdfrwt>
<pdfrwt beam="2">  1       -4 0.26136642E-01 0.27456617E+03</pdfrwt>
<totfact> 0.77559052E+02</totfact>
</mgrwt>
</event>
<event>
 5    1  0.1100736E+001  0.2750261E+03  0.7818608E-02  0.1098437E+00
          2   -1    0    0  501    0  0.00000000000E+00  0.00000000000E+00  0.69406385511E+03  0.69406385511E+03  0.00000000000E+00 0. -1.
         -2   -1    0    0    0  501 -0.00000000000E+00 -0.00000000000E+00 -0.27245096165E+02  0.27245096165E+02  0.00000000000E+00 0. -1.
         35    2    1    2    0    0  0.00000000000E+00  0.00000000000E+00  0.66681875895E+03  0.72130895128E+03  0.27502608223E+03 0.  0.
         25    1    3    3    0    0 -0.52627590885E+02 -0.23468485512E+02  0.42386009708E+03  0.44427223077E+03  0.12000000000E+03 0.  0.
         25    1    3    3    0    0  0.52627590885E+02  0.23468485512E+02  0.24295866187E+03  0.27703672051E+03  0.12000000000E+03 0.  0.
<mgrwt>
<rscale>  0 0.27502608E+03</rscale>
<asrwt>0</asrwt>
<pdfrwt beam="1">  1        2 0.10677904E+00 0.27502608E+03</pdfrwt>
<pdfrwt beam="2">  1       -2 0.41915538E-02 0.27502608E+03</pdfrwt>
<totfact> 0.10808223E+04</totfact>
</mgrwt>
</event>
<event>
 5    1  0.1100736E+001  0.2752134E+03  0.7818608E-02  0.1098332E+00
         -2   -1    0    0    0  501 -0.00000000000E+00  0.00000000000E+00  0.77125043979E+01  0.77125043979E+01  0.00000000000E+00 0.  1.
          2   -1    0    0  501    0  0.00000000000E+00 -0.00000000000E+00 -0.24551823714E+04  0.24551823714E+04  0.00000000000E+00 0.  1.
         35    2    1    2    0    0  0.00000000000E+00  0.00000000000E+00 -0.24474698670E+04  0.24628948758E+04  0.27521340692E+03 0.  0.
         25    1    3    3    0    0  0.26642600247E+02 -0.43081216035E+02 -0.16209134582E+04  0.16261384499E+04  0.12000000000E+03 0.  0.
         25    1    3    3    0    0 -0.26642600247E+02  0.43081216035E+02 -0.82655640885E+03  0.83675642593E+03  0.12000000000E+03 0.  0.
<mgrwt>
<rscale>  0 0.27521341E+03</rscale>
<asrwt>0</asrwt>
<pdfrwt beam="1">  1        2 0.37772081E+00 0.27521341E+03</pdfrwt>
<pdfrwt beam="2">  1       -2 0.11865377E-02 0.27521341E+03</pdfrwt>
<totfact> 0.70527591E+03</totfact>
</mgrwt>
</event>
<event>
 5    1  0.1100736E+001  0.2692867E+03  0.7818608E-02  0.1101689E+00
          1   -1    0    0  501    0  0.00000000000E+00  0.00000000000E+00  0.57748470900E+03  0.57748470900E+03  0.00000000000E+00 0. -1.
         -1   -1    0    0    0  501 -0.00000000000E+00 -0.00000000000E+00 -0.31392750632E+02  0.31392750632E+02  0.00000000000E+00 0. -1.
         35    2    1    2    0    0  0.00000000000E+00  0.00000000000E+00  0.54609195837E+03  0.60887745963E+03  0.26928671310E+03 0.  0.
         25    1    3    3    0    0  0.28020865368E+02 -0.33994440816E+02  0.17743585161E+03  0.21868761360E+03  0.12000000000E+03 0.  0.
         25    1    3    3    0    0 -0.28020865368E+02  0.33994440816E+02  0.36865610675E+03  0.39018984604E+03  0.12000000000E+03 0.  0.
<mgrwt>
<rscale>  0 0.26928671E+03</rscale>
<asrwt>0</asrwt>
<pdfrwt beam="1">  1        1 0.88843794E-01 0.26928671E+03</pdfrwt>
<pdfrwt beam="2">  1       -1 0.48296544E-02 0.26928671E+03</pdfrwt>
<totfact> 0.68453068E+03</totfact>
</mgrwt>
</event>
<event>
 5    1  0.1100736E+001  0.2755932E+03  0.7818608E-02  0.1098120E+00
         -1   -1    0    0    0  501 -0.00000000000E+00  0.00000000000E+00  0.15670199100E+02  0.15670199100E+02  0.00000000000E+00 0.  1.
          1   -1    0    0  501    0  0.00000000000E+00 -0.00000000000E+00 -0.12117203514E+04  0.12117203514E+04  0.00000000000E+00 0.  1.
         35    2    1    2    0    0  0.00000000000E+00  0.00000000000E+00 -0.11960501523E+04  0.12273905505E+04  0.27559317234E+03 0.  0.
         25    1    3    3    0    0  0.59560334438E+02  0.21209160005E+02 -0.70626182518E+03  0.71916828880E+03  0.12000000000E+03 0.  0.
         25    1    3    3    0    0 -0.59560334438E+02 -0.21209160005E+02 -0.48978832714E+03  0.50822226172E+03  0.12000000000E+03 0.  0.
<mgrwt>
<rscale>  0 0.27559317E+03</rscale>
<asrwt>0</asrwt>
<pdfrwt beam="1">  1        1 0.18641855E+00 0.27559317E+03</pdfrwt>
<pdfrwt beam="2">  1       -1 0.24107995E-02 0.27559317E+03</pdfrwt>
<totfact> 0.58533704E+03</totfact>
</mgrwt>
</event>
<event>
 5    1  0.1100736E+001  0.2746189E+03  0.7818608E-02  0.1098665E+00
         -2   -1    0    0    0  501 -0.00000000000E+00  0.00000000000E+00  0.27364029126E+02  0.27364029126E+02  0.00000000000E+00 0. -1.
          2   -1    0    0  501    0  0.00000000000E+00 -0.00000000000E+00 -0.68900276415E+03  0.68900276415E+03  0.00000000000E+00 0. -1.
         35    2    1    2    0    0  0.00000000000E+00  0.00000000000E+00 -0.66163873502E+03  0.71636679328E+03  0.27461894841E+03 0.  0.
         25    1    3    3    0    0 -0.17735478652E+02 -0.17206024998E+02 -0.49253683498E+03  0.50754618343E+03  0.12000000000E+03 0.  0.
         25    1    3    3    0    0  0.17735478652E+02  0.17206024998E+02 -0.16910190004E+03  0.20882060985E+03  0.12000000000E+03 0.  0.
<mgrwt>
<rscale>  0 0.27461895E+03</rscale>
<asrwt>0</asrwt>
<pdfrwt beam="1">  1        2 0.10600042E+00 0.27461895E+03</pdfrwt>
<pdfrwt beam="2">  1       -2 0.42098508E-02 0.27461895E+03</pdfrwt>
<totfact> 0.10832325E+04</totfact>
</mgrwt>
</event>
<event>
 5    1  0.1100736E+001  0.2759736E+03  0.7818608E-02  0.1097909E+00
          1   -1    0    0  501    0  0.00000000000E+00  0.00000000000E+00  0.78323436412E+03  0.78323436412E+03  0.00000000000E+00 0.  1.
         -1   -1    0    0    0  501 -0.00000000000E+00 -0.00000000000E+00 -0.24309908731E+02  0.24309908731E+02  0.00000000000E+00 0.  1.
         35    2    1    2    0    0  0.00000000000E+00  0.00000000000E+00  0.75892445539E+03  0.80754427285E+03  0.27597359226E+03 0.  0.
         25    1    3    3    0    0  0.10980212379E+02  0.34685610391E+02  0.54798238763E+03  0.56214620321E+03  0.12000000000E+03 0.  0.
         25    1    3    3    0    0 -0.10980212379E+02 -0.34685610391E+02  0.21094206775E+03  0.24539806963E+03  0.12000000000E+03 0.  0.
<mgrwt>
<rscale>  0 0.27597359E+03</rscale>
<asrwt>0</asrwt>
<pdfrwt beam="1">  1        1 0.12049758E+00 0.27597359E+03</pdfrwt>
<pdfrwt beam="2">  1       -1 0.37399866E-02 0.27597359E+03</pdfrwt>
<totfact> 0.64601868E+03</totfact>
</mgrwt>
</event>
<event>
 5    1  0.1100736E+001  0.2750512E+03  0.7818608E-02  0.1098423E+00
          2   -1    0    0  501    0  0.00000000000E+00  0.00000000000E+00  0.58415660125E+03  0.58415660125E+03  0.00000000000E+00 0. -1.
         -2   -1    0    0    0  501 -0.00000000000E+00 -0.00000000000E+00 -0.32377082365E+02  0.32377082365E+02  0.00000000000E+00 0. -1.
         35    2    1    2    0    0  0.00000000000E+00  0.00000000000E+00  0.55177951888E+03  0.61653368361E+03  0.27505116901E+03 0.  0.
         25    1    3    3    0    0  0.11106598218E+02  0.65647033863E+02  0.29598821716E+03  0.32625437051E+03  0.12000000000E+03 0.  0.
         25    1    3    3    0    0 -0.11106598218E+02 -0.65647033863E+02  0.25579130172E+03  0.29027931310E+03  0.12000000000E+03 0.  0.
<mgrwt>
<rscale>  0 0.27505117E+03</rscale>
<asrwt>0</asrwt>
<pdfrwt beam="1">  1        2 0.89870239E-01 0.27505117E+03</pdfrwt>
<pdfrwt beam="2">  1       -2 0.49810900E-02 0.27505117E+03</pdfrwt>
<totfact> 0.10203005E+04</totfact>
</mgrwt>
</event>
<event>
 5    1  0.1100736E+001  0.2703350E+03  0.7818608E-02  0.1101088E+00
          2   -1    0    0  501    0  0.00000000000E+00  0.00000000000E+00  0.47783784930E+03  0.47783784930E+03  0.00000000000E+00 0.  1.
         -2   -1    0    0    0  501 -0.00000000000E+00 -0.00000000000E+00 -0.38235260559E+02  0.38235260559E+02  0.00000000000E+00 0.  1.
         35    2    1    2    0    0  0.00000000000E+00  0.00000000000E+00  0.43960258874E+03  0.51607310985E+03  0.27033501196E+03 0.  0.
         25    1    3    3    0    0 -0.51917474722E+02  0.28133716814E+02  0.25717724143E+03  0.28987422050E+03  0.12000000000E+03 0.  0.
         25    1    3    3    0    0  0.51917474722E+02 -0.28133716814E+02  0.18242534731E+03  0.22619888935E+03  0.12000000000E+03 0.  0.
<mgrwt>
<rscale>  0 0.27033501E+03</rscale>
<asrwt>0</asrwt>
<pdfrwt beam="1">  1        2 0.73513511E-01 0.27033501E+03</pdfrwt>
<pdfrwt beam="2">  1       -2 0.58823481E-02 0.27033501E+03</pdfrwt>
<totfact> 0.99283365E+03</totfact>
</mgrwt>
</event>
<event>
 5    1  0.1100736E+001  0.2753713E+03  0.7818608E-02  0.1098244E+00
         -1   -1    0    0    0  501 -0.00000000000E+00  0.00000000000E+00  0.14090361916E+04  0.14090361916E+04  0.00000000000E+00 0.  1.
          1   -1    0    0  501    0  0.00000000000E+00 -0.00000000000E+00 -0.13454118477E+02  0.13454118477E+02  0.00000000000E+00 0.  1.
         35    2    1    2    0    0  0.00000000000E+00  0.00000000000E+00  0.13955820731E+04  0.14224903101E+04  0.27537131194E+03 0.  0.
         25    1    3    3    0    0  0.36884082971E+01  0.66113862312E+02  0.76567506877E+03  0.77784507332E+03  0.12000000000E+03 0.  0.
         25    1    3    3    0    0 -0.36884082971E+01 -0.66113862312E+02  0.62990700436E+03  0.64464523677E+03  0.12000000000E+03 0.  0.
<mgrwt>
<rscale>  0 0.27537131E+03</rscale>
<asrwt>0</asrwt>
<pdfrwt beam="1">  1        1 0.20698655E-02 0.27537131E+03</pdfrwt>
<pdfrwt beam="2">  1       -1 0.21677468E+00 0.27537131E+03</pdfrwt>
<totfact> 0.74566108E+02</totfact>
</mgrwt>
</event>
<event>
 5    1  0.1100736E+001  0.2744992E+03  0.7818608E-02  0.1098732E+00
         -2   -1    0    0    0  501 -0.00000000000E+00  0.00000000000E+00  0.68663912639E+02  0.68663912639E+02  0.00000000000E+00 0. -1.
          2   -1    0    0  501    0  0.00000000000E+00 -0.00000000000E+00 -0.27434281993E+03  0.27434281993E+03  0.00000000000E+00 0. -1.
         35    2    1    2    0    0  0.00000000000E+00  0.00000000000E+00 -0.20567890729E+03  0.34300673257E+03  0.27449919068E+03 0.  0.
         25    1    3    3    0    0  0.14531333419E+02 -0.41076810961E+02 -0.16580338642E+03  0.20925875608E+03  0.12000000000E+03 0.  0.
         25    1    3    3    0    0 -0.14531333419E+02  0.41076810961E+02 -0.39875520877E+02  0.13374797649E+03  0.12000000000E+03 0.  0.
<mgrwt>
<rscale>  0 0.27449919E+03</rscale>
<asrwt>0</asrwt>
<pdfrwt beam="1">  1        2 0.42206587E-01 0.27449919E+03</pdfrwt>
<pdfrwt beam="2">  1       -2 0.10563679E-01 0.27449919E+03</pdfrwt>
<totfact> 0.72669591E+03</totfact>
</mgrwt>
</event>
<event>
 5    1  0.1100736E+001  0.2750249E+03  0.7818608E-02  0.1098438E+00
         -1   -1    0    0    0  501 -0.00000000000E+00  0.00000000000E+00  0.48817075466E+02  0.48817075466E+02  0.00000000000E+00 0. -1.
          1   -1    0    0  501    0  0.00000000000E+00 -0.00000000000E+00 -0.38735787474E+03  0.38735787474E+03  0.00000000000E+00 0. -1.
         35    2    1    2    0    0  0.00000000000E+00  0.00000000000E+00 -0.33854079928E+03  0.43617495021E+03  0.27502493417E+03 0.  0.
         25    1    3    3    0    0 -0.59528158343E+01 -0.35151642260E+02 -0.79016158867E+02  0.14803589879E+03  0.12000000000E+03 0.  0.
         25    1    3    3    0    0  0.59528158343E+01  0.35151642260E+02 -0.25952464041E+03  0.28813905142E+03  0.12000000000E+03 0.  0.
<mgrwt>
<rscale>  0 0.27502493E+03</rscale>
<asrwt>0</asrwt>
<pdfrwt beam="1">  1        1 0.59593522E-01 0.27502493E+03</pdfrwt>
<pdfrwt beam="2">  1       -1 0.75103190E-02 0.27502493E+03</pdfrwt>
<totfact> 0.59569429E+03</totfact>
</mgrwt>
</event>
<event>
 5    1  0.1100736E+001  0.2751166E+03  0.7818608E-02  0.1098386E+00
          1   -1    0    0  501    0  0.00000000000E+00  0.00000000000E+00  0.27110598656E+03  0.27110598656E+03  0.00000000000E+00 0.  1.
         -1   -1    0    0    0  501 -0.00000000000E+00 -0.00000000000E+00 -0.69796640952E+02  0.69796640952E+02  0.00000000000E+00 0.  1.
         35    2    1    2    0    0  0.00000000000E+00  0.00000000000E+00  0.20130934560E+03  0.34090262751E+03  0.27511660949E+03 0.  0.
         25    1    3    3    0    0  0.60221945025E+02  0.29892650987E+02  0.10242186807E+03  0.17149487545E+03  0.12000000000E+03 0.  0.
         25    1    3    3    0    0 -0.60221945025E+02 -0.29892650987E+02  0.98887477533E+02  0.16940775206E+03  0.12000000000E+03 0.  0.
<mgrwt>
<rscale>  0 0.27511661E+03</rscale>
<asrwt>0</asrwt>
<pdfrwt beam="1">  1        1 0.41708613E-01 0.27511661E+03</pdfrwt>
<pdfrwt beam="2">  1       -1 0.10737945E-01 0.27511661E+03</pdfrwt>
<totfact> 0.53981887E+03</totfact>
</mgrwt>
</event>
<event>
 5    1  0.1100736E+001  0.2779205E+03  0.7818608E-02  0.1096830E+00
         -2   -1    0    0    0  501 -0.00000000000E+00  0.00000000000E+00  0.41960217182E+02  0.41960217182E+02  0.00000000000E+00 0.  1.
          2   -1    0    0  501    0  0.00000000000E+00 -0.00000000000E+00 -0.46019661601E+03  0.46019661601E+03  0.00000000000E+00 0.  1.
         35    2    1    2    0    0  0.00000000000E+00  0.00000000000E+00 -0.41823639883E+03  0.50215683319E+03  0.27792049190E+03 0.  0.
         25    1    3    3    0    0  0.50952734729E+02 -0.44066999865E+02 -0.17427537226E+03  0.22205852163E+03  0.12000000000E+03 0.  0.
         25    1    3    3    0    0 -0.50952734729E+02  0.44066999865E+02 -0.24396102657E+03  0.28009831156E+03  0.12000000000E+03 0.  0.
<mgrwt>
<rscale>  0 0.27792049E+03</rscale>
<asrwt>0</asrwt>
<pdfrwt beam="1">  1        2 0.70799481E-01 0.27792049E+03</pdfrwt>
<pdfrwt beam="2">  1       -2 0.64554179E-02 0.27792049E+03</pdfrwt>
<totfact> 0.89825330E+03</totfact>
</mgrwt>
</event>
<event>
 5    1  0.1100736E+001  0.2744732E+03  0.7818608E-02  0.1098746E+00
          2   -1    0    0  501    0  0.00000000000E+00  0.00000000000E+00  0.92144900599E+03  0.92144900599E+03  0.00000000000E+00 0. -1.
         -2   -1    0    0    0  501 -0.00000000000E+00 -0.00000000000E+00 -0.20439414744E+02  0.20439414744E+02  0.00000000000E+00 0. -1.
         35    2    1    2    0    0  0.00000000000E+00  0.00000000000E+00  0.90100959125E+03  0.94188842073E+03  0.27447315642E+03 0.  0.
         25    1    3    3    0    0  0.60652073670E+02  0.43171181736E+00  0.54479752981E+03  0.56114455259E+03  0.12000000000E+03 0.  0.
         25    1    3    3    0    0 -0.60652073670E+02 -0.43171181736E+00  0.35621206144E+03  0.38074386815E+03  0.12000000000E+03 0.  0.
<mgrwt>
<rscale>  0 0.27447316E+03</rscale>
<asrwt>0</asrwt>
<pdfrwt beam="1">  1        2 0.14176135E+00 0.27447316E+03</pdfrwt>
<pdfrwt beam="2">  1       -2 0.31445261E-02 0.27447316E+03</pdfrwt>
<totfact> 0.11581592E+04</totfact>
</mgrwt>
</event>
<event>
 5    1  0.1100736E+001  0.2748570E+03  0.7818608E-02  0.1098532E+00
         -4   -1    0    0    0  501 -0.00000000000E+00  0.00000000000E+00  0.31165074147E+03  0.31165074147E+03  0.00000000000E+00 0. -1.
          4   -1    0    0  501    0  0.00000000000E+00 -0.00000000000E+00 -0.60601772739E+02  0.60601772739E+02  0.00000000000E+00 0. -1.
         35    2    1    2    0    0  0.00000000000E+00  0.00000000000E+00  0.25104896873E+03  0.37225251421E+03  0.27485696214E+03 0.  0.
         25    1    3    3    0    0 -0.60494993495E+02  0.28756199508E+02  0.12531396931E+03  0.18598428469E+03  0.12000000000E+03 0.  0.
         25    1    3    3    0    0  0.60494993495E+02 -0.28756199508E+02  0.12573499942E+03  0.18626822952E+03  0.12000000000E+03 0.  0.
<mgrwt>
<rscale>  0 0.27485696E+03</rscale>
<asrwt>0</asrwt>
<pdfrwt beam="1">  1        4 0.93233498E-02 0.27485696E+03</pdfrwt>
<pdfrwt beam="2">  1       -4 0.47946267E-01 0.27485696E+03</pdfrwt>
<totfact> 0.67670235E+02</totfact>
</mgrwt>
</event>
<event>
 5    1  0.1100736E+001  0.2728786E+03  0.7818608E-02  0.1099643E+00
          2   -1    0    0  501    0  0.00000000000E+00  0.00000000000E+00  0.66613639069E+02  0.66613639069E+02  0.00000000000E+00 0.  1.
         -2   -1    0    0    0  501 -0.00000000000E+00 -0.00000000000E+00 -0.27945750980E+03  0.27945750980E+03  0.00000000000E+00 0.  1.
         35    2    1    2    0    0  0.00000000000E+00  0.00000000000E+00 -0.21284387073E+03  0.34607114887E+03  0.27287859346E+03 0.  0.
         25    1    3    3    0    0 -0.53826596401E+02  0.34047201916E+02 -0.90421831964E+02  0.16319504323E+03  0.12000000000E+03 0.  0.
         25    1    3    3    0    0  0.53826596401E+02 -0.34047201916E+02 -0.12242203876E+03  0.18287610564E+03  0.12000000000E+03 0.  0.
<mgrwt>
<rscale>  0 0.27287859E+03</rscale>
<asrwt>0</asrwt>
<pdfrwt beam="1">  1        2 0.10248252E-01 0.27287859E+03</pdfrwt>
<pdfrwt beam="2">  1       -2 0.42993463E-01 0.27287859E+03</pdfrwt>
<totfact> 0.32040976E+03</totfact>
</mgrwt>
</event>
<event>
 5    1  0.1100736E+001  0.2772096E+03  0.7818608E-02  0.1097223E+00
          1   -1    0    0  501    0  0.00000000000E+00  0.00000000000E+00  0.22029617877E+03  0.22029617877E+03  0.00000000000E+00 0.  1.
         -1   -1    0    0    0  501 -0.00000000000E+00 -0.00000000000E+00 -0.87206652895E+02  0.87206652895E+02  0.00000000000E+00 0.  1.
         35    2    1    2    0    0  0.00000000000E+00  0.00000000000E+00  0.13308952588E+03  0.30750283167E+03  0.27720961308E+03 0.  0.
         25    1    3    3    0    0  0.19583933518E+01 -0.55052009194E+02  0.19787189683E+02  0.13351438835E+03  0.12000000000E+03 0.  0.
         25    1    3    3    0    0 -0.19583933518E+01  0.55052009194E+02  0.11330233619E+03  0.17398844332E+03  0.12000000000E+03 0.  0.
<mgrwt>
<rscale>  0 0.27720961E+03</rscale>
<asrwt>0</asrwt>
<pdfrwt beam="1">  1        1 0.33891720E-01 0.27720961E+03</pdfrwt>
<pdfrwt beam="2">  1       -1 0.13416408E-01 0.27720961E+03</pdfrwt>
<totfact> 0.49479102E+03</totfact>
</mgrwt>
</event>
<event>
 5    1  0.1100736E+001  0.2747393E+03  0.7818608E-02  0.1098597E+00
         -1   -1    0    0    0  501 -0.00000000000E+00  0.00000000000E+00  0.28097447579E+02  0.28097447579E+02  0.00000000000E+00 0. -1.
          1   -1    0    0  501    0  0.00000000000E+00 -0.00000000000E+00 -0.67160638345E+03  0.67160638345E+03  0.00000000000E+00 0. -1.
         35    2    1    2    0    0  0.00000000000E+00  0.00000000000E+00 -0.64350893587E+03  0.69970383102E+03  0.27473933211E+03 0.  0.
         25    1    3    3    0    0  0.15092920884E+02 -0.62636561179E+02 -0.36726229896E+03  0.39170490333E+03  0.12000000000E+03 0.  0.
         25    1    3    3    0    0 -0.15092920884E+02  0.62636561179E+02 -0.27624663691E+03  0.30799892769E+03  0.12000000000E+03 0.  0.
<mgrwt>
<rscale>  0 0.27473933E+03</rscale>
<asrwt>0</asrwt>
<pdfrwt beam="1">  1        1 0.10332404E+00 0.27473933E+03</pdfrwt>
<pdfrwt beam="2">  1       -1 0.43226851E-02 0.27473933E+03</pdfrwt>
<totfact> 0.65384723E+03</totfact>
</mgrwt>
</event>
<event>
 5    1  0.1100736E+001  0.2757146E+03  0.7818608E-02  0.1098053E+00
         -2   -1    0    0    0  501 -0.00000000000E+00  0.00000000000E+00  0.11459336074E+02  0.11459336074E+02  0.00000000000E+00 0.  1.
          2   -1    0    0  501    0  0.00000000000E+00 -0.00000000000E+00 -0.16584411247E+04  0.16584411247E+04  0.00000000000E+00 0.  1.
         35    2    1    2    0    0  0.00000000000E+00  0.00000000000E+00 -0.16469817886E+04  0.16699004608E+04  0.27571459306E+03 0.  0.
         25    1    3    3    0    0 -0.66399221883E+02 -0.13991110534E+02 -0.82250743560E+03  0.83398026922E+03  0.12000000000E+03 0.  0.
         25    1    3    3    0    0  0.66399221883E+02  0.13991110534E+02 -0.82447435303E+03  0.83592019155E+03  0.12000000000E+03 0.  0.
<mgrwt>
<rscale>  0 0.27571459E+03</rscale>
<asrwt>0</asrwt>
<pdfrwt beam="1">  1        2 0.25514473E+00 0.27571459E+03</pdfrwt>
<pdfrwt beam="2">  1       -2 0.17629752E-02 0.27571459E+03</pdfrwt>
<totfact> 0.10460249E+04</totfact>
</mgrwt>
</event>
<event>
 5    1  0.1100736E+001  0.2756272E+03  0.7818608E-02  0.1098102E+00
          1   -1    0    0  501    0  0.00000000000E+00  0.00000000000E+00  0.24168498451E+03  0.24168498451E+03  0.00000000000E+00 0.  1.
         -1   -1    0    0    0  501 -0.00000000000E+00 -0.00000000000E+00 -0.78584073205E+02  0.78584073205E+02  0.00000000000E+00 0.  1.
         35    2    1    2    0    0  0.00000000000E+00  0.00000000000E+00  0.16310091131E+03  0.32026905772E+03  0.27562721575E+03 0.  0.
         25    1    3    3    0    0  0.49404807009E+02  0.17035219184E+02  0.31416607907E+02  0.13460325739E+03  0.12000000000E+03 0.  0.
         25    1    3    3    0    0 -0.49404807009E+02 -0.17035219184E+02  0.13168430340E+03  0.18566580032E+03  0.12000000000E+03 0.  0.
<mgrwt>
<rscale>  0 0.27562722E+03</rscale>
<asrwt>0</asrwt>
<pdfrwt beam="1">  1        1 0.37182305E-01 0.27562722E+03</pdfrwt>
<pdfrwt beam="2">  1       -1 0.12089858E-01 0.27562722E+03</pdfrwt>
<totfact> 0.51843053E+03</totfact>
</mgrwt>
</event>
<event>
 5    1  0.1100736E+001  0.2744893E+03  0.7818608E-02  0.1098737E+00
         -1   -1    0    0    0  501 -0.00000000000E+00  0.00000000000E+00  0.14729332340E+02  0.14729332340E+02  0.00000000000E+00 0.  1.
          1   -1    0    0  501    0  0.00000000000E+00 -0.00000000000E+00 -0.12788149163E+04  0.12788149163E+04  0.00000000000E+00 0.  1.
         35    2    1    2    0    0  0.00000000000E+00  0.00000000000E+00 -0.12640855840E+04  0.12935442486E+04  0.27448927049E+03 0.  0.
         25    1    3    3    0    0  0.90639090289E+01  0.63484124156E+02 -0.54725599492E+03  0.56391622821E+03  0.12000000000E+03 0.  0.
         25    1    3    3    0    0 -0.90639090289E+01 -0.63484124156E+02 -0.71682958903E+03  0.72962802042E+03  0.12000000000E+03 0.  0.
<mgrwt>
<rscale>  0 0.27448927E+03</rscale>
<asrwt>0</asrwt>
<pdfrwt beam="1">  1        1 0.19674077E+00 0.27448927E+03</pdfrwt>
<pdfrwt beam="2">  1       -1 0.22660509E-02 0.27448927E+03</pdfrwt>
<totfact> 0.57596830E+03</totfact>
</mgrwt>
</event>
<event>
 5    1  0.1100736E+001  0.2757760E+03  0.7818608E-02  0.1098019E+00
         -2   -1    0    0    0  501 -0.00000000000E+00  0.00000000000E+00  0.34700271436E+02  0.34700271436E+02  0.00000000000E+00 0.  1.
          2   -1    0    0  501    0  0.00000000000E+00 -0.00000000000E+00 -0.54792359411E+03  0.54792359411E+03  0.00000000000E+00 0.  1.
         35    2    1    2    0    0  0.00000000000E+00  0.00000000000E+00 -0.51322332268E+03  0.58262386555E+03  0.27577597750E+03 0.  0.
         25    1    3    3    0    0  0.11794177715E+02  0.65659187650E+02 -0.22964998396E+03  0.26756185580E+03  0.12000000000E+03 0.  0.
         25    1    3    3    0    0 -0.11794177715E+02 -0.65659187650E+02 -0.28357333872E+03  0.31506200974E+03  0.12000000000E+03 0.  0.
<mgrwt>
<rscale>  0 0.27577598E+03</rscale>
<asrwt>0</asrwt>
<pdfrwt beam="1">  1        2 0.84295933E-01 0.27577598E+03</pdfrwt>
<pdfrwt beam="2">  1       -2 0.53385036E-02 0.27577598E+03</pdfrwt>
<totfact> 0.98815980E+03</totfact>
</mgrwt>
</event>
<event>
 5    1  0.1100736E+001  0.2749069E+03  0.7818608E-02  0.1098504E+00
         -1   -1    0    0    0  501 -0.00000000000E+00  0.00000000000E+00  0.36228922245E+02  0.36228922245E+02  0.00000000000E+00 0.  1.
          1   -1    0    0  501    0  0.00000000000E+00 -0.00000000000E+00 -0.52150202171E+03  0.52150202171E+03  0.00000000000E+00 0.  1.
         35    2    1    2    0    0  0.00000000000E+00  0.00000000000E+00 -0.48527309947E+03  0.55773094396E+03  0.27490693840E+03 0.  0.
         25    1    3    3    0    0 -0.59403909670E+02  0.31012991561E+02 -0.24604714473E+03  0.28183297813E+03  0.12000000000E+03 0.  0.
         25    1    3    3    0    0  0.59403909670E+02 -0.31012991561E+02 -0.23922595474E+03  0.27589796583E+03  0.12000000000E+03 0.  0.
<mgrwt>
<rscale>  0 0.27490694E+03</rscale>
<asrwt>0</asrwt>
<pdfrwt beam="1">  1        1 0.80231081E-01 0.27490694E+03</pdfrwt>
<pdfrwt beam="2">  1       -1 0.55736803E-02 0.27490694E+03</pdfrwt>
<totfact> 0.63447561E+03</totfact>
</mgrwt>
</event>
<event>
 5    1  0.1100736E+001  0.2760350E+03  0.7818608E-02  0.1097874E+00
          2   -1    0    0  501    0  0.00000000000E+00  0.00000000000E+00  0.16795858694E+04  0.16795858694E+04  0.00000000000E+00 0. -1.
         -2   -1    0    0    0  501 -0.00000000000E+00 -0.00000000000E+00 -0.11341384586E+02  0.11341384586E+02  0.00000000000E+00 0. -1.
         35    2    1    2    0    0  0.00000000000E+00  0.00000000000E+00  0.16682444848E+04  0.16909272540E+04  0.27603499264E+03 0.  0.
         25    1    3    3    0    0 -0.65801310466E+00  0.61341402115E+02  0.65182226144E+03  0.66560909031E+03  0.12000000000E+03 0.  0.
         25    1    3    3    0    0  0.65801310466E+00 -0.61341402115E+02  0.10164222234E+04  0.10253181637E+04  0.12000000000E+03 0.  0.
<mgrwt>
<rscale>  0 0.27603499E+03</rscale>
<asrwt>0</asrwt>
<pdfrwt beam="1">  1        2 0.25839763E+00 0.27603499E+03</pdfrwt>
<pdfrwt beam="2">  1       -2 0.17448297E-02 0.27603499E+03</pdfrwt>
<totfact> 0.10351149E+04</totfact>
</mgrwt>
</event>
<event>
 5    1  0.1100736E+001  0.2808216E+03  0.7818608E-02  0.1095241E+00
          1   -1    0    0  501    0  0.00000000000E+00  0.00000000000E+00  0.11713882598E+03  0.11713882598E+03  0.00000000000E+00 0. -1.
         -1   -1    0    0    0  501 -0.00000000000E+00 -0.00000000000E+00 -0.16830619498E+03  0.16830619498E+03  0.00000000000E+00 0. -1.
         35    2    1    2    0    0  0.00000000000E+00  0.00000000000E+00 -0.51167369005E+02  0.28544502096E+03  0.28082158097E+03 0.  0.
         25    1    3    3    0    0  0.23265722472E+02  0.63511437848E+02  0.20707401194E+01  0.13776532417E+03  0.12000000000E+03 0.  0.
         25    1    3    3    0    0 -0.23265722472E+02 -0.63511437848E+02 -0.53238109125E+02  0.14767969679E+03  0.12000000000E+03 0.  0.
<mgrwt>
<rscale>  0 0.28082158E+03</rscale>
<asrwt>0</asrwt>
<pdfrwt beam="1">  1        1 0.18021358E-01 0.28082158E+03</pdfrwt>
<pdfrwt beam="2">  1       -1 0.25893261E-01 0.28082158E+03</pdfrwt>
<totfact> 0.38223052E+03</totfact>
</mgrwt>
</event>
<event>
 5    1  0.1100736E+001  0.2743480E+03  0.7818608E-02  0.1098817E+00
         -2   -1    0    0    0  501 -0.00000000000E+00  0.00000000000E+00  0.10468267901E+02  0.10468267901E+02  0.00000000000E+00 0. -1.
          2   -1    0    0  501    0  0.00000000000E+00 -0.00000000000E+00 -0.17975000483E+04  0.17975000483E+04  0.00000000000E+00 0. -1.
         35    2    1    2    0    0  0.00000000000E+00  0.00000000000E+00 -0.17870317804E+04  0.18079683162E+04  0.27434804215E+03 0.  0.
         25    1    3    3    0    0 -0.61824628747E+02  0.23954944802E+02 -0.92341757023E+03  0.93353957233E+03  0.12000000000E+03 0.  0.
         25    1    3    3    0    0  0.61824628747E+02 -0.23954944802E+02 -0.86361421018E+03  0.87442874388E+03  0.12000000000E+03 0.  0.
<mgrwt>
<rscale>  0 0.27434804E+03</rscale>
<asrwt>0</asrwt>
<pdfrwt beam="1">  1        2 0.27653869E+00 0.27434804E+03</pdfrwt>
<pdfrwt beam="2">  1       -2 0.16105015E-02 0.27434804E+03</pdfrwt>
<totfact> 0.10090858E+04</totfact>
</mgrwt>
</event>
<event>
 5    1  0.1100736E+001  0.2760987E+03  0.7818608E-02  0.1097839E+00
          1   -1    0    0  501    0  0.00000000000E+00  0.00000000000E+00  0.23871247747E+03  0.23871247747E+03  0.00000000000E+00 0.  1.
         -1   -1    0    0    0  501 -0.00000000000E+00 -0.00000000000E+00 -0.79835052443E+02  0.79835052443E+02  0.00000000000E+00 0.  1.
         35    2    1    2    0    0  0.00000000000E+00  0.00000000000E+00  0.15887742503E+03  0.31854752992E+03  0.27609870089E+03 0.  0.
         25    1    3    3    0    0 -0.65942768184E+02 -0.96398523718E+01  0.96404954452E+02  0.16773577636E+03  0.12000000000E+03 0.  0.
         25    1    3    3    0    0  0.65942768184E+02  0.96398523718E+01  0.62472470580E+02  0.15081175355E+03  0.12000000000E+03 0.  0.
<mgrwt>
<rscale>  0 0.27609870E+03</rscale>
<asrwt>0</asrwt>
<pdfrwt beam="1">  1        1 0.36724996E-01 0.27609870E+03</pdfrwt>
<pdfrwt beam="2">  1       -1 0.12282316E-01 0.27609870E+03</pdfrwt>
<totfact> 0.51373449E+03</totfact>
</mgrwt>
</event>
<event>
 5    1  0.1100736E+001  0.2753485E+03  0.7818608E-02  0.1098257E+00
          2   -1    0    0  501    0  0.00000000000E+00  0.00000000000E+00  0.11012259768E+04  0.11012259768E+04  0.00000000000E+00 0. -1.
         -2   -1    0    0    0  501 -0.00000000000E+00 -0.00000000000E+00 -0.17211907562E+02  0.17211907562E+02  0.00000000000E+00 0. -1.
         35    2    1    2    0    0  0.00000000000E+00  0.00000000000E+00  0.10840140692E+04  0.11184378843E+04  0.27534850439E+03 0.  0.
         25    1    3    3    0    0 -0.50428593081E+02  0.28765057896E+02  0.68175810316E+03  0.69466868562E+03  0.12000000000E+03 0.  0.
         25    1    3    3    0    0  0.50428593081E+02 -0.28765057896E+02  0.40225596603E+03  0.42376919870E+03  0.12000000000E+03 0.  0.
<mgrwt>
<rscale>  0 0.27534850E+03</rscale>
<asrwt>0</asrwt>
<pdfrwt beam="1">  1        2 0.16941933E+00 0.27534850E+03</pdfrwt>
<pdfrwt beam="2">  1       -2 0.26479866E-02 0.27534850E+03</pdfrwt>
<totfact> 0.11614969E+04</totfact>
</mgrwt>
</event>
<event>
 5    1  0.1100736E+001  0.2752358E+03  0.7818608E-02  0.1098320E+00
          1   -1    0    0  501    0  0.00000000000E+00  0.00000000000E+00  0.36327439382E+03  0.36327439382E+03  0.00000000000E+00 0. -1.
         -1   -1    0    0    0  501 -0.00000000000E+00 -0.00000000000E+00 -0.52133265296E+02  0.52133265296E+02  0.00000000000E+00 0. -1.
         35    2    1    2    0    0  0.00000000000E+00  0.00000000000E+00  0.31114112852E+03  0.41540765911E+03  0.27523575602E+03 0.  0.
         25    1    3    3    0    0 -0.26939632787E+02  0.21938028543E+00  0.62374688381E+02  0.13789994087E+03  0.12000000000E+03 0.  0.
         25    1    3    3    0    0  0.26939632787E+02 -0.21938028543E+00  0.24876644014E+03  0.27750771824E+03  0.12000000000E+03 0.  0.
<mgrwt>
<rscale>  0 0.27523576E+03</rscale>
<asrwt>0</asrwt>
<pdfrwt beam="1">  1        1 0.55888367E-01 0.27523576E+03</pdfrwt>
<pdfrwt beam="2">  1       -1 0.80205026E-02 0.27523576E+03</pdfrwt>
<totfact> 0.58483992E+03</totfact>
</mgrwt>
</event>
<event>
 5    1  0.1100736E+001  0.2750595E+03  0.7818608E-02  0.1098418E+00
         -4   -1    0    0    0  501 -0.00000000000E+00  0.00000000000E+00  0.23732932581E+03  0.23732932581E+03  0.00000000000E+00 0. -1.
          4   -1    0    0  501    0  0.00000000000E+00 -0.00000000000E+00 -0.79696964175E+02  0.79696964175E+02  0.00000000000E+00 0. -1.
         35    2    1    2    0    0  0.00000000000E+00  0.00000000000E+00  0.15763236164E+03  0.31702628999E+03  0.27505946104E+03 0.  0.
         25    1    3    3    0    0  0.34918827828E+02 -0.33216502765E+02  0.13277541804E+03  0.18534285049E+03  0.12000000000E+03 0.  0.
         25    1    3    3    0    0 -0.34918827828E+02  0.33216502765E+02  0.24856943600E+02  0.13168343950E+03  0.12000000000E+03 0.  0.
<mgrwt>
<rscale>  0 0.27505946E+03</rscale>
<asrwt>0</asrwt>
<pdfrwt beam="1">  1        4 0.12261071E-01 0.27505946E+03</pdfrwt>
<pdfrwt beam="2">  1       -4 0.36512204E-01 0.27505946E+03</pdfrwt>
<totfact> 0.73085194E+02</totfact>
</mgrwt>
</event>
<event>
 5    1  0.1100736E+001  0.2741639E+03  0.7818608E-02  0.1098920E+00
         -1   -1    0    0    0  501 -0.00000000000E+00  0.00000000000E+00  0.19601742972E+02  0.19601742972E+02  0.00000000000E+00 0.  1.
          1   -1    0    0  501    0  0.00000000000E+00 -0.00000000000E+00 -0.95866301135E+03  0.95866301135E+03  0.00000000000E+00 0.  1.
         35    2    1    2    0    0  0.00000000000E+00  0.00000000000E+00 -0.93906126838E+03  0.97826475432E+03  0.27416393596E+03 0.  0.
         25    1    3    3    0    0 -0.51681580274E+01  0.31482528793E+01 -0.70499891395E+03  0.71516437973E+03  0.12000000000E+03 0.  0.
         25    1    3    3    0    0  0.51681580274E+01 -0.31482528793E+01 -0.23406235443E+03  0.26310037460E+03  0.12000000000E+03 0.  0.
<mgrwt>
<rscale>  0 0.27416394E+03</rscale>
<asrwt>0</asrwt>
<pdfrwt beam="1">  1        1 0.14748660E+00 0.27416394E+03</pdfrwt>
<pdfrwt beam="2">  1       -1 0.30156532E-02 0.27416394E+03</pdfrwt>
<totfact> 0.64281670E+03</totfact>
</mgrwt>
</event>
<event>
 5    1  0.1100736E+001  0.2748488E+03  0.7818608E-02  0.1098536E+00
          1   -1    0    0  501    0  0.00000000000E+00  0.00000000000E+00  0.14729726276E+04  0.14729726276E+04  0.00000000000E+00 0. -1.
         -1   -1    0    0    0  501 -0.00000000000E+00 -0.00000000000E+00 -0.12821331190E+02  0.12821331190E+02  0.00000000000E+00 0. -1.
         35    2    1    2    0    0  0.00000000000E+00  0.00000000000E+00  0.14601512964E+04  0.14857939588E+04  0.27484883039E+03 0.  0.
         25    1    3    3    0    0  0.23865676226E+02 -0.28066555369E+02  0.42772582443E+03  0.44576527782E+03  0.12000000000E+03 0.  0.
         25    1    3    3    0    0 -0.23865676226E+02  0.28066555369E+02  0.10324254719E+04  0.10400286809E+04  0.12000000000E+03 0.  0.
<mgrwt>
<rscale>  0 0.27484883E+03</rscale>
<asrwt>0</asrwt>
<pdfrwt beam="1">  1        1 0.22661104E+00 0.27484883E+03</pdfrwt>
<pdfrwt beam="2">  1       -1 0.19725137E-02 0.27484883E+03</pdfrwt>
<totfact> 0.52189599E+03</totfact>
</mgrwt>
</event>
<event>
 5    1  0.1100736E+001  0.2759590E+03  0.7818608E-02  0.1097917E+00
          2   -1    0    0  501    0  0.00000000000E+00  0.00000000000E+00  0.10570916695E+03  0.10570916695E+03  0.00000000000E+00 0. -1.
         -2   -1    0    0    0  501 -0.00000000000E+00 -0.00000000000E+00 -0.18010120660E+03  0.18010120660E+03  0.00000000000E+00 0. -1.
         35    2    1    2    0    0  0.00000000000E+00  0.00000000000E+00 -0.74392039644E+02  0.28581037355E+03  0.27595904419E+03 0.  0.
         25    1    3    3    0    0 -0.18055061269E+02 -0.15785060435E+02  0.28822714810E+02  0.12572152663E+03  0.12000000000E+03 0.  0.
         25    1    3    3    0    0  0.18055061269E+02  0.15785060435E+02 -0.10321475445E+03  0.16008884692E+03  0.12000000000E+03 0.  0.
<mgrwt>
<rscale>  0 0.27595904E+03</rscale>
<asrwt>0</asrwt>
<pdfrwt beam="1">  1        2 0.16262949E-01 0.27595904E+03</pdfrwt>
<pdfrwt beam="2">  1       -2 0.27707878E-01 0.27595904E+03</pdfrwt>
<totfact> 0.41590689E+03</totfact>
</mgrwt>
</event>
<event>
 5    1  0.1100736E+001  0.2888457E+03  0.7818608E-02  0.1090953E+00
          1   -1    0    0  501    0  0.00000000000E+00  0.00000000000E+00  0.16661515070E+04  0.16661515070E+04  0.00000000000E+00 0. -1.
         -1   -1    0    0    0  501 -0.00000000000E+00 -0.00000000000E+00 -0.12518645000E+02  0.12518645000E+02  0.00000000000E+00 0. -1.
         35    2    1    2    0    0  0.00000000000E+00  0.00000000000E+00  0.16536328620E+04  0.16786701520E+04  0.28884569744E+03 0.  0.
         25    1    3    3    0    0 -0.11678546540E+02 -0.57928406436E+02  0.11433177750E+04  0.11511158166E+04  0.12000000000E+03 0.  0.
         25    1    3    3    0    0  0.11678546540E+02  0.57928406436E+02  0.51031508698E+03  0.52755433533E+03  0.12000000000E+03 0.  0.
<mgrwt>
<rscale>  0 0.28884570E+03</rscale>
<asrwt>0</asrwt>
<pdfrwt beam="1">  1        1 0.25633083E+00 0.28884570E+03</pdfrwt>
<pdfrwt beam="2">  1       -1 0.19259467E-02 0.28884570E+03</pdfrwt>
<totfact> 0.40319759E+03</totfact>
</mgrwt>
</event>
<event>
 5    1  0.1100736E+001  0.2753862E+03  0.7818608E-02  0.1098236E+00
          2   -1    0    0  501    0  0.00000000000E+00  0.00000000000E+00  0.52800710933E+03  0.52800710933E+03  0.00000000000E+00 0. -1.
         -2   -1    0    0    0  501 -0.00000000000E+00 -0.00000000000E+00 -0.35907455078E+02  0.35907455078E+02  0.00000000000E+00 0. -1.
         35    2    1    2    0    0  0.00000000000E+00  0.00000000000E+00  0.49209965425E+03  0.56391456441E+03  0.27538621287E+03 0.  0.
         25    1    3    3    0    0  0.22906625327E+02 -0.40655538049E+02  0.14611330155E+03  0.19474774234E+03  0.12000000000E+03 0.  0.
         25    1    3    3    0    0 -0.22906625327E+02  0.40655538049E+02  0.34598635270E+03  0.36916682206E+03  0.12000000000E+03 0.  0.
<mgrwt>
<rscale>  0 0.27538621E+03</rscale>
<asrwt>0</asrwt>
<pdfrwt beam="1">  1        2 0.81231858E-01 0.27538621E+03</pdfrwt>
<pdfrwt beam="2">  1       -2 0.55242242E-02 0.27538621E+03</pdfrwt>
<totfact> 0.97807487E+03</totfact>
</mgrwt>
</event>
<event>
 5    1  0.1100736E+001  0.2755041E+03  0.7818608E-02  0.1098170E+00
          2   -1    0    0  501    0  0.00000000000E+00  0.00000000000E+00  0.38532497597E+03  0.38532497597E+03  0.00000000000E+00 0.  1.
         -2   -1    0    0    0  501 -0.00000000000E+00 -0.00000000000E+00 -0.49245791315E+02  0.49245791315E+02  0.00000000000E+00 0.  1.
         35    2    1    2    0    0  0.00000000000E+00  0.00000000000E+00  0.33607918466E+03  0.43457076729E+03  0.27550414411E+03 0.  0.
         25    1    3    3    0    0 -0.20202545408E+02 -0.40071707612E+02  0.88203248365E+02  0.15554323391E+03  0.12000000000E+03 0.  0.
         25    1    3    3    0    0  0.20202545408E+02  0.40071707612E+02  0.24787593629E+03  0.27902753338E+03  0.12000000000E+03 0.  0.
<mgrwt>
<rscale>  0 0.27550414E+03</rscale>
<asrwt>0</asrwt>
<pdfrwt beam="1">  1        2 0.59280763E-01 0.27550414E+03</pdfrwt>
<pdfrwt beam="2">  1       -2 0.75762759E-02 0.27550414E+03</pdfrwt>
<totfact> 0.85087957E+03</totfact>
</mgrwt>
</event>
<event>
 5    1  0.1100736E+001  0.2749986E+03  0.7818608E-02  0.1098452E+00
         -2   -1    0    0    0  501 -0.00000000000E+00  0.00000000000E+00  0.10409781599E+03  0.10409781599E+03  0.00000000000E+00 0. -1.
          2   -1    0    0  501    0  0.00000000000E+00 -0.00000000000E+00 -0.18161813713E+03  0.18161813713E+03  0.00000000000E+00 0. -1.
         35    2    1    2    0    0  0.00000000000E+00  0.00000000000E+00 -0.77520321142E+02  0.28571595311E+03  0.27499855577E+03 0.  0.
         25    1    3    3    0    0 -0.56852813030E+02 -0.32406536861E+02 -0.54297071607E+02  0.14707344412E+03  0.12000000000E+03 0.  0.
         25    1    3    3    0    0  0.56852813030E+02  0.32406536861E+02 -0.23223249536E+02  0.13864250899E+03  0.12000000000E+03 0.  0.
<mgrwt>
<rscale>  0 0.27499856E+03</rscale>
<asrwt>0</asrwt>
<pdfrwt beam="1">  1        2 0.27941252E-01 0.27499856E+03</pdfrwt>
<pdfrwt beam="2">  1       -2 0.16015049E-01 0.27499856E+03</pdfrwt>
<totfact> 0.57809803E+03</totfact>
</mgrwt>
</event>
<event>
 5    1  0.1100736E+001  0.2754178E+03  0.7818608E-02  0.1098218E+00
         -2   -1    0    0    0  501 -0.00000000000E+00  0.00000000000E+00  0.97416348408E+02  0.97416348408E+02  0.00000000000E+00 0.  1.
          2   -1    0    0  501    0  0.00000000000E+00 -0.00000000000E+00 -0.19466691648E+03  0.19466691648E+03  0.00000000000E+00 0.  1.
         35    2    1    2    0    0  0.00000000000E+00  0.00000000000E+00 -0.97250568072E+02  0.29208326489E+03  0.27541779289E+03 0.  0.
         25    1    3    3    0    0  0.36192909475E+02  0.24211944727E+02 -0.10339930758E+03  0.16427891457E+03  0.12000000000E+03 0.  0.
         25    1    3    3    0    0 -0.36192909475E+02 -0.24211944727E+02  0.61487395060E+01  0.12780435032E+03  0.12000000000E+03 0.  0.
<mgrwt>
<rscale>  0 0.27541779E+03</rscale>
<asrwt>0</asrwt>
<pdfrwt beam="1">  1        2 0.29948756E-01 0.27541779E+03</pdfrwt>
<pdfrwt beam="2">  1       -2 0.14987131E-01 0.27541779E+03</pdfrwt>
<totfact> 0.59788539E+03</totfact>
</mgrwt>
</event>
<event>
 5    1  0.1100736E+001  0.2747198E+03  0.7818608E-02  0.1098608E+00
         -2   -1    0    0    0  501 -0.00000000000E+00  0.00000000000E+00  0.11758908636E+03  0.11758908636E+03  0.00000000000E+00 0. -1.
          2   -1    0    0  501    0  0.00000000000E+00 -0.00000000000E+00 -0.16045489116E+03  0.16045489116E+03  0.00000000000E+00 0. -1.
         35    2    1    2    0    0  0.00000000000E+00  0.00000000000E+00 -0.42865804795E+02  0.27804397752E+03  0.27471981402E+03 0.  0.
         25    1    3    3    0    0  0.59397296835E+02 -0.65229396043E+01  0.88820994173E+01  0.13434835058E+03  0.12000000000E+03 0.  0.
         25    1    3    3    0    0 -0.59397296835E+02  0.65229396043E+01 -0.51747904212E+02  0.14369562694E+03  0.12000000000E+03 0.  0.
<mgrwt>
<rscale>  0 0.27471981E+03</rscale>
<asrwt>0</asrwt>
<pdfrwt beam="1">  1        2 0.24685368E-01 0.27471981E+03</pdfrwt>
<pdfrwt beam="2">  1       -2 0.18090629E-01 0.27471981E+03</pdfrwt>
<totfact> 0.54089204E+03</totfact>
</mgrwt>
</event>
<event>
 5    1  0.1100736E+001  0.2750752E+03  0.7818608E-02  0.1098410E+00
         -1   -1    0    0    0  501 -0.00000000000E+00  0.00000000000E+00  0.17270918611E+02  0.17270918611E+02  0.00000000000E+00 0. -1.
          1   -1    0    0  501    0  0.00000000000E+00 -0.00000000000E+00 -0.10952854666E+04  0.10952854666E+04  0.00000000000E+00 0. -1.
         35    2    1    2    0    0  0.00000000000E+00  0.00000000000E+00 -0.10780145480E+04  0.11125563852E+04  0.27507516173E+03 0.  0.
         25    1    3    3    0    0  0.58204329709E+02 -0.26185501539E+02 -0.45386372578E+03  0.47377811902E+03  0.12000000000E+03 0.  0.
         25    1    3    3    0    0 -0.58204329709E+02  0.26185501539E+02 -0.62415082224E+03  0.63877826621E+03  0.12000000000E+03 0.  0.
<mgrwt>
<rscale>  0 0.27507516E+03</rscale>
<asrwt>0</asrwt>
<pdfrwt beam="1">  1        1 0.16850542E+00 0.27507516E+03</pdfrwt>
<pdfrwt beam="2">  1       -1 0.26570650E-02 0.27507516E+03</pdfrwt>
<totfact> 0.61360388E+03</totfact>
</mgrwt>
</event>
<event>
 5    1  0.1100736E+001  0.2726198E+03  0.7818608E-02  0.1099790E+00
          1   -1    0    0  501    0  0.00000000000E+00  0.00000000000E+00  0.19084119552E+04  0.19084119552E+04  0.00000000000E+00 0. -1.
         -1   -1    0    0    0  501 -0.00000000000E+00 -0.00000000000E+00 -0.97360490289E+01  0.97360490289E+01  0.00000000000E+00 0. -1.
         35    2    1    2    0    0  0.00000000000E+00  0.00000000000E+00  0.18986759062E+04  0.19181480043E+04  0.27261982586E+03 0.  0.
         25    1    3    3    0    0 -0.64563410275E+02  0.26614525584E+01  0.93380278768E+03  0.94369654209E+03  0.12000000000E+03 0.  0.
         25    1    3    3    0    0  0.64563410275E+02 -0.26614525584E+01  0.96487311852E+03  0.97445146217E+03  0.12000000000E+03 0.  0.
<mgrwt>
<rscale>  0 0.27261983E+03</rscale>
<asrwt>0</asrwt>
<pdfrwt beam="1">  1        1 0.29360154E+00 0.27261983E+03</pdfrwt>
<pdfrwt beam="2">  1       -1 0.14978552E-02 0.27261983E+03</pdfrwt>
<totfact> 0.40465071E+03</totfact>
</mgrwt>
</event>
<event>
 5    1  0.1100736E+001  0.2748074E+03  0.7818608E-02  0.1098559E+00
          3   -1    0    0  501    0  0.00000000000E+00  0.00000000000E+00  0.27561578182E+03  0.27561578182E+03  0.00000000000E+00 0.  1.
         -3   -1    0    0    0  501 -0.00000000000E+00 -0.00000000000E+00 -0.68500335443E+02  0.68500335443E+02  0.00000000000E+00 0.  1.
         35    2    1    2    0    0  0.00000000000E+00  0.00000000000E+00  0.20711544638E+03  0.34411611727E+03  0.27480737623E+03 0.  0.
         25    1    3    3    0    0  0.85121094912E+01 -0.64700015858E+02  0.84932813726E+02  0.16084816103E+03  0.12000000000E+03 0.  0.
         25    1    3    3    0    0 -0.85121094912E+01  0.64700015858E+02  0.12218263265E+03  0.18326795623E+03  0.12000000000E+03 0.  0.
<mgrwt>
<rscale>  0 0.27480738E+03</rscale>
<asrwt>0</asrwt>
<pdfrwt beam="1">  1        3 0.42402427E-01 0.27480738E+03</pdfrwt>
<pdfrwt beam="2">  1       -3 0.10538513E-01 0.27480738E+03</pdfrwt>
<totfact> 0.95276989E+02</totfact>
</mgrwt>
</event>
<event>
 5    1  0.1100736E+001  0.2757828E+03  0.7818608E-02  0.1098015E+00
         -2   -1    0    0    0  501 -0.00000000000E+00  0.00000000000E+00  0.16721947825E+02  0.16721947825E+02  0.00000000000E+00 0. -1.
          2   -1    0    0  501    0  0.00000000000E+00 -0.00000000000E+00 -0.11370708362E+04  0.11370708362E+04  0.00000000000E+00 0. -1.
         35    2    1    2    0    0  0.00000000000E+00  0.00000000000E+00 -0.11203488883E+04  0.11537927840E+04  0.27578280727E+03 0.  0.
         25    1    3    3    0    0 -0.38330699084E+02 -0.55956395694E+02 -0.57564762579E+03  0.59192106719E+03  0.12000000000E+03 0.  0.
         25    1    3    3    0    0  0.38330699084E+02  0.55956395694E+02 -0.54470126254E+03  0.56187171679E+03  0.12000000000E+03 0.  0.
<mgrwt>
<rscale>  0 0.27578281E+03</rscale>
<asrwt>0</asrwt>
<pdfrwt beam="1">  1        2 0.17493402E+00 0.27578281E+03</pdfrwt>
<pdfrwt beam="2">  1       -2 0.25726067E-02 0.27578281E+03</pdfrwt>
<totfact> 0.11553449E+04</totfact>
</mgrwt>
</event>
<event>
 5    1  0.1100736E+001  0.2750404E+03  0.7818608E-02  0.1098429E+00
         -2   -1    0    0    0  501 -0.00000000000E+00  0.00000000000E+00  0.14757080885E+02  0.14757080885E+02  0.00000000000E+00 0. -1.
          2   -1    0    0  501    0  0.00000000000E+00 -0.00000000000E+00 -0.12815408886E+04  0.12815408886E+04  0.00000000000E+00 0. -1.
         35    2    1    2    0    0  0.00000000000E+00  0.00000000000E+00 -0.12667838077E+04  0.12962979695E+04  0.27504037921E+03 0.  0.
         25    1    3    3    0    0 -0.31259917056E+02 -0.38248218545E+02 -0.84791357802E+03  0.85778642122E+03  0.12000000000E+03 0.  0.
         25    1    3    3    0    0  0.31259917056E+02  0.38248218545E+02 -0.41887022966E+03  0.43851154823E+03  0.12000000000E+03 0.  0.
<mgrwt>
<rscale>  0 0.27504038E+03</rscale>
<asrwt>0</asrwt>
<pdfrwt beam="1">  1        2 0.19716013E+00 0.27504038E+03</pdfrwt>
<pdfrwt beam="2">  1       -2 0.22703202E-02 0.27504038E+03</pdfrwt>
<totfact> 0.11508225E+04</totfact>
</mgrwt>
</event>
<event>
 5    1  0.1100736E+001  0.2749334E+03  0.7818608E-02  0.1098489E+00
         -1   -1    0    0    0  501 -0.00000000000E+00  0.00000000000E+00  0.62930559810E+03  0.62930559810E+03  0.00000000000E+00 0. -1.
          1   -1    0    0  501    0  0.00000000000E+00 -0.00000000000E+00 -0.30028487315E+02  0.30028487315E+02  0.00000000000E+00 0. -1.
         35    2    1    2    0    0  0.00000000000E+00  0.00000000000E+00  0.59927711078E+03  0.65933408542E+03  0.27493341136E+03 0.  0.
         25    1    3    3    0    0 -0.64114787613E+02  0.18679165868E+02  0.28495720941E+03  0.31632298118E+03  0.12000000000E+03 0.  0.
         25    1    3    3    0    0  0.64114787613E+02 -0.18679165868E+02  0.31431990138E+03  0.34301110424E+03  0.12000000000E+03 0.  0.
<mgrwt>
<rscale>  0 0.27493341E+03</rscale>
<asrwt>0</asrwt>
<pdfrwt beam="1">  1        1 0.46197678E-02 0.27493341E+03</pdfrwt>
<pdfrwt beam="2">  1       -1 0.96816236E-01 0.27493341E+03</pdfrwt>
<totfact> 0.20109370E+03</totfact>
</mgrwt>
</event>
<event>
 5    1  0.1100736E+001  0.2750540E+03  0.7818608E-02  0.1098421E+00
          2   -1    0    0  501    0  0.00000000000E+00  0.00000000000E+00  0.25339659621E+04  0.25339659621E+04  0.00000000000E+00 0. -1.
         -2   -1    0    0    0  501 -0.00000000000E+00 -0.00000000000E+00 -0.74640594826E+01  0.74640594826E+01  0.00000000000E+00 0. -1.
         35    2    1    2    0    0  0.00000000000E+00  0.00000000000E+00  0.25265019026E+04  0.25414300216E+04  0.27505397774E+03 0.  0.
         25    1    3    3    0    0  0.90396122106E+01 -0.31460965339E+02  0.72115506117E+03  0.73180334050E+03  0.12000000000E+03 0.  0.
         25    1    3    3    0    0 -0.90396122106E+01  0.31460965339E+02  0.18053468414E+04  0.18096266811E+04  0.12000000000E+03 0.  0.
<mgrwt>
<rscale>  0 0.27505398E+03</rscale>
<asrwt>0</asrwt>
<pdfrwt beam="1">  1        2 0.38984023E+00 0.27505398E+03</pdfrwt>
<pdfrwt beam="2">  1       -2 0.11483189E-02 0.27505398E+03</pdfrwt>
<totfact> 0.66976124E+03</totfact>
</mgrwt>
</event>
<event>
 5    1  0.1100736E+001  0.2767482E+03  0.7818608E-02  0.1097478E+00
         -4   -1    0    0    0  501 -0.00000000000E+00  0.00000000000E+00  0.83552455109E+02  0.83552455109E+02  0.00000000000E+00 0. -1.
          4   -1    0    0  501    0  0.00000000000E+00 -0.00000000000E+00 -0.22916616337E+03  0.22916616337E+03  0.00000000000E+00 0. -1.
         35    2    1    2    0    0  0.00000000000E+00  0.00000000000E+00 -0.14561370826E+03  0.31271861848E+03  0.27674822910E+03 0.  0.
         25    1    3    3    0    0  0.38169365592E+02 -0.30129865696E+02 -0.17649640071E+02  0.13067600802E+03  0.12000000000E+03 0.  0.
         25    1    3    3    0    0 -0.38169365592E+02  0.30129865696E+02 -0.12796406819E+03  0.18204261046E+03  0.12000000000E+03 0.  0.
<mgrwt>
<rscale>  0 0.27674823E+03</rscale>
<asrwt>0</asrwt>
<pdfrwt beam="1">  1        4 0.35256332E-01 0.27674823E+03</pdfrwt>
<pdfrwt beam="2">  1       -4 0.12854224E-01 0.27674823E+03</pdfrwt>
<totfact> 0.72172844E+02</totfact>
</mgrwt>
</event>
<event>
 5    1  0.1100736E+001  0.2739510E+03  0.7818608E-02  0.1099039E+00
          2   -1    0    0  501    0  0.00000000000E+00  0.00000000000E+00  0.10001450855E+03  0.10001450855E+03  0.00000000000E+00 0. -1.
         -2   -1    0    0    0  501 -0.00000000000E+00 -0.00000000000E+00 -0.18759560462E+03  0.18759560462E+03  0.00000000000E+00 0. -1.
         35    2    1    2    0    0  0.00000000000E+00  0.00000000000E+00 -0.87581096070E+02  0.28761011317E+03  0.27395096059E+03 0.  0.
         25    1    3    3    0    0 -0.57173064661E+00 -0.65765057486E+02 -0.37412051954E+02  0.14186271989E+03  0.12000000000E+03 0.  0.
         25    1    3    3    0    0  0.57173064661E+00  0.65765057486E+02 -0.50169044116E+02  0.14574739329E+03  0.12000000000E+03 0.  0.
<mgrwt>
<rscale>  0 0.27395096E+03</rscale>
<asrwt>0</asrwt>
<pdfrwt beam="1">  1        2 0.15386848E-01 0.27395096E+03</pdfrwt>
<pdfrwt beam="2">  1       -2 0.28860862E-01 0.27395096E+03</pdfrwt>
<totfact> 0.41244766E+03</totfact>
</mgrwt>
</event>
<event>
 5    1  0.1100736E+001  0.2747442E+03  0.7818608E-02  0.1098595E+00
          2   -1    0    0  501    0  0.00000000000E+00  0.00000000000E+00  0.12281939279E+04  0.12281939279E+04  0.00000000000E+00 0.  1.
         -2   -1    0    0    0  501 -0.00000000000E+00 -0.00000000000E+00 -0.15364910775E+02  0.15364910775E+02  0.00000000000E+00 0.  1.
         35    2    1    2    0    0  0.00000000000E+00  0.00000000000E+00  0.12128290171E+04  0.12435588387E+04  0.27474417276E+03 0.  0.
         25    1    3    3    0    0  0.36196449919E+02 -0.13619501528E+02  0.85330918070E+03  0.86257302976E+03  0.12000000000E+03 0.  0.
         25    1    3    3    0    0 -0.36196449919E+02  0.13619501528E+02  0.35951983641E+03  0.38098580890E+03  0.12000000000E+03 0.  0.
<mgrwt>
<rscale>  0 0.27474417E+03</rscale>
<asrwt>0</asrwt>
<pdfrwt beam="1">  1        2 0.18895283E+00 0.27474417E+03</pdfrwt>
<pdfrwt beam="2">  1       -2 0.23638334E-02 0.27474417E+03</pdfrwt>
<totfact> 0.11613825E+04</totfact>
</mgrwt>
</event>
<event>
 5    1  0.1100736E+001  0.2756240E+03  0.7818608E-02  0.1098103E+00
          2   -1    0    0  501    0  0.00000000000E+00  0.00000000000E+00  0.47386911241E+03  0.47386911241E+03  0.00000000000E+00 0.  1.
         -2   -1    0    0    0  501 -0.00000000000E+00 -0.00000000000E+00 -0.40078876237E+02  0.40078876237E+02  0.00000000000E+00 0.  1.
         35    2    1    2    0    0  0.00000000000E+00  0.00000000000E+00  0.43379023618E+03  0.51394798865E+03  0.27562395766E+03 0.  0.
         25    1    3    3    0    0 -0.19732239837E+02 -0.48906347395E+02  0.29624665902E+03  0.32394949465E+03  0.12000000000E+03 0.  0.
         25    1    3    3    0    0  0.19732239837E+02  0.48906347395E+02  0.13754357716E+03  0.18999849400E+03  0.12000000000E+03 0.  0.
<mgrwt>
<rscale>  0 0.27562396E+03</rscale>
<asrwt>0</asrwt>
<pdfrwt beam="1">  1        2 0.72902937E-01 0.27562396E+03</pdfrwt>
<pdfrwt beam="2">  1       -2 0.61659813E-02 0.27562396E+03</pdfrwt>
<totfact> 0.93292844E+03</totfact>
</mgrwt>
</event>
<event>
 5    1  0.1100736E+001  0.2743315E+03  0.7818608E-02  0.1098826E+00
          3   -1    0    0  501    0  0.00000000000E+00  0.00000000000E+00  0.93345984170E+03  0.93345984170E+03  0.00000000000E+00 0. -1.
         -3   -1    0    0    0  501 -0.00000000000E+00 -0.00000000000E+00 -0.20155602205E+02  0.20155602205E+02  0.00000000000E+00 0. -1.
         35    2    1    2    0    0  0.00000000000E+00  0.00000000000E+00  0.91330423950E+03  0.95361544391E+03  0.27433151656E+03 0.  0.
         25    1    3    3    0    0  0.48524788225E+02  0.10250773489E+02  0.61033975932E+03  0.62399868208E+03  0.12000000000E+03 0.  0.
         25    1    3    3    0    0 -0.48524788225E+02 -0.10250773489E+02  0.30296448018E+03  0.32961676183E+03  0.12000000000E+03 0.  0.
<mgrwt>
<rscale>  0 0.27433152E+03</rscale>
<asrwt>0</asrwt>
<pdfrwt beam="1">  1        3 0.14360917E+00 0.27433152E+03</pdfrwt>
<pdfrwt beam="2">  1       -3 0.31008626E-02 0.27433152E+03</pdfrwt>
<totfact> 0.46967488E+02</totfact>
</mgrwt>
</event>
<event>
 5    1  0.1100736E+001  0.2743568E+03  0.7818608E-02  0.1098812E+00
          2   -1    0    0  501    0  0.00000000000E+00  0.00000000000E+00  0.21565376723E+03  0.21565376723E+03  0.00000000000E+00 0.  1.
         -2   -1    0    0    0  501 -0.00000000000E+00 -0.00000000000E+00 -0.87259811263E+02  0.87259811263E+02  0.00000000000E+00 0.  1.
         35    2    1    2    0    0  0.00000000000E+00  0.00000000000E+00  0.12839395597E+03  0.30291357849E+03  0.27435675335E+03 0.  0.
         25    1    3    3    0    0 -0.95478661603E+01  0.26592535178E+02 -0.22281374275E+01  0.12330161910E+03  0.12000000000E+03 0.  0.
         25    1    3    3    0    0  0.95478661603E+01 -0.26592535178E+02  0.13062209339E+03  0.17961195940E+03  0.12000000000E+03 0.  0.
<mgrwt>
<rscale>  0 0.27435675E+03</rscale>
<asrwt>0</asrwt>
<pdfrwt beam="1">  1        2 0.33177503E-01 0.27435675E+03</pdfrwt>
<pdfrwt beam="2">  1       -2 0.13424586E-01 0.27435675E+03</pdfrwt>
<totfact> 0.64043317E+03</totfact>
</mgrwt>
</event>
<event>
 5    1  0.1100736E+001  0.2738111E+03  0.7818608E-02  0.1099118E+00
          2   -1    0    0  501    0  0.00000000000E+00  0.00000000000E+00  0.10632344004E+04  0.10632344004E+04  0.00000000000E+00 0.  1.
         -2   -1    0    0    0  501 -0.00000000000E+00 -0.00000000000E+00 -0.17628404996E+02  0.17628404996E+02  0.00000000000E+00 0.  1.
         35    2    1    2    0    0  0.00000000000E+00  0.00000000000E+00  0.10456059954E+04  0.10808628054E+04  0.27381107805E+03 0.  0.
         25    1    3    3    0    0 -0.16839904215E+02  0.29451973887E+01  0.27156014670E+03  0.29738387623E+03  0.12000000000E+03 0.  0.
         25    1    3    3    0    0  0.16839904215E+02 -0.29451973887E+01  0.77404584868E+03  0.78347892915E+03  0.12000000000E+03 0.  0.
<mgrwt>
<rscale>  0 0.27381108E+03</rscale>
<asrwt>0</asrwt>
<pdfrwt beam="1">  1        2 0.16357447E+00 0.27381108E+03</pdfrwt>
<pdfrwt beam="2">  1       -2 0.27120631E-02 0.27381108E+03</pdfrwt>
<totfact> 0.11803592E+04</totfact>
</mgrwt>
</event>
<event>
 5    1  0.1100736E+001  0.2744416E+03  0.7818608E-02  0.1098764E+00
         -2   -1    0    0    0  501 -0.00000000000E+00  0.00000000000E+00  0.13298665740E+02  0.13298665740E+02  0.00000000000E+00 0.  1.
          2   -1    0    0  501    0  0.00000000000E+00 -0.00000000000E+00 -0.14158973913E+04  0.14158973913E+04  0.00000000000E+00 0.  1.
         35    2    1    2    0    0  0.00000000000E+00  0.00000000000E+00 -0.14025987255E+04  0.14291960570E+04  0.27444158671E+03 0.  0.
         25    1    3    3    0    0  0.41881592662E+02 -0.24590751974E+02 -0.93827743378E+03  0.94716593880E+03  0.12000000000E+03 0.  0.
         25    1    3    3    0    0 -0.41881592662E+02  0.24590751974E+02 -0.46432129175E+03  0.48203011821E+03  0.12000000000E+03 0.  0.
<mgrwt>
<rscale>  0 0.27444159E+03</rscale>
<asrwt>0</asrwt>
<pdfrwt beam="1">  1        2 0.21783019E+00 0.27444159E+03</pdfrwt>
<pdfrwt beam="2">  1       -2 0.20459503E-02 0.27444159E+03</pdfrwt>
<totfact> 0.11321941E+04</totfact>
</mgrwt>
</event>
<event>
 5    1  0.1100736E+001  0.2751360E+03  0.7818608E-02  0.1098376E+00
          2   -1    0    0  501    0  0.00000000000E+00  0.00000000000E+00  0.35990557848E+03  0.35990557848E+03  0.00000000000E+00 0.  1.
         -2   -1    0    0    0  501 -0.00000000000E+00 -0.00000000000E+00 -0.52583095863E+02  0.52583095863E+02  0.00000000000E+00 0.  1.
         35    2    1    2    0    0  0.00000000000E+00  0.00000000000E+00  0.30732248261E+03  0.41248867434E+03  0.27513596300E+03 0.  0.
         25    1    3    3    0    0  0.53996762417E+02 -0.43408037483E+01  0.93871650648E+02  0.16169842214E+03  0.12000000000E+03 0.  0.
         25    1    3    3    0    0 -0.53996762417E+02  0.43408037483E+01  0.21345083196E+03  0.25079025219E+03  0.12000000000E+03 0.  0.
<mgrwt>
<rscale>  0 0.27513596E+03</rscale>
<asrwt>0</asrwt>
<pdfrwt beam="1">  1        2 0.55370087E-01 0.27513596E+03</pdfrwt>
<pdfrwt beam="2">  1       -2 0.80897073E-02 0.27513596E+03</pdfrwt>
<totfact> 0.82697950E+03</totfact>
</mgrwt>
</event>
<event>
 5    1  0.1100736E+001  0.2752348E+03  0.7818608E-02  0.1098320E+00
          2   -1    0    0  501    0  0.00000000000E+00  0.00000000000E+00  0.71338553408E+03  0.71338553408E+03  0.00000000000E+00 0.  1.
         -2   -1    0    0    0  501 -0.00000000000E+00 -0.00000000000E+00 -0.26547423347E+02  0.26547423347E+02  0.00000000000E+00 0.  1.
         35    2    1    2    0    0  0.00000000000E+00  0.00000000000E+00  0.68683811073E+03  0.73993295743E+03  0.27523479274E+03 0.  0.
         25    1    3    3    0    0 -0.44567281816E+02 -0.16176448815E+02  0.47208579347E+03  0.48940056856E+03  0.12000000000E+03 0.  0.
         25    1    3    3    0    0  0.44567281816E+02  0.16176448815E+02  0.21475231726E+03  0.25053238887E+03  0.12000000000E+03 0.  0.
<mgrwt>
<rscale>  0 0.27523479E+03</rscale>
<asrwt>0</asrwt>
<pdfrwt beam="1">  1        2 0.10975161E+00 0.27523479E+03</pdfrwt>
<pdfrwt beam="2">  1       -2 0.40842195E-02 0.27523479E+03</pdfrwt>
<totfact> 0.10870272E+04</totfact>
</mgrwt>
</event>
<event>
 5    1  0.1100736E+001  0.2777883E+03  0.7818608E-02  0.1096903E+00
         -2   -1    0    0    0  501 -0.00000000000E+00  0.00000000000E+00  0.91250991225E+02  0.91250991225E+02  0.00000000000E+00 0.  1.
          2   -1    0    0  501    0  0.00000000000E+00 -0.00000000000E+00 -0.21141227578E+03  0.21141227578E+03  0.00000000000E+00 0.  1.
         35    2    1    2    0    0  0.00000000000E+00  0.00000000000E+00 -0.12016128456E+03  0.30266326701E+03  0.27778826269E+03 0.  0.
         25    1    3    3    0    0  0.90009126482E+00 -0.69361404782E+02 -0.69811525023E+02  0.15519492151E+03  0.12000000000E+03 0.  0.
         25    1    3    3    0    0 -0.90009126482E+00  0.69361404782E+02 -0.50349759535E+02  0.14746834549E+03  0.12000000000E+03 0.  0.
<mgrwt>
<rscale>  0 0.27778826E+03</rscale>
<asrwt>0</asrwt>
<pdfrwt beam="1">  1        2 0.32524965E-01 0.27778826E+03</pdfrwt>
<pdfrwt beam="2">  1       -2 0.14038614E-01 0.27778826E+03</pdfrwt>
<totfact> 0.60853004E+03</totfact>
</mgrwt>
</event>
<event>
 5    1  0.1100736E+001  0.2793671E+03  0.7818608E-02  0.1096035E+00
         -2   -1    0    0    0  501 -0.00000000000E+00  0.00000000000E+00  0.94417052267E+01  0.94417052267E+01  0.00000000000E+00 0. -1.
          2   -1    0    0  501    0  0.00000000000E+00 -0.00000000000E+00 -0.20665225484E+04  0.20665225484E+04  0.00000000000E+00 0. -1.
         35    2    1    2    0    0  0.00000000000E+00  0.00000000000E+00 -0.20570808432E+04  0.20759642536E+04  0.27936711865E+03 0.  0.
         25    1    3    3    0    0 -0.61034607772E+02  0.20657403860E+02 -0.79835528834E+03  0.80989080628E+03  0.12000000000E+03 0.  0.
         25    1    3    3    0    0  0.61034607772E+02 -0.20657403860E+02 -0.12587255548E+04  0.12660734474E+04  0.12000000000E+03 0.  0.
<mgrwt>
<rscale>  0 0.27936712E+03</rscale>
<asrwt>0</asrwt>
<pdfrwt beam="1">  1        2 0.31792698E+00 0.27936712E+03</pdfrwt>
<pdfrwt beam="2">  1       -2 0.14525681E-02 0.27936712E+03</pdfrwt>
<totfact> 0.84759458E+03</totfact>
</mgrwt>
</event>
<event>
 5    1  0.1100736E+001  0.2748518E+03  0.7818608E-02  0.1098534E+00
         -2   -1    0    0    0  501 -0.00000000000E+00  0.00000000000E+00  0.81110111706E+01  0.81110111706E+01  0.00000000000E+00 0. -1.
          2   -1    0    0  501    0  0.00000000000E+00 -0.00000000000E+00 -0.23284252028E+04  0.23284252028E+04  0.00000000000E+00 0. -1.
         35    2    1    2    0    0  0.00000000000E+00  0.00000000000E+00 -0.23203141916E+04  0.23365362140E+04  0.27485183521E+03 0.  0.
         25    1    3    3    0    0  0.54714918118E+02  0.30383537823E+02 -0.13629395918E+04  0.13696427317E+04  0.12000000000E+03 0.  0.
         25    1    3    3    0    0 -0.54714918118E+02 -0.30383537823E+02 -0.95737459978E+03  0.96689348221E+03  0.12000000000E+03 0.  0.
<mgrwt>
<rscale>  0 0.27485184E+03</rscale>
<asrwt>0</asrwt>
<pdfrwt beam="1">  1        2 0.35821917E+00 0.27485184E+03</pdfrwt>
<pdfrwt beam="2">  1       -2 0.12478482E-02 0.27485184E+03</pdfrwt>
<totfact> 0.76753286E+03</totfact>
</mgrwt>
</event>
<event>
 5    1  0.1100736E+001  0.2753116E+03  0.7818608E-02  0.1098278E+00
          2   -1    0    0  501    0  0.00000000000E+00  0.00000000000E+00  0.17676608284E+03  0.17676608284E+03  0.00000000000E+00 0. -1.
         -2   -1    0    0    0  501 -0.00000000000E+00 -0.00000000000E+00 -0.10719887187E+03  0.10719887187E+03  0.00000000000E+00 0. -1.
         35    2    1    2    0    0  0.00000000000E+00  0.00000000000E+00  0.69567210972E+02  0.28396495471E+03  0.27531163917E+03 0.  0.
         25    1    3    3    0    0  0.59324493418E+02 -0.20993519460E+02  0.59815763689E+02  0.14811498562E+03  0.12000000000E+03 0.  0.
         25    1    3    3    0    0 -0.59324493418E+02  0.20993519460E+02  0.97514472836E+01  0.13584996909E+03  0.12000000000E+03 0.  0.
<mgrwt>
<rscale>  0 0.27531164E+03</rscale>
<asrwt>0</asrwt>
<pdfrwt beam="1">  1        2 0.27194782E-01 0.27531164E+03</pdfrwt>
<pdfrwt beam="2">  1       -2 0.16492134E-01 0.27531164E+03</pdfrwt>
<totfact> 0.56724648E+03</totfact>
</mgrwt>
</event>
<event>
 5    1  0.1100736E+001  0.2740550E+03  0.7818608E-02  0.1098981E+00
          2   -1    0    0  501    0  0.00000000000E+00  0.00000000000E+00  0.19554930958E+04  0.19554930958E+04  0.00000000000E+00 0.  1.
         -2   -1    0    0    0  501 -0.00000000000E+00 -0.00000000000E+00 -0.96019443241E+01  0.96019443241E+01  0.00000000000E+00 0.  1.
         35    2    1    2    0    0  0.00000000000E+00  0.00000000000E+00  0.19458911515E+04  0.19650950402E+04  0.27405500056E+03 0.  0.
         25    1    3    3    0    0 -0.43114333015E+02  0.14798408574E+02  0.62916074140E+03  0.64212232256E+03  0.12000000000E+03 0.  0.
         25    1    3    3    0    0  0.43114333015E+02 -0.14798408574E+02  0.13167304101E+04  0.13229727176E+04  0.12000000000E+03 0.  0.
<mgrwt>
<rscale>  0 0.27405500E+03</rscale>
<asrwt>0</asrwt>
<pdfrwt beam="1">  1        2 0.30084477E+00 0.27405500E+03</pdfrwt>
<pdfrwt beam="2">  1       -2 0.14772238E-02 0.27405500E+03</pdfrwt>
<totfact> 0.94599800E+03</totfact>
</mgrwt>
</event>
<event>
 5    1  0.1100736E+001  0.2744596E+03  0.7818608E-02  0.1098754E+00
         -2   -1    0    0    0  501 -0.00000000000E+00  0.00000000000E+00  0.63673745674E+02  0.63673745674E+02  0.00000000000E+00 0.  1.
          2   -1    0    0  501    0  0.00000000000E+00 -0.00000000000E+00 -0.29575806222E+03  0.29575806222E+03  0.00000000000E+00 0.  1.
         35    2    1    2    0    0  0.00000000000E+00  0.00000000000E+00 -0.23208431654E+03  0.35943180789E+03  0.27445964100E+03 0.  0.
         25    1    3    3    0    0 -0.56781306062E+02 -0.19116649125E+02 -0.78030849164E+02  0.15517208645E+03  0.12000000000E+03 0.  0.
         25    1    3    3    0    0  0.56781306062E+02  0.19116649125E+02 -0.15405346738E+03  0.20425972144E+03  0.12000000000E+03 0.  0.
<mgrwt>
<rscale>  0 0.27445964E+03</rscale>
<asrwt>0</asrwt>
<pdfrwt beam="1">  1        2 0.45501241E-01 0.27445964E+03</pdfrwt>
<pdfrwt beam="2">  1       -2 0.97959607E-02 0.27445964E+03</pdfrwt>
<totfact> 0.75577961E+03</totfact>
</mgrwt>
</event>
<event>
 5    1  0.1100736E+001  0.2747416E+03  0.7818608E-02  0.1098596E+00
          3   -1    0    0  501    0  0.00000000000E+00  0.00000000000E+00  0.23391788167E+03  0.23391788167E+03  0.00000000000E+00 0. -1.
         -3   -1    0    0    0  501 -0.00000000000E+00 -0.00000000000E+00 -0.80672505257E+02  0.80672505257E+02  0.00000000000E+00 0. -1.
         35    2    1    2    0    0  0.00000000000E+00  0.00000000000E+00  0.15324537642E+03  0.31459038693E+03  0.27474163528E+03 0.  0.
         25    1    3    3    0    0  0.58419634756E+02 -0.25039856126E+02  0.10039141394E+03  0.16887357435E+03  0.12000000000E+03 0.  0.
         25    1    3    3    0    0 -0.58419634756E+02  0.25039856126E+02  0.52853962477E+02  0.14571681258E+03  0.12000000000E+03 0.  0.
<mgrwt>
<rscale>  0 0.27474164E+03</rscale>
<asrwt>0</asrwt>
<pdfrwt beam="1">  1        3 0.35987366E-01 0.27474164E+03</pdfrwt>
<pdfrwt beam="2">  1       -3 0.12411155E-01 0.27474164E+03</pdfrwt>
<totfact> 0.99375938E+02</totfact>
</mgrwt>
</event>
<event>
 5    1  0.1100736E+001  0.2764326E+03  0.7818608E-02  0.1097653E+00
          2   -1    0    0  501    0  0.00000000000E+00  0.00000000000E+00  0.65562466256E+03  0.65562466256E+03  0.00000000000E+00 0. -1.
         -2   -1    0    0    0  501 -0.00000000000E+00 -0.00000000000E+00 -0.29138238604E+02  0.29138238604E+02  0.00000000000E+00 0. -1.
         35    2    1    2    0    0  0.00000000000E+00  0.00000000000E+00  0.62648642396E+03  0.68476290117E+03  0.27643261640E+03 0.  0.
         25    1    3    3    0    0 -0.28980167138E+02 -0.36139364250E+02  0.18796141451E+03  0.22776171118E+03  0.12000000000E+03 0.  0.
         25    1    3    3    0    0  0.28980167138E+02  0.36139364250E+02  0.43852500945E+03  0.45700118999E+03  0.12000000000E+03 0.  0.
<mgrwt>
<rscale>  0 0.27643262E+03</rscale>
<asrwt>0</asrwt>
<pdfrwt beam="1">  1        2 0.10086532E+00 0.27643262E+03</pdfrwt>
<pdfrwt beam="2">  1       -2 0.44828064E-02 0.27643262E+03</pdfrwt>
<totfact> 0.10458746E+04</totfact>
</mgrwt>
</event>
<event>
 5    1  0.1100736E+001  0.2735983E+03  0.7818608E-02  0.1099238E+00
         -1   -1    0    0    0  501 -0.00000000000E+00  0.00000000000E+00  0.70052266350E+02  0.70052266350E+02  0.00000000000E+00 0. -1.
          1   -1    0    0  501    0  0.00000000000E+00 -0.00000000000E+00 -0.26714351610E+03  0.26714351610E+03  0.00000000000E+00 0. -1.
         35    2    1    2    0    0  0.00000000000E+00  0.00000000000E+00 -0.19709124975E+03  0.33719578245E+03  0.27359830952E+03 0.  0.
         25    1    3    3    0    0  0.45088535757E+02 -0.47731784923E+02 -0.10057426427E+03  0.16978363284E+03  0.12000000000E+03 0.  0.
         25    1    3    3    0    0 -0.45088535757E+02  0.47731784923E+02 -0.96516985477E+02  0.16741214960E+03  0.12000000000E+03 0.  0.
<mgrwt>
<rscale>  0 0.27359831E+03</rscale>
<asrwt>0</asrwt>
<pdfrwt beam="1">  1        1 0.41099002E-01 0.27359831E+03</pdfrwt>
<pdfrwt beam="2">  1       -1 0.10777272E-01 0.27359831E+03</pdfrwt>
<totfact> 0.54667243E+03</totfact>
</mgrwt>
</event>
<event>
 5    1  0.1100736E+001  0.2748518E+03  0.7818608E-02  0.1098534E+00
          2   -1    0    0  501    0  0.00000000000E+00  0.00000000000E+00  0.25362844813E+04  0.25362844813E+04  0.00000000000E+00 0. -1.
         -2   -1    0    0    0  501 -0.00000000000E+00 -0.00000000000E+00 -0.74462784111E+01  0.74462784111E+01  0.00000000000E+00 0. -1.
         35    2    1    2    0    0  0.00000000000E+00  0.00000000000E+00  0.25288382029E+04  0.25437307597E+04  0.27485181737E+03 0.  0.
         25    1    3    3    0    0  0.66664732909E+02  0.44166724644E+01  0.12208258213E+04  0.12285273214E+04  0.12000000000E+03 0.  0.
         25    1    3    3    0    0 -0.66664732909E+02 -0.44166724644E+01  0.13080123816E+04  0.13152034383E+04  0.12000000000E+03 0.  0.
<mgrwt>
<rscale>  0 0.27485182E+03</rscale>
<asrwt>0</asrwt>
<pdfrwt beam="1">  1        2 0.39019692E+00 0.27485182E+03</pdfrwt>
<pdfrwt beam="2">  1       -2 0.11455833E-02 0.27485182E+03</pdfrwt>
<totfact> 0.67012176E+03</totfact>
</mgrwt>
</event>
<event>
 5    1  0.1100736E+001  0.2756033E+03  0.7818608E-02  0.1098115E+00
          1   -1    0    0  501    0  0.00000000000E+00  0.00000000000E+00  0.71848637022E+02  0.71848637022E+02  0.00000000000E+00 0.  1.
         -1   -1    0    0    0  501 -0.00000000000E+00 -0.00000000000E+00 -0.26429591939E+03  0.26429591939E+03  0.00000000000E+00 0.  1.
         35    2    1    2    0    0  0.00000000000E+00  0.00000000000E+00 -0.19244728237E+03  0.33614455641E+03  0.27560334961E+03 0.  0.
         25    1    3    3    0    0  0.55049500037E+02 -0.39429211527E+02 -0.93726625360E+02  0.16664270304E+03  0.12000000000E+03 0.  0.
         25    1    3    3    0    0 -0.55049500037E+02  0.39429211527E+02 -0.98720657010E+02  0.16950185337E+03  0.12000000000E+03 0.  0.
<mgrwt>
<rscale>  0 0.27560335E+03</rscale>
<asrwt>0</asrwt>
<pdfrwt beam="1">  1        1 0.11053637E-01 0.27560335E+03</pdfrwt>
<pdfrwt beam="2">  1       -1 0.40660910E-01 0.27560335E+03</pdfrwt>
<totfact> 0.33447420E+03</totfact>
</mgrwt>
</event>
<event>
 5    1  0.1100736E+001  0.2759828E+03  0.7818608E-02  0.1097904E+00
          2   -1    0    0  501    0  0.00000000000E+00  0.00000000000E+00  0.19017359160E+04  0.19017359160E+04  0.00000000000E+00 0. -1.
         -2   -1    0    0    0  501 -0.00000000000E+00 -0.00000000000E+00 -0.10012758350E+02  0.10012758350E+02  0.00000000000E+00 0. -1.
         35    2    1    2    0    0  0.00000000000E+00  0.00000000000E+00  0.18917231576E+04  0.19117486743E+04  0.27598276883E+03 0.  0.
         25    1    3    3    0    0  0.57983571974E+02  0.20311537439E+02  0.74189894341E+03  0.75404820496E+03  0.12000000000E+03 0.  0.
         25    1    3    3    0    0 -0.57983571974E+02 -0.20311537439E+02  0.11498242142E+04  0.11577004694E+04  0.12000000000E+03 0.  0.
<mgrwt>
<rscale>  0 0.27598277E+03</rscale>
<asrwt>0</asrwt>
<pdfrwt beam="1">  1        2 0.29257447E+00 0.27598277E+03</pdfrwt>
<pdfrwt beam="2">  1       -2 0.15404259E-02 0.27598277E+03</pdfrwt>
<totfact> 0.94959369E+03</totfact>
</mgrwt>
</event>
<event>
 5    1  0.1100736E+001  0.2765079E+03  0.7818608E-02  0.1097612E+00
          2   -1    0    0  501    0  0.00000000000E+00  0.00000000000E+00  0.29602111857E+03  0.29602111857E+03  0.00000000000E+00 0. -1.
         -2   -1    0    0    0  501 -0.00000000000E+00 -0.00000000000E+00 -0.64570237023E+02  0.64570237023E+02  0.00000000000E+00 0. -1.
         35    2    1    2    0    0  0.00000000000E+00  0.00000000000E+00  0.23145088155E+03  0.36059135560E+03  0.27650789349E+03 0.  0.
         25    1    3    3    0    0  0.55530896518E+02  0.40439407101E+00  0.63070049356E+02  0.14649803797E+03  0.12000000000E+03 0.  0.
         25    1    3    3    0    0 -0.55530896518E+02 -0.40439407101E+00  0.16838083219E+03  0.21409331763E+03  0.12000000000E+03 0.  0.
<mgrwt>
<rscale>  0 0.27650789E+03</rscale>
<asrwt>0</asrwt>
<pdfrwt beam="1">  1        2 0.45541710E-01 0.27650789E+03</pdfrwt>
<pdfrwt beam="2">  1       -2 0.99338828E-02 0.27650789E+03</pdfrwt>
<totfact> 0.73869061E+03</totfact>
</mgrwt>
</event>
<event>
 5    1  0.1100736E+001  0.2752766E+03  0.7818608E-02  0.1098297E+00
          2   -1    0    0  501    0  0.00000000000E+00  0.00000000000E+00  0.16485113784E+04  0.16485113784E+04  0.00000000000E+00 0.  1.
         -2   -1    0    0    0  501 -0.00000000000E+00 -0.00000000000E+00 -0.11491761387E+02  0.11491761387E+02  0.00000000000E+00 0.  1.
         35    2    1    2    0    0  0.00000000000E+00  0.00000000000E+00  0.16370196170E+04  0.16600031398E+04  0.27527658386E+03 0.  0.
         25    1    3    3    0    0 -0.31120893324E+02  0.54375943567E+02  0.96854777112E+03  0.97796218648E+03  0.12000000000E+03 0.  0.
         25    1    3    3    0    0  0.31120893324E+02 -0.54375943567E+02  0.66847184592E+03  0.68204095334E+03  0.12000000000E+03 0.  0.
<mgrwt>
<rscale>  0 0.27527658E+03</rscale>
<asrwt>0</asrwt>
<pdfrwt beam="1">  1        2 0.25361695E+00 0.27527658E+03</pdfrwt>
<pdfrwt beam="2">  1       -2 0.17679646E-02 0.27527658E+03</pdfrwt>
<totfact> 0.10543196E+04</totfact>
</mgrwt>
</event>
<event>
 5    1  0.1100736E+001  0.2727774E+03  0.7818608E-02  0.1099700E+00
         -3   -1    0    0    0  501 -0.00000000000E+00  0.00000000000E+00  0.34572934186E+02  0.34572934186E+02  0.00000000000E+00 0.  1.
          3   -1    0    0  501    0  0.00000000000E+00 -0.00000000000E+00 -0.53804740228E+03  0.53804740228E+03  0.00000000000E+00 0.  1.
         35    2    1    2    0    0  0.00000000000E+00  0.00000000000E+00 -0.50347446810E+03  0.57262033647E+03  0.27277739956E+03 0.  0.
         25    1    3    3    0    0  0.30794280165E+02  0.19775278899E+02 -0.36405107014E+03  0.38506172365E+03  0.12000000000E+03 0.  0.
         25    1    3    3    0    0 -0.30794280165E+02 -0.19775278899E+02 -0.13942339795E+03  0.18755861282E+03  0.12000000000E+03 0.  0.
<mgrwt>
<rscale>  0 0.27277740E+03</rscale>
<asrwt>0</asrwt>
<pdfrwt beam="1">  1        3 0.82776521E-01 0.27277740E+03</pdfrwt>
<pdfrwt beam="2">  1       -3 0.53189131E-02 0.27277740E+03</pdfrwt>
<totfact> 0.72601115E+02</totfact>
</mgrwt>
</event>
<event>
 5    1  0.1100736E+001  0.2740589E+03  0.7818608E-02  0.1098979E+00
         -2   -1    0    0    0  501 -0.00000000000E+00  0.00000000000E+00  0.20295683440E+02  0.20295683440E+02  0.00000000000E+00 0.  1.
          2   -1    0    0  501    0  0.00000000000E+00 -0.00000000000E+00 -0.92517576015E+03  0.92517576015E+03  0.00000000000E+00 0.  1.
         35    2    1    2    0    0  0.00000000000E+00  0.00000000000E+00 -0.90488007671E+03  0.94547144359E+03  0.27405893055E+03 0.  0.
         25    1    3    3    0    0 -0.59179653478E+02 -0.19007975040E+02 -0.37426078221E+03  0.39791288946E+03  0.12000000000E+03 0.  0.
         25    1    3    3    0    0  0.59179653478E+02  0.19007975040E+02 -0.53061929450E+03  0.54755855413E+03  0.12000000000E+03 0.  0.
<mgrwt>
<rscale>  0 0.27405893E+03</rscale>
<asrwt>0</asrwt>
<pdfrwt beam="1">  1        2 0.14233474E+00 0.27405893E+03</pdfrwt>
<pdfrwt beam="2">  1       -2 0.31224127E-02 0.27405893E+03</pdfrwt>
<totfact> 0.11639636E+04</totfact>
</mgrwt>
</event>
<event>
 5    1  0.1100736E+001  0.2751166E+03  0.7818608E-02  0.1098386E+00
          1   -1    0    0  501    0  0.00000000000E+00  0.00000000000E+00  0.30144727791E+03  0.30144727791E+03  0.00000000000E+00 0. -1.
         -1   -1    0    0    0  501 -0.00000000000E+00 -0.00000000000E+00 -0.62771481649E+02  0.62771481649E+02  0.00000000000E+00 0. -1.
         35    2    1    2    0    0  0.00000000000E+00  0.00000000000E+00  0.23867579627E+03  0.36421875956E+03  0.27511664634E+03 0.  0.
         25    1    3    3    0    0 -0.60034533191E+02 -0.25238305669E+02  0.97138877565E+02  0.16756216394E+03  0.12000000000E+03 0.  0.
         25    1    3    3    0    0  0.60034533191E+02  0.25238305669E+02  0.14153691870E+03  0.19665659563E+03  0.12000000000E+03 0.  0.
<mgrwt>
<rscale>  0 0.27511665E+03</rscale>
<asrwt>0</asrwt>
<pdfrwt beam="1">  1        1 0.46376503E-01 0.27511665E+03</pdfrwt>
<pdfrwt beam="2">  1       -1 0.96571512E-02 0.27511665E+03</pdfrwt>
<totfact> 0.55674460E+03</totfact>
</mgrwt>
</event>
<event>
 5    1  0.1100736E+001  0.2743124E+03  0.7818608E-02  0.1098837E+00
         -2   -1    0    0    0  501 -0.00000000000E+00  0.00000000000E+00  0.12606380446E+03  0.12606380446E+03  0.00000000000E+00 0.  1.
          2   -1    0    0  501    0  0.00000000000E+00 -0.00000000000E+00 -0.14922461400E+03  0.14922461400E+03  0.00000000000E+00 0.  1.
         35    2    1    2    0    0  0.00000000000E+00  0.00000000000E+00 -0.23160809538E+02  0.27528841846E+03  0.27431239535E+03 0.  0.
         25    1    3    3    0    0 -0.32992947051E+02 -0.74503580577E+01  0.45787491574E+02  0.13281768246E+03  0.12000000000E+03 0.  0.
         25    1    3    3    0    0  0.32992947051E+02  0.74503580577E+01 -0.68948301112E+02  0.14247073600E+03  0.12000000000E+03 0.  0.
<mgrwt>
<rscale>  0 0.27431240E+03</rscale>
<asrwt>0</asrwt>
<pdfrwt beam="1">  1        2 0.22957633E-01 0.27431240E+03</pdfrwt>
<pdfrwt beam="2">  1       -2 0.19394432E-01 0.27431240E+03</pdfrwt>
<totfact> 0.52146783E+03</totfact>
</mgrwt>
</event>
<event>
 5    1  0.1100736E+001  0.2746108E+03  0.7818608E-02  0.1098669E+00
          1   -1    0    0  501    0  0.00000000000E+00  0.00000000000E+00  0.60964358439E+03  0.60964358439E+03  0.00000000000E+00 0.  1.
         -1   -1    0    0    0  501 -0.00000000000E+00 -0.00000000000E+00 -0.30924258521E+02  0.30924258521E+02  0.00000000000E+00 0.  1.
         35    2    1    2    0    0  0.00000000000E+00  0.00000000000E+00  0.57871932587E+03  0.64056784291E+03  0.27461082141E+03 0.  0.
         25    1    3    3    0    0 -0.17461024351E+02  0.32191049677E+02  0.41947877618E+03  0.43783969066E+03  0.12000000000E+03 0.  0.
         25    1    3    3    0    0  0.17461024351E+02 -0.32191049677E+02  0.15924054969E+03  0.20272815225E+03  0.12000000000E+03 0.  0.
<mgrwt>
<rscale>  0 0.27461082E+03</rscale>
<asrwt>0</asrwt>
<pdfrwt beam="1">  1        1 0.93791312E-01 0.27461082E+03</pdfrwt>
<pdfrwt beam="2">  1       -1 0.47575787E-02 0.27461082E+03</pdfrwt>
<totfact> 0.64988949E+03</totfact>
</mgrwt>
</event>
<event>
 5    1  0.1100736E+001  0.2737431E+03  0.7818608E-02  0.1099156E+00
          1   -1    0    0  501    0  0.00000000000E+00  0.00000000000E+00  0.56828561076E+03  0.56828561076E+03  0.00000000000E+00 0. -1.
         -1   -1    0    0    0  501 -0.00000000000E+00 -0.00000000000E+00 -0.32965514836E+02  0.32965514836E+02  0.00000000000E+00 0. -1.
         35    2    1    2    0    0  0.00000000000E+00  0.00000000000E+00  0.53532009592E+03  0.60125112559E+03  0.27374314773E+03 0.  0.
         25    1    3    3    0    0 -0.46129870389E+02  0.45627239659E+02  0.29211994601E+03  0.32240327666E+03  0.12000000000E+03 0.  0.
         25    1    3    3    0    0  0.46129870389E+02 -0.45627239659E+02  0.24320014991E+03  0.27884784894E+03  0.12000000000E+03 0.  0.
<mgrwt>
<rscale>  0 0.27374315E+03</rscale>
<asrwt>0</asrwt>
<pdfrwt beam="1">  1        1 0.87428548E-01 0.27374315E+03</pdfrwt>
<pdfrwt beam="2">  1       -1 0.50716181E-02 0.27374315E+03</pdfrwt>
<totfact> 0.65070592E+03</totfact>
</mgrwt>
</event>
<event>
 5    1  0.1100736E+001  0.2755019E+03  0.7818608E-02  0.1098171E+00
         -2   -1    0    0    0  501 -0.00000000000E+00  0.00000000000E+00  0.17627241914E+03  0.17627241914E+03  0.00000000000E+00 0.  1.
          2   -1    0    0  501    0  0.00000000000E+00 -0.00000000000E+00 -0.10764775922E+03  0.10764775922E+03  0.00000000000E+00 0.  1.
         35    2    1    2    0    0  0.00000000000E+00  0.00000000000E+00  0.68624659916E+02  0.28392017837E+03  0.27550194869E+03 0.  0.
         25    1    3    3    0    0  0.60950221008E+02  0.29105475944E+00  0.40849308079E+01  0.13465400408E+03  0.12000000000E+03 0.  0.
         25    1    3    3    0    0 -0.60950221008E+02 -0.29105475944E+00  0.64539729108E+02  0.14926617429E+03  0.12000000000E+03 0.  0.
<mgrwt>
<rscale>  0 0.27550195E+03</rscale>
<asrwt>0</asrwt>
<pdfrwt beam="1">  1        2 0.16561194E-01 0.27550195E+03</pdfrwt>
<pdfrwt beam="2">  1       -2 0.27118834E-01 0.27550195E+03</pdfrwt>
<totfact> 0.42307931E+03</totfact>
</mgrwt>
</event>
<event>
 5    1  0.1100736E+001  0.2739773E+03  0.7818608E-02  0.1099025E+00
          3   -1    0    0  501    0  0.00000000000E+00  0.00000000000E+00  0.23977549880E+03  0.23977549880E+03  0.00000000000E+00 0.  1.
         -3   -1    0    0    0  501 -0.00000000000E+00 -0.00000000000E+00 -0.78264410161E+02  0.78264410161E+02  0.00000000000E+00 0.  1.
         35    2    1    2    0    0  0.00000000000E+00  0.00000000000E+00  0.16151108864E+03  0.31803990896E+03  0.27397728362E+03 0.  0.
         25    1    3    3    0    0  0.22761047313E+02  0.69780668275E+01  0.15230545598E+03  0.19535534447E+03  0.12000000000E+03 0.  0.
         25    1    3    3    0    0 -0.22761047313E+02 -0.69780668275E+01  0.92056326569E+01  0.12268456449E+03  0.12000000000E+03 0.  0.
<mgrwt>
<rscale>  0 0.27397728E+03</rscale>
<asrwt>0</asrwt>
<pdfrwt beam="1">  1        3 0.36888538E-01 0.27397728E+03</pdfrwt>
<pdfrwt beam="2">  1       -3 0.12040679E-01 0.27397728E+03</pdfrwt>
<totfact> 0.99738394E+02</totfact>
</mgrwt>
</event>
<event>
 5    1  0.1100736E+001  0.2770834E+03  0.7818608E-02  0.1097293E+00
         -1   -1    0    0    0  501 -0.00000000000E+00  0.00000000000E+00  0.10777592102E+03  0.10777592102E+03  0.00000000000E+00 0. -1.
          1   -1    0    0  501    0  0.00000000000E+00 -0.00000000000E+00 -0.17808992923E+03  0.17808992923E+03  0.00000000000E+00 0. -1.
         35    2    1    2    0    0  0.00000000000E+00  0.00000000000E+00 -0.70314008213E+02  0.28586585025E+03  0.27708342533E+03 0.  0.
         25    1    3    3    0    0  0.73814744153E+01 -0.17110880136E+02 -0.10395293033E+03  0.15985455923E+03  0.12000000000E+03 0.  0.
         25    1    3    3    0    0 -0.73814744153E+01  0.17110880136E+02  0.33638922116E+02  0.12601129102E+03  0.12000000000E+03 0.  0.
<mgrwt>
<rscale>  0 0.27708343E+03</rscale>
<asrwt>0</asrwt>
<pdfrwt beam="1">  1        1 0.27398450E-01 0.27708343E+03</pdfrwt>
<pdfrwt beam="2">  1       -1 0.16580911E-01 0.27708343E+03</pdfrwt>
<totfact> 0.46242147E+03</totfact>
</mgrwt>
</event>
<event>
 5    1  0.1100736E+001  0.2711351E+03  0.7818608E-02  0.1100632E+00
          1   -1    0    0  501    0  0.00000000000E+00  0.00000000000E+00  0.11560331850E+03  0.11560331850E+03  0.00000000000E+00 0.  1.
         -1   -1    0    0    0  501 -0.00000000000E+00 -0.00000000000E+00 -0.15897947414E+03  0.15897947414E+03  0.00000000000E+00 0.  1.
         35    2    1    2    0    0  0.00000000000E+00  0.00000000000E+00 -0.43376155647E+02  0.27458279264E+03  0.27113505700E+03 0.  0.
         25    1    3    3    0    0  0.46515728342E+02 -0.42315910927E+02 -0.16705609825E+02  0.13650431019E+03  0.12000000000E+03 0.  0.
         25    1    3    3    0    0 -0.46515728342E+02  0.42315910927E+02 -0.26670545822E+02  0.13807848245E+03  0.12000000000E+03 0.  0.
<mgrwt>
<rscale>  0 0.27113506E+03</rscale>
<asrwt>0</asrwt>
<pdfrwt beam="1">  1        1 0.17785126E-01 0.27113506E+03</pdfrwt>
<pdfrwt beam="2">  1       -1 0.24458381E-01 0.27113506E+03</pdfrwt>
<totfact> 0.42709618E+03</totfact>
</mgrwt>
</event>
<event>
 5    1  0.1100736E+001  0.2749080E+03  0.7818608E-02  0.1098503E+00
         -2   -1    0    0    0  501 -0.00000000000E+00  0.00000000000E+00  0.34204133680E+02  0.34204133680E+02  0.00000000000E+00 0.  1.
          2   -1    0    0  501    0  0.00000000000E+00 -0.00000000000E+00 -0.55237792402E+03  0.55237792402E+03  0.00000000000E+00 0.  1.
         35    2    1    2    0    0  0.00000000000E+00  0.00000000000E+00 -0.51817379034E+03  0.58658205770E+03  0.27490804539E+03 0.  0.
         25    1    3    3    0    0  0.62082175281E+02  0.24160693108E+02 -0.27500761731E+03  0.30735504740E+03  0.12000000000E+03 0.  0.
         25    1    3    3    0    0 -0.62082175281E+02 -0.24160693108E+02 -0.24316617303E+03  0.27922701031E+03  0.12000000000E+03 0.  0.
<mgrwt>
<rscale>  0 0.27490805E+03</rscale>
<asrwt>0</asrwt>
<pdfrwt beam="1">  1        2 0.84981216E-01 0.27490805E+03</pdfrwt>
<pdfrwt beam="2">  1       -2 0.52621746E-02 0.27490805E+03</pdfrwt>
<totfact> 0.10006983E+04</totfact>
</mgrwt>
</event>
<event>
 5    1  0.1100736E+001  0.2740726E+03  0.7818608E-02  0.1098971E+00
          1   -1    0    0  501    0  0.00000000000E+00  0.00000000000E+00  0.10967927416E+04  0.10967927416E+04  0.00000000000E+00 0. -1.
         -1   -1    0    0    0  501 -0.00000000000E+00 -0.00000000000E+00 -0.17121686689E+02  0.17121686689E+02  0.00000000000E+00 0. -1.
         35    2    1    2    0    0  0.00000000000E+00  0.00000000000E+00  0.10796710549E+04  0.11139144283E+04  0.27407255743E+03 0.  0.
         25    1    3    3    0    0 -0.49392507157E+02  0.14839195837E+02  0.37132020446E+03  0.39362230086E+03  0.12000000000E+03 0.  0.
         25    1    3    3    0    0  0.49392507157E+02 -0.14839195837E+02  0.70835085045E+03  0.72029212743E+03  0.12000000000E+03 0.  0.
<mgrwt>
<rscale>  0 0.27407256E+03</rscale>
<asrwt>0</asrwt>
<pdfrwt beam="1">  1        1 0.16873729E+00 0.27407256E+03</pdfrwt>
<pdfrwt beam="2">  1       -1 0.26341065E-02 0.27407256E+03</pdfrwt>
<totfact> 0.61988940E+03</totfact>
</mgrwt>
</event>
<event>
 5    1  0.1100736E+001  0.2737169E+03  0.7818608E-02  0.1099171E+00
         -3   -1    0    0    0  501 -0.00000000000E+00  0.00000000000E+00  0.70753372452E+03  0.70753372452E+03  0.00000000000E+00 0.  1.
          3   -1    0    0  501    0  0.00000000000E+00 -0.00000000000E+00 -0.26472573025E+02  0.26472573025E+02  0.00000000000E+00 0.  1.
         35    2    1    2    0    0  0.00000000000E+00  0.00000000000E+00  0.68106115150E+03  0.73400629754E+03  0.27371692085E+03 0.  0.
         25    1    3    3    0    0  0.26868026812E+02 -0.59090253696E+02  0.31156290660E+03  0.34012496779E+03  0.12000000000E+03 0.  0.
         25    1    3    3    0    0 -0.26868026812E+02  0.59090253696E+02  0.36949824490E+03  0.39388132976E+03  0.12000000000E+03 0.  0.
<mgrwt>
<rscale>  0 0.27371692E+03</rscale>
<asrwt>0</asrwt>
<pdfrwt beam="1">  1        3 0.40727041E-02 0.27371692E+03</pdfrwt>
<pdfrwt beam="2">  1       -3 0.10885133E+00 0.27371692E+03</pdfrwt>
<totfact> 0.59514974E+02</totfact>
</mgrwt>
</event>
<event>
 5    1  0.1100736E+001  0.2734398E+03  0.7818608E-02  0.1099327E+00
          2   -1    0    0  501    0  0.00000000000E+00  0.00000000000E+00  0.28898311421E+03  0.28898311421E+03  0.00000000000E+00 0. -1.
         -2   -1    0    0    0  501 -0.00000000000E+00 -0.00000000000E+00 -0.64683145207E+02  0.64683145207E+02  0.00000000000E+00 0. -1.
         35    2    1    2    0    0  0.00000000000E+00  0.00000000000E+00  0.22429996900E+03  0.35366625941E+03  0.27343984156E+03 0.  0.
         25    1    3    3    0    0 -0.60999915841E+02  0.44980246242E+01  0.81786412247E+02  0.15757613774E+03  0.12000000000E+03 0.  0.
         25    1    3    3    0    0  0.60999915841E+02 -0.44980246242E+01  0.14251355675E+03  0.19609012167E+03  0.12000000000E+03 0.  0.
<mgrwt>
<rscale>  0 0.27343984E+03</rscale>
<asrwt>0</asrwt>
<pdfrwt beam="1">  1        2 0.44458940E-01 0.27343984E+03</pdfrwt>
<pdfrwt beam="2">  1       -2 0.99512533E-02 0.27343984E+03</pdfrwt>
<totfact> 0.75563074E+03</totfact>
</mgrwt>
</event>
<event>
 5    1  0.1100736E+001  0.2749166E+03  0.7818608E-02  0.1098498E+00
          2   -1    0    0  501    0  0.00000000000E+00  0.00000000000E+00  0.10300993446E+03  0.10300993446E+03  0.00000000000E+00 0. -1.
         -2   -1    0    0    0  501 -0.00000000000E+00 -0.00000000000E+00 -0.18342681028E+03  0.18342681028E+03  0.00000000000E+00 0. -1.
         35    2    1    2    0    0  0.00000000000E+00  0.00000000000E+00 -0.80416875823E+02  0.28643674474E+03  0.27491659611E+03 0.  0.
         25    1    3    3    0    0  0.34574048156E+02  0.20709454256E+02  0.15614074184E+02  0.12754624892E+03  0.12000000000E+03 0.  0.
         25    1    3    3    0    0 -0.34574048156E+02 -0.20709454256E+02 -0.96030950007E+02  0.15889049582E+03  0.12000000000E+03 0.  0.
<mgrwt>
<rscale>  0 0.27491660E+03</rscale>
<asrwt>0</asrwt>
<pdfrwt beam="1">  1        2 0.15847682E-01 0.27491660E+03</pdfrwt>
<pdfrwt beam="2">  1       -2 0.28219509E-01 0.27491660E+03</pdfrwt>
<totfact> 0.41484153E+03</totfact>
</mgrwt>
</event>
<event>
 5    1  0.1100736E+001  0.2739301E+03  0.7818608E-02  0.1099051E+00
         -2   -1    0    0    0  501 -0.00000000000E+00  0.00000000000E+00  0.11424495396E+02  0.11424495396E+02  0.00000000000E+00 0.  1.
          2   -1    0    0  501    0  0.00000000000E+00 -0.00000000000E+00 -0.16420350811E+04  0.16420350811E+04  0.00000000000E+00 0.  1.
         35    2    1    2    0    0  0.00000000000E+00  0.00000000000E+00 -0.16306105857E+04  0.16534595765E+04  0.27393008031E+03 0.  0.
         25    1    3    3    0    0 -0.32943637804E+01  0.31996523688E+02 -0.11633508453E+04  0.11699657344E+04  0.12000000000E+03 0.  0.
         25    1    3    3    0    0  0.32943637804E+01 -0.31996523688E+02 -0.46725974032E+03  0.48349384203E+03  0.12000000000E+03 0.  0.
<mgrwt>
<rscale>  0 0.27393008E+03</rscale>
<asrwt>0</asrwt>
<pdfrwt beam="1">  1        2 0.25262062E+00 0.27393008E+03</pdfrwt>
<pdfrwt beam="2">  1       -2 0.17576158E-02 0.27393008E+03</pdfrwt>
<totfact> 0.10717552E+04</totfact>
</mgrwt>
</event>
<event>
 5    1  0.1100736E+001  0.2750940E+03  0.7818608E-02  0.1098399E+00
          1   -1    0    0  501    0  0.00000000000E+00  0.00000000000E+00  0.10899617832E+04  0.10899617832E+04  0.00000000000E+00 0.  1.
         -1   -1    0    0    0  501 -0.00000000000E+00 -0.00000000000E+00 -0.17357651107E+02  0.17357651107E+02  0.00000000000E+00 0.  1.
         35    2    1    2    0    0  0.00000000000E+00  0.00000000000E+00  0.10726041321E+04  0.11073194343E+04  0.27509399377E+03 0.  0.
         25    1    3    3    0    0  0.35636996832E+02  0.14789897870E+02  0.75788925053E+03  0.76829997572E+03  0.12000000000E+03 0.  0.
         25    1    3    3    0    0 -0.35636996832E+02 -0.14789897870E+02  0.31471488155E+03  0.33901945857E+03  0.12000000000E+03 0.  0.
<mgrwt>
<rscale>  0 0.27509399E+03</rscale>
<asrwt>0</asrwt>
<pdfrwt beam="1">  1        1 0.16768638E+00 0.27509399E+03</pdfrwt>
<pdfrwt beam="2">  1       -1 0.26704087E-02 0.27509399E+03</pdfrwt>
<totfact> 0.61451853E+03</totfact>
</mgrwt>
</event>
<event>
 5    1  0.1100736E+001  0.2758374E+03  0.7818608E-02  0.1097984E+00
         -2   -1    0    0    0  501 -0.00000000000E+00  0.00000000000E+00  0.31398082240E+02  0.31398082240E+02  0.00000000000E+00 0. -1.
          2   -1    0    0  501    0  0.00000000000E+00 -0.00000000000E+00 -0.60581938940E+03  0.60581938940E+03  0.00000000000E+00 0. -1.
         35    2    1    2    0    0  0.00000000000E+00  0.00000000000E+00 -0.57442130716E+03  0.63721747164E+03  0.27583739421E+03 0.  0.
         25    1    3    3    0    0  0.27830642186E+02 -0.38258632348E+02 -0.39998851036E+03  0.42027262106E+03  0.12000000000E+03 0.  0.
         25    1    3    3    0    0 -0.27830642186E+02  0.38258632348E+02 -0.17443279680E+03  0.21694485058E+03  0.12000000000E+03 0.  0.
<mgrwt>
<rscale>  0 0.27583739E+03</rscale>
<asrwt>0</asrwt>
<pdfrwt beam="1">  1        2 0.93202975E-01 0.27583739E+03</pdfrwt>
<pdfrwt beam="2">  1       -2 0.48304746E-02 0.27583739E+03</pdfrwt>
<totfact> 0.10249191E+04</totfact>
</mgrwt>
</event>
<event>
 5    1  0.1100736E+001  0.2754964E+03  0.7818608E-02  0.1098174E+00
          2   -1    0    0  501    0  0.00000000000E+00  0.00000000000E+00  0.16140673805E+04  0.16140673805E+04  0.00000000000E+00 0. -1.
         -2   -1    0    0    0  501 -0.00000000000E+00 -0.00000000000E+00 -0.11755742453E+02  0.11755742453E+02  0.00000000000E+00 0. -1.
         35    2    1    2    0    0  0.00000000000E+00  0.00000000000E+00  0.16023116381E+04  0.16258231230E+04  0.27549635516E+03 0.  0.
         25    1    3    3    0    0 -0.29020285919E+02  0.12856900479E+02  0.44869237638E+03  0.46554519169E+03  0.12000000000E+03 0.  0.
         25    1    3    3    0    0  0.29020285919E+02 -0.12856900479E+02  0.11536192617E+04  0.11602779313E+04  0.12000000000E+03 0.  0.
<mgrwt>
<rscale>  0 0.27549636E+03</rscale>
<asrwt>0</asrwt>
<pdfrwt beam="1">  1        2 0.24831788E+00 0.27549636E+03</pdfrwt>
<pdfrwt beam="2">  1       -2 0.18085770E-02 0.27549636E+03</pdfrwt>
<totfact> 0.10634422E+04</totfact>
</mgrwt>
</event>
<event>
 5    1  0.1100736E+001  0.2751543E+03  0.7818608E-02  0.1098365E+00
          2   -1    0    0  501    0  0.00000000000E+00  0.00000000000E+00  0.11713730947E+04  0.11713730947E+04  0.00000000000E+00 0.  1.
         -2   -1    0    0    0  501 -0.00000000000E+00 -0.00000000000E+00 -0.16158363210E+02  0.16158363210E+02  0.00000000000E+00 0.  1.
         35    2    1    2    0    0  0.00000000000E+00  0.00000000000E+00  0.11552147315E+04  0.11875314579E+04  0.27515429794E+03 0.  0.
         25    1    3    3    0    0  0.19399608239E+02 -0.62654312629E+02  0.51278812575E+03  0.53071043856E+03  0.12000000000E+03 0.  0.
         25    1    3    3    0    0 -0.19399608239E+02  0.62654312629E+02  0.64242660574E+03  0.65682101934E+03  0.12000000000E+03 0.  0.
<mgrwt>
<rscale>  0 0.27515430E+03</rscale>
<asrwt>0</asrwt>
<pdfrwt beam="1">  1        2 0.18021118E+00 0.27515430E+03</pdfrwt>
<pdfrwt beam="2">  1       -2 0.24859030E-02 0.27515430E+03</pdfrwt>
<totfact> 0.11613268E+04</totfact>
</mgrwt>
</event>
<event>
 5    1  0.1100736E+001  0.2746585E+03  0.7818608E-02  0.1098643E+00
          2   -1    0    0  501    0  0.00000000000E+00  0.00000000000E+00  0.18841201500E+04  0.18841201500E+04  0.00000000000E+00 0. -1.
         -2   -1    0    0    0  501 -0.00000000000E+00 -0.00000000000E+00 -0.10009618218E+02  0.10009618218E+02  0.00000000000E+00 0. -1.
         35    2    1    2    0    0  0.00000000000E+00  0.00000000000E+00  0.18741105318E+04  0.18941297683E+04  0.27465850345E+03 0.  0.
         25    1    3    3    0    0 -0.29519861654E+02  0.34127839289E+02  0.59757809873E+03  0.61117568319E+03  0.12000000000E+03 0.  0.
         25    1    3    3    0    0  0.29519861654E+02 -0.34127839289E+02  0.12765324331E+04  0.12829540851E+04  0.12000000000E+03 0.  0.
<mgrwt>
<rscale>  0 0.27465850E+03</rscale>
<asrwt>0</asrwt>
<pdfrwt beam="1">  1        2 0.28986436E+00 0.27465850E+03</pdfrwt>
<pdfrwt beam="2">  1       -2 0.15399428E-02 0.27465850E+03</pdfrwt>
<totfact> 0.97041915E+03</totfact>
</mgrwt>
</event>
<event>
 5    1  0.1100736E+001  0.2749873E+03  0.7818608E-02  0.1098459E+00
          1   -1    0    0  501    0  0.00000000000E+00  0.00000000000E+00  0.60292964029E+03  0.60292964029E+03  0.00000000000E+00 0. -1.
         -1   -1    0    0    0  501 -0.00000000000E+00 -0.00000000000E+00 -0.31354415642E+02  0.31354415642E+02  0.00000000000E+00 0. -1.
         35    2    1    2    0    0  0.00000000000E+00  0.00000000000E+00  0.57157522465E+03  0.63428405593E+03  0.27498732003E+03 0.  0.
         25    1    3    3    0    0 -0.21740347741E+02  0.56605136782E+02  0.35214869424E+03  0.37694228615E+03  0.12000000000E+03 0.  0.
         25    1    3    3    0    0  0.21740347741E+02 -0.56605136782E+02  0.21942653041E+03  0.25734176979E+03  0.12000000000E+03 0.  0.
<mgrwt>
<rscale>  0 0.27498732E+03</rscale>
<asrwt>0</asrwt>
<pdfrwt beam="1">  1        1 0.92758398E-01 0.27498732E+03</pdfrwt>
<pdfrwt beam="2">  1       -1 0.48237567E-02 0.27498732E+03</pdfrwt>
<totfact> 0.64651841E+03</totfact>
</mgrwt>
</event>
<event>
 5    1  0.1100736E+001  0.2696928E+03  0.7818608E-02  0.1101456E+00
         -1   -1    0    0    0  501 -0.00000000000E+00  0.00000000000E+00  0.33751178634E+02  0.33751178634E+02  0.00000000000E+00 0. -1.
          1   -1    0    0  501    0  0.00000000000E+00 -0.00000000000E+00 -0.53875293294E+03  0.53875293294E+03  0.00000000000E+00 0. -1.
         35    2    1    2    0    0  0.00000000000E+00  0.00000000000E+00 -0.50500175430E+03  0.57250411157E+03  0.26969276208E+03 0.  0.
         25    1    3    3    0    0 -0.22447077517E+02  0.57262995359E+02 -0.25082325615E+03  0.28477223838E+03  0.12000000000E+03 0.  0.
         25    1    3    3    0    0  0.22447077517E+02 -0.57262995359E+02 -0.25417849816E+03  0.28773187319E+03  0.12000000000E+03 0.  0.
<mgrwt>
<rscale>  0 0.26969276E+03</rscale>
<asrwt>0</asrwt>
<pdfrwt beam="1">  1        1 0.82885059E-01 0.26969276E+03</pdfrwt>
<pdfrwt beam="2">  1       -1 0.51924895E-02 0.26969276E+03</pdfrwt>
<totfact> 0.67507261E+03</totfact>
</mgrwt>
</event>
<event>
 5    1  0.1100736E+001  0.2757020E+03  0.7818608E-02  0.1098060E+00
         -2   -1    0    0    0  501 -0.00000000000E+00  0.00000000000E+00  0.12074488583E+02  0.12074488583E+02  0.00000000000E+00 0.  1.
          2   -1    0    0  501    0  0.00000000000E+00 -0.00000000000E+00 -0.15738056666E+04  0.15738056666E+04  0.00000000000E+00 0.  1.
         35    2    1    2    0    0  0.00000000000E+00  0.00000000000E+00 -0.15617311780E+04  0.15858801552E+04  0.27570200255E+03 0.  0.
         25    1    3    3    0    0 -0.26540124561E+02  0.53117122008E+02 -0.59208524123E+03  0.60703438102E+03  0.12000000000E+03 0.  0.
         25    1    3    3    0    0  0.26540124561E+02 -0.53117122008E+02 -0.96964593680E+03  0.97884577417E+03  0.12000000000E+03 0.  0.
<mgrwt>
<rscale>  0 0.27570200E+03</rscale>
<asrwt>0</asrwt>
<pdfrwt beam="1">  1        2 0.24212377E+00 0.27570200E+03</pdfrwt>
<pdfrwt beam="2">  1       -2 0.18576150E-02 0.27570200E+03</pdfrwt>
<totfact> 0.10740107E+04</totfact>
</mgrwt>
</event>
<event>
 5    1  0.1100736E+001  0.2747612E+03  0.7818608E-02  0.1098585E+00
         -1   -1    0    0    0  501 -0.00000000000E+00  0.00000000000E+00  0.16505916954E+03  0.16505916954E+03  0.00000000000E+00 0. -1.
          1   -1    0    0  501    0  0.00000000000E+00 -0.00000000000E+00 -0.11434337963E+03  0.11434337963E+03  0.00000000000E+00 0. -1.
         35    2    1    2    0    0  0.00000000000E+00  0.00000000000E+00  0.50715789915E+02  0.27940254917E+03  0.27476115652E+03 0.  0.
         25    1    3    3    0    0 -0.44593499236E+02  0.46906335221E+02  0.82016555613E+01  0.13658715757E+03  0.12000000000E+03 0.  0.
         25    1    3    3    0    0  0.44593499236E+02 -0.46906335221E+02  0.42514134354E+02  0.14281539160E+03  0.12000000000E+03 0.  0.
<mgrwt>
<rscale>  0 0.27476116E+03</rscale>
<asrwt>0</asrwt>
<pdfrwt beam="1">  1        1 0.17591289E-01 0.27476116E+03</pdfrwt>
<pdfrwt beam="2">  1       -1 0.25393718E-01 0.27476116E+03</pdfrwt>
<totfact> 0.40717971E+03</totfact>
</mgrwt>
</event>
<event>
 5    1  0.1100736E+001  0.2749959E+03  0.7818608E-02  0.1098454E+00
         -1   -1    0    0    0  501 -0.00000000000E+00  0.00000000000E+00  0.11740972309E+03  0.11740972309E+03  0.00000000000E+00 0.  1.
          1   -1    0    0  501    0  0.00000000000E+00 -0.00000000000E+00 -0.16102322717E+03  0.16102322717E+03  0.00000000000E+00 0.  1.
         35    2    1    2    0    0  0.00000000000E+00  0.00000000000E+00 -0.43613504080E+02  0.27843295027E+03  0.27499594553E+03 0.  0.
         25    1    3    3    0    0  0.10425559142E+02 -0.65872017911E+02 -0.14103942279E+02  0.13800991347E+03  0.12000000000E+03 0.  0.
         25    1    3    3    0    0 -0.10425559142E+02  0.65872017911E+02 -0.29509561801E+02  0.14042303680E+03  0.12000000000E+03 0.  0.
<mgrwt>
<rscale>  0 0.27499595E+03</rscale>
<asrwt>0</asrwt>
<pdfrwt beam="1">  1        1 0.24772804E-01 0.27499595E+03</pdfrwt>
<pdfrwt beam="2">  1       -1 0.18063034E-01 0.27499595E+03</pdfrwt>
<totfact> 0.45797516E+03</totfact>
</mgrwt>
</event>
<event>
 5    1  0.1100736E+001  0.2705300E+03  0.7818608E-02  0.1100977E+00
          4   -1    0    0  501    0  0.00000000000E+00  0.00000000000E+00  0.86444038796E+02  0.86444038796E+02  0.00000000000E+00 0. -1.
         -4   -1    0    0    0  501 -0.00000000000E+00 -0.00000000000E+00 -0.21165851840E+03  0.21165851840E+03  0.00000000000E+00 0. -1.
         35    2    1    2    0    0  0.00000000000E+00  0.00000000000E+00 -0.12521447961E+03  0.29810255720E+03  0.27052997746E+03 0.  0.
         25    1    3    3    0    0  0.11174648998E+02 -0.29357541965E+02 -0.12204846873E+03  0.17401886901E+03  0.12000000000E+03 0.  0.
         25    1    3    3    0    0 -0.11174648998E+02  0.29357541965E+02 -0.31660108740E+01  0.12408368819E+03  0.12000000000E+03 0.  0.
<mgrwt>
<rscale>  0 0.27052998E+03</rscale>
<asrwt>0</asrwt>
<pdfrwt beam="1">  1        4 0.13299083E-01 0.27052998E+03</pdfrwt>
<pdfrwt beam="2">  1       -4 0.32562849E-01 0.27052998E+03</pdfrwt>
<totfact> 0.79108897E+02</totfact>
</mgrwt>
</event>
<event>
 5    1  0.1100736E+001  0.2759757E+03  0.7818608E-02  0.1097907E+00
         -1   -1    0    0    0  501 -0.00000000000E+00  0.00000000000E+00  0.12661365656E+02  0.12661365656E+02  0.00000000000E+00 0.  1.
          1   -1    0    0  501    0  0.00000000000E+00 -0.00000000000E+00 -0.15038380463E+04  0.15038380463E+04  0.00000000000E+00 0.  1.
         35    2    1    2    0    0  0.00000000000E+00  0.00000000000E+00 -0.14911766807E+04  0.15164994120E+04  0.27597567568E+03 0.  0.
         25    1    3    3    0    0 -0.66822395689E+02 -0.13151125590E+02 -0.75420474556E+03  0.76672223321E+03  0.12000000000E+03 0.  0.
         25    1    3    3    0    0  0.66822395689E+02  0.13151125590E+02 -0.73697193511E+03  0.74977717878E+03  0.12000000000E+03 0.  0.
<mgrwt>
<rscale>  0 0.27597568E+03</rscale>
<asrwt>0</asrwt>
<pdfrwt beam="1">  1        1 0.23135965E+00 0.27597568E+03</pdfrwt>
<pdfrwt beam="2">  1       -1 0.19479028E-02 0.27597568E+03</pdfrwt>
<totfact> 0.50708223E+03</totfact>
</mgrwt>
</event>
<event>
 5    1  0.1100736E+001  0.2754356E+03  0.7818608E-02  0.1098208E+00
          1   -1    0    0  501    0  0.00000000000E+00  0.00000000000E+00  0.35808458852E+03  0.35808458852E+03  0.00000000000E+00 0. -1.
         -1   -1    0    0    0  501 -0.00000000000E+00 -0.00000000000E+00 -0.52965682825E+02  0.52965682825E+02  0.00000000000E+00 0. -1.
         35    2    1    2    0    0  0.00000000000E+00  0.00000000000E+00  0.30511890570E+03  0.41105027135E+03  0.27543561673E+03 0.  0.
         25    1    3    3    0    0 -0.49919718095E+01  0.18511932485E+02  0.24925939818E+03  0.27730463214E+03  0.12000000000E+03 0.  0.
         25    1    3    3    0    0  0.49919718095E+01 -0.18511932485E+02  0.55859507522E+02  0.13374563921E+03  0.12000000000E+03 0.  0.
<mgrwt>
<rscale>  0 0.27543562E+03</rscale>
<asrwt>0</asrwt>
<pdfrwt beam="1">  1        1 0.55089935E-01 0.27543562E+03</pdfrwt>
<pdfrwt beam="2">  1       -1 0.81485668E-02 0.27543562E+03</pdfrwt>
<totfact> 0.58140296E+03</totfact>
</mgrwt>
</event>
<event>
 5    1  0.1100736E+001  0.2752835E+03  0.7818608E-02  0.1098293E+00
          2   -1    0    0  501    0  0.00000000000E+00  0.00000000000E+00  0.27821119313E+04  0.27821119313E+04  0.00000000000E+00 0. -1.
         -2   -1    0    0    0  501 -0.00000000000E+00 -0.00000000000E+00 -0.68096646433E+01  0.68096646433E+01  0.00000000000E+00 0. -1.
         35    2    1    2    0    0  0.00000000000E+00  0.00000000000E+00  0.27753022667E+04  0.27889215960E+04  0.27528348481E+03 0.  0.
         25    1    3    3    0    0 -0.59018498574E+02 -0.21049272660E+02  0.16397085248E+04  0.16452873005E+04  0.12000000000E+03 0.  0.
         25    1    3    3    0    0  0.59018498574E+02  0.21049272660E+02  0.11355937419E+04  0.11436342954E+04  0.12000000000E+03 0.  0.
<mgrwt>
<rscale>  0 0.27528348E+03</rscale>
<asrwt>0</asrwt>
<pdfrwt beam="1">  1        2 0.42801631E+00 0.27528348E+03</pdfrwt>
<pdfrwt beam="2">  1       -2 0.10476429E-02 0.27528348E+03</pdfrwt>
<totfact> 0.55580246E+03</totfact>
</mgrwt>
</event>
<event>
 5    1  0.1100736E+001  0.2754888E+03  0.7818608E-02  0.1098179E+00
         -1   -1    0    0    0  501 -0.00000000000E+00  0.00000000000E+00  0.62506825946E+02  0.62506825946E+02  0.00000000000E+00 0. -1.
          1   -1    0    0  501    0  0.00000000000E+00 -0.00000000000E+00 -0.30354311668E+03  0.30354311668E+03  0.00000000000E+00 0. -1.
         35    2    1    2    0    0  0.00000000000E+00  0.00000000000E+00 -0.24103629074E+03  0.36604994263E+03  0.27548877844E+03 0.  0.
         25    1    3    3    0    0 -0.53313196418E+02  0.87796557453E+01 -0.66477287725E+02  0.14744018804E+03  0.12000000000E+03 0.  0.
         25    1    3    3    0    0  0.53313196418E+02 -0.87796557453E+01 -0.17455900301E+03  0.21860975459E+03  0.12000000000E+03 0.  0.
<mgrwt>
<rscale>  0 0.27548878E+03</rscale>
<asrwt>0</asrwt>
<pdfrwt beam="1">  1        1 0.46698940E-01 0.27548878E+03</pdfrwt>
<pdfrwt beam="2">  1       -1 0.96164349E-02 0.27548878E+03</pdfrwt>
<totfact> 0.55554555E+03</totfact>
</mgrwt>
</event>
<event>
 5    1  0.1100736E+001  0.2752743E+03  0.7818608E-02  0.1098298E+00
          2   -1    0    0  501    0  0.00000000000E+00  0.00000000000E+00  0.68983349150E+03  0.68983349150E+03  0.00000000000E+00 0. -1.
         -2   -1    0    0    0  501 -0.00000000000E+00 -0.00000000000E+00 -0.27461686697E+02  0.27461686697E+02  0.00000000000E+00 0. -1.
         35    2    1    2    0    0  0.00000000000E+00  0.00000000000E+00  0.66237180480E+03  0.71729517819E+03  0.27527434473E+03 0.  0.
         25    1    3    3    0    0 -0.27475563209E+02  0.59561504656E+02  0.37168089804E+03  0.39604187832E+03  0.12000000000E+03 0.  0.
         25    1    3    3    0    0  0.27475563209E+02 -0.59561504656E+02  0.29069090676E+03  0.32125329988E+03  0.12000000000E+03 0.  0.
<mgrwt>
<rscale>  0 0.27527434E+03</rscale>
<asrwt>0</asrwt>
<pdfrwt beam="1">  1        2 0.10612822E+00 0.27527434E+03</pdfrwt>
<pdfrwt beam="2">  1       -2 0.42248754E-02 0.27527434E+03</pdfrwt>
<totfact> 0.10759579E+04</totfact>
</mgrwt>
</event>
<event>
 5    1  0.1100736E+001  0.2765236E+03  0.7818608E-02  0.1097603E+00
         -1   -1    0    0    0  501 -0.00000000000E+00  0.00000000000E+00  0.71730096057E+02  0.71730096057E+02  0.00000000000E+00 0. -1.
          1   -1    0    0  501    0  0.00000000000E+00 -0.00000000000E+00 -0.26650357505E+03  0.26650357505E+03  0.00000000000E+00 0. -1.
         35    2    1    2    0    0  0.00000000000E+00  0.00000000000E+00 -0.19477347900E+03  0.33823367111E+03  0.27652361229E+03 0.  0.
         25    1    3    3    0    0  0.62435266956E+02 -0.26676953103E+02 -0.84763555718E+02  0.16184771473E+03  0.12000000000E+03 0.  0.
         25    1    3    3    0    0 -0.62435266956E+02  0.26676953103E+02 -0.11000992328E+03  0.17638595637E+03  0.12000000000E+03 0.  0.
<mgrwt>
<rscale>  0 0.27652361E+03</rscale>
<asrwt>0</asrwt>
<pdfrwt beam="1">  1        1 0.41000550E-01 0.27652361E+03</pdfrwt>
<pdfrwt beam="2">  1       -1 0.11035399E-01 0.27652361E+03</pdfrwt>
<totfact> 0.52871288E+03</totfact>
</mgrwt>
</event>
<event>
 5    1  0.1100736E+001  0.2750504E+03  0.7818608E-02  0.1098423E+00
          2   -1    0    0  501    0  0.00000000000E+00  0.00000000000E+00  0.98851847644E+03  0.98851847644E+03  0.00000000000E+00 0. -1.
         -2   -1    0    0    0  501 -0.00000000000E+00 -0.00000000000E+00 -0.19132857947E+02  0.19132857947E+02  0.00000000000E+00 0. -1.
         35    2    1    2    0    0  0.00000000000E+00  0.00000000000E+00  0.96938561849E+03  0.10076513344E+04  0.27505042147E+03 0.  0.
         25    1    3    3    0    0  0.52657857327E+02 -0.15569667089E+02  0.34290393603E+03  0.36742124845E+03  0.12000000000E+03 0.  0.
         25    1    3    3    0    0 -0.52657857327E+02  0.15569667089E+02  0.62648168247E+03  0.64023008594E+03  0.12000000000E+03 0.  0.
<mgrwt>
<rscale>  0 0.27505042E+03</rscale>
<asrwt>0</asrwt>
<pdfrwt beam="1">  1        2 0.15207973E+00 0.27505042E+03</pdfrwt>
<pdfrwt beam="2">  1       -2 0.29435174E-02 0.27505042E+03</pdfrwt>
<totfact> 0.11600868E+04</totfact>
</mgrwt>
</event>
<event>
 5    1  0.1100736E+001  0.2773981E+03  0.7818608E-02  0.1097119E+00
         -3   -1    0    0    0  501 -0.00000000000E+00  0.00000000000E+00  0.66252952966E+03  0.66252952966E+03  0.00000000000E+00 0. -1.
          3   -1    0    0  501    0  0.00000000000E+00 -0.00000000000E+00 -0.29036325130E+02  0.29036325130E+02  0.00000000000E+00 0. -1.
         35    2    1    2    0    0  0.00000000000E+00  0.00000000000E+00  0.63349320453E+03  0.69156585479E+03  0.27739807376E+03 0.  0.
         25    1    3    3    0    0  0.39853298432E+02 -0.46972295858E+02  0.39725075742E+03  0.41952693149E+03  0.12000000000E+03 0.  0.
         25    1    3    3    0    0 -0.39853298432E+02  0.46972295858E+02  0.23624244710E+03  0.27203892330E+03  0.12000000000E+03 0.  0.
<mgrwt>
<rscale>  0 0.27739807E+03</rscale>
<asrwt>0</asrwt>
<pdfrwt beam="1">  1        3 0.44671275E-02 0.27739807E+03</pdfrwt>
<pdfrwt beam="2">  1       -3 0.10192761E+00 0.27739807E+03</pdfrwt>
<totfact> 0.59977451E+02</totfact>
</mgrwt>
</event>
<event>
 5    1  0.1100736E+001  0.2747426E+03  0.7818608E-02  0.1098596E+00
         -2   -1    0    0    0  501 -0.00000000000E+00  0.00000000000E+00  0.10101098842E+02  0.10101098842E+02  0.00000000000E+00 0. -1.
          2   -1    0    0  501    0  0.00000000000E+00 -0.00000000000E+00 -0.18681996733E+04  0.18681996733E+04  0.00000000000E+00 0. -1.
         35    2    1    2    0    0  0.00000000000E+00  0.00000000000E+00 -0.18580985745E+04  0.18783007721E+04  0.27474256719E+03 0.  0.
         25    1    3    3    0    0  0.20215411067E+02 -0.52907658721E+02 -0.11720113775E+04  0.11794992803E+04  0.12000000000E+03 0.  0.
         25    1    3    3    0    0 -0.20215411067E+02  0.52907658721E+02 -0.68608719693E+03  0.69880149184E+03  0.12000000000E+03 0.  0.
<mgrwt>
<rscale>  0 0.27474257E+03</rscale>
<asrwt>0</asrwt>
<pdfrwt beam="1">  1        2 0.28741505E+00 0.27474257E+03</pdfrwt>
<pdfrwt beam="2">  1       -2 0.15540167E-02 0.27474257E+03</pdfrwt>
<totfact> 0.97618776E+03</totfact>
</mgrwt>
</event>
<event>
 5    1  0.1100736E+001  0.2726446E+03  0.7818608E-02  0.1099776E+00
          1   -1    0    0  501    0  0.00000000000E+00  0.00000000000E+00  0.89852060876E+03  0.89852060876E+03  0.00000000000E+00 0. -1.
         -1   -1    0    0    0  501 -0.00000000000E+00 -0.00000000000E+00 -0.20682629347E+02  0.20682629347E+02  0.00000000000E+00 0. -1.
         35    2    1    2    0    0  0.00000000000E+00  0.00000000000E+00  0.87783797941E+03  0.91920323811E+03  0.27264459438E+03 0.  0.
         25    1    3    3    0    0  0.38878363774E+02 -0.17675579426E+02  0.27514170271E+03  0.30319450828E+03  0.12000000000E+03 0.  0.
         25    1    3    3    0    0 -0.38878363774E+02  0.17675579426E+02  0.60269627670E+03  0.61600872983E+03  0.12000000000E+03 0.  0.
<mgrwt>
<rscale>  0 0.27264459E+03</rscale>
<asrwt>0</asrwt>
<pdfrwt beam="1">  1        1 0.13823391E+00 0.27264459E+03</pdfrwt>
<pdfrwt beam="2">  1       -1 0.31819437E-02 0.27264459E+03</pdfrwt>
<totfact> 0.66094085E+03</totfact>
</mgrwt>
</event>
<event>
 5    1  0.1100736E+001  0.2754011E+03  0.7818608E-02  0.1098228E+00
         -2   -1    0    0    0  501 -0.00000000000E+00  0.00000000000E+00  0.13575400394E+02  0.13575400394E+02  0.00000000000E+00 0. -1.
          2   -1    0    0  501    0  0.00000000000E+00 -0.00000000000E+00 -0.13967504393E+04  0.13967504393E+04  0.00000000000E+00 0. -1.
         35    2    1    2    0    0  0.00000000000E+00  0.00000000000E+00 -0.13831750389E+04  0.14103258397E+04  0.27540113626E+03 0.  0.
         25    1    3    3    0    0  0.61265545198E+02 -0.21262810450E+02 -0.59498224375E+03  0.61041743464E+03  0.12000000000E+03 0.  0.
         25    1    3    3    0    0 -0.61265545198E+02  0.21262810450E+02 -0.78819279518E+03  0.79990840507E+03  0.12000000000E+03 0.  0.
<mgrwt>
<rscale>  0 0.27540114E+03</rscale>
<asrwt>0</asrwt>
<pdfrwt beam="1">  1        2 0.21488463E+00 0.27540114E+03</pdfrwt>
<pdfrwt beam="2">  1       -2 0.20885237E-02 0.27540114E+03</pdfrwt>
<totfact> 0.11250484E+04</totfact>
</mgrwt>
</event>
<event>
 5    1  0.1100736E+001  0.2754268E+03  0.7818608E-02  0.1098213E+00
         -1   -1    0    0    0  501 -0.00000000000E+00  0.00000000000E+00  0.13134662113E+02  0.13134662113E+02  0.00000000000E+00 0. -1.
          1   -1    0    0  501    0  0.00000000000E+00 -0.00000000000E+00 -0.14438880898E+04  0.14438880898E+04  0.00000000000E+00 0. -1.
         35    2    1    2    0    0  0.00000000000E+00  0.00000000000E+00 -0.14307534277E+04  0.14570227519E+04  0.27542681197E+03 0.  0.
         25    1    3    3    0    0 -0.10703312939E+02 -0.23818639561E+02 -0.38572977071E+03  0.40480778712E+03  0.12000000000E+03 0.  0.
         25    1    3    3    0    0  0.10703312939E+02  0.23818639561E+02 -0.10450236570E+04  0.10522149648E+04  0.12000000000E+03 0.  0.
<mgrwt>
<rscale>  0 0.27542681E+03</rscale>
<asrwt>0</asrwt>
<pdfrwt beam="1">  1        1 0.22213655E+00 0.27542681E+03</pdfrwt>
<pdfrwt beam="2">  1       -1 0.20207180E-02 0.27542681E+03</pdfrwt>
<totfact> 0.52679166E+03</totfact>
</mgrwt>
</event>
<event>
 5    1  0.1100736E+001  0.2751684E+03  0.7818608E-02  0.1098357E+00
         -2   -1    0    0    0  501 -0.00000000000E+00  0.00000000000E+00  0.10142234432E+02  0.10142234432E+02  0.00000000000E+00 0.  1.
          2   -1    0    0  501    0  0.00000000000E+00 -0.00000000000E+00 -0.18663947547E+04  0.18663947547E+04  0.00000000000E+00 0.  1.
         35    2    1    2    0    0  0.00000000000E+00  0.00000000000E+00 -0.18562525202E+04  0.18765369891E+04  0.27516840767E+03 0.  0.
         25    1    3    3    0    0  0.17125326230E+02  0.63565810352E+02 -0.10234846056E+04  0.10325960619E+04  0.12000000000E+03 0.  0.
         25    1    3    3    0    0 -0.17125326230E+02 -0.63565810352E+02 -0.83276791459E+03  0.84394092720E+03  0.12000000000E+03 0.  0.
<mgrwt>
<rscale>  0 0.27516841E+03</rscale>
<asrwt>0</asrwt>
<pdfrwt beam="1">  1        2 0.28713799E+00 0.27516841E+03</pdfrwt>
<pdfrwt beam="2">  1       -2 0.15603419E-02 0.27516841E+03</pdfrwt>
<totfact> 0.97253368E+03</totfact>
</mgrwt>
</event>
<event>
 5    1  0.1100736E+001  0.2746376E+03  0.7818608E-02  0.1098654E+00
         -1   -1    0    0    0  501 -0.00000000000E+00  0.00000000000E+00  0.13081529097E+03  0.13081529097E+03  0.00000000000E+00 0. -1.
          1   -1    0    0  501    0  0.00000000000E+00 -0.00000000000E+00 -0.14414566237E+03  0.14414566237E+03  0.00000000000E+00 0. -1.
         35    2    1    2    0    0  0.00000000000E+00  0.00000000000E+00 -0.13330371392E+02  0.27496095334E+03  0.27463762863E+03 0.  0.
         25    1    3    3    0    0  0.52468020060E+02  0.77730024083E+01  0.33918249599E+02  0.13551295271E+03  0.12000000000E+03 0.  0.
         25    1    3    3    0    0 -0.52468020060E+02 -0.77730024083E+01 -0.47248620990E+02  0.13944800063E+03  0.12000000000E+03 0.  0.
<mgrwt>
<rscale>  0 0.27463763E+03</rscale>
<asrwt>0</asrwt>
<pdfrwt beam="1">  1        1 0.22176256E-01 0.27463763E+03</pdfrwt>
<pdfrwt beam="2">  1       -1 0.20125429E-01 0.27463763E+03</pdfrwt>
<totfact> 0.44282925E+03</totfact>
</mgrwt>
</event>
<event>
 5    1  0.1100736E+001  0.2750779E+03  0.7818608E-02  0.1098408E+00
          1   -1    0    0  501    0  0.00000000000E+00  0.00000000000E+00  0.13984660839E+03  0.13984660839E+03  0.00000000000E+00 0.  1.
         -1   -1    0    0    0  501 -0.00000000000E+00 -0.00000000000E+00 -0.13526941764E+03  0.13526941764E+03  0.00000000000E+00 0.  1.
         35    2    1    2    0    0  0.00000000000E+00  0.00000000000E+00  0.45771907541E+01  0.27511602603E+03  0.27507794732E+03 0.  0.
         25    1    3    3    0    0  0.15947394724E+02  0.32001827925E+02 -0.54627391489E+02  0.13661108407E+03  0.12000000000E+03 0.  0.
         25    1    3    3    0    0 -0.15947394724E+02 -0.32001827925E+02  0.59204582243E+02  0.13850494196E+03  0.12000000000E+03 0.  0.
<mgrwt>
<rscale>  0 0.27507795E+03</rscale>
<asrwt>0</asrwt>
<pdfrwt beam="1">  1        1 0.21514863E-01 0.27507795E+03</pdfrwt>
<pdfrwt beam="2">  1       -1 0.20810680E-01 0.27507795E+03</pdfrwt>
<totfact> 0.43593656E+03</totfact>
</mgrwt>
</event>
<event>
 5    1  0.1100736E+001  0.2750447E+03  0.7818608E-02  0.1098427E+00
          1   -1    0    0  501    0  0.00000000000E+00  0.00000000000E+00  0.11434170872E+04  0.11434170872E+04  0.00000000000E+00 0. -1.
         -1   -1    0    0    0  501 -0.00000000000E+00 -0.00000000000E+00 -0.16540249035E+02  0.16540249035E+02  0.00000000000E+00 0. -1.
         35    2    1    2    0    0  0.00000000000E+00  0.00000000000E+00  0.11268768382E+04  0.11599573362E+04  0.27504474816E+03 0.  0.
         25    1    3    3    0    0 -0.79747856876E+01 -0.26429896149E+02  0.82170590756E+03  0.83088069849E+03  0.12000000000E+03 0.  0.
         25    1    3    3    0    0  0.79747856876E+01  0.26429896149E+02  0.30517093060E+03  0.32907663773E+03  0.12000000000E+03 0.  0.
<mgrwt>
<rscale>  0 0.27504475E+03</rscale>
<asrwt>0</asrwt>
<pdfrwt beam="1">  1        1 0.17591026E+00 0.27504475E+03</pdfrwt>
<pdfrwt beam="2">  1       -1 0.25446546E-02 0.27504475E+03</pdfrwt>
<totfact> 0.60396798E+03</totfact>
</mgrwt>
</event>
<event>
 5    1  0.1100736E+001  0.2750096E+03  0.7818608E-02  0.1098446E+00
         -3   -1    0    0    0  501 -0.00000000000E+00  0.00000000000E+00  0.21679011113E+03  0.21679011113E+03  0.00000000000E+00 0. -1.
          3   -1    0    0  501    0  0.00000000000E+00 -0.00000000000E+00 -0.87215997352E+02  0.87215997352E+02  0.00000000000E+00 0. -1.
         35    2    1    2    0    0  0.00000000000E+00  0.00000000000E+00  0.12957411378E+03  0.30400610848E+03  0.27500956899E+03 0.  0.
         25    1    3    3    0    0 -0.13822449020E+02  0.65625910724E+02  0.61336123031E+02  0.15053219006E+03  0.12000000000E+03 0.  0.
         25    1    3    3    0    0  0.13822449020E+02 -0.65625910724E+02  0.68237990747E+02  0.15347391842E+03  0.12000000000E+03 0.  0.
<mgrwt>
<rscale>  0 0.27500957E+03</rscale>
<asrwt>0</asrwt>
<pdfrwt beam="1">  1        3 0.13417846E-01 0.27500957E+03</pdfrwt>
<pdfrwt beam="2">  1       -3 0.33352325E-01 0.27500957E+03</pdfrwt>
<totfact> 0.10056138E+03</totfact>
</mgrwt>
</event>
<event>
 5    1  0.1100736E+001  0.2754411E+03  0.7818608E-02  0.1098205E+00
          1   -1    0    0  501    0  0.00000000000E+00  0.00000000000E+00  0.22966998494E+04  0.22966998494E+04  0.00000000000E+00 0.  1.
         -1   -1    0    0    0  501 -0.00000000000E+00 -0.00000000000E+00 -0.82583475105E+01  0.82583475105E+01  0.00000000000E+00 0.  1.
         35    2    1    2    0    0  0.00000000000E+00  0.00000000000E+00  0.22884415019E+04  0.23049581969E+04  0.27544106799E+03 0.  0.
         25    1    3    3    0    0  0.93089046773E+01 -0.61328331679E+02  0.13686279100E+04  0.13752782176E+04  0.12000000000E+03 0.  0.
         25    1    3    3    0    0 -0.93089046773E+01  0.61328331679E+02  0.91981359195E+03  0.92967997930E+03  0.12000000000E+03 0.  0.
<mgrwt>
<rscale>  0 0.27544107E+03</rscale>
<asrwt>0</asrwt>
<pdfrwt beam="1">  1        1 0.35333793E+00 0.27544107E+03</pdfrwt>
<pdfrwt beam="2">  1       -1 0.12705168E-02 0.27544107E+03</pdfrwt>
<totfact> 0.28712422E+03</totfact>
</mgrwt>
</event>
<event>
 5    1  0.1100736E+001  0.2741997E+03  0.7818608E-02  0.1098900E+00
          2   -1    0    0  501    0  0.00000000000E+00  0.00000000000E+00  0.46938610071E+03  0.46938610071E+03  0.00000000000E+00 0. -1.
         -2   -1    0    0    0  501 -0.00000000000E+00 -0.00000000000E+00 -0.40044577087E+02  0.40044577087E+02  0.00000000000E+00 0. -1.
         35    2    1    2    0    0  0.00000000000E+00  0.00000000000E+00  0.42934152363E+03  0.50943067780E+03  0.27419969288E+03 0.  0.
         25    1    3    3    0    0 -0.14380134365E+02  0.63987920115E+02  0.23279113272E+03  0.26998695091E+03  0.12000000000E+03 0.  0.
         25    1    3    3    0    0  0.14380134365E+02 -0.63987920115E+02  0.19655039090E+03  0.23944372689E+03  0.12000000000E+03 0.  0.
<mgrwt>
<rscale>  0 0.27419969E+03</rscale>
<asrwt>0</asrwt>
<pdfrwt beam="1">  1        2 0.72213242E-01 0.27419969E+03</pdfrwt>
<pdfrwt beam="2">  1       -2 0.61607045E-02 0.27419969E+03</pdfrwt>
<totfact> 0.94386187E+03</totfact>
</mgrwt>
</event>
<event>
 5    1  0.1100736E+001  0.2748405E+03  0.7818608E-02  0.1098541E+00
         -1   -1    0    0    0  501 -0.00000000000E+00  0.00000000000E+00  0.25447265947E+02  0.25447265947E+02  0.00000000000E+00 0. -1.
          1   -1    0    0  501    0  0.00000000000E+00 -0.00000000000E+00 -0.74209649527E+03  0.74209649527E+03  0.00000000000E+00 0. -1.
         35    2    1    2    0    0  0.00000000000E+00  0.00000000000E+00 -0.71664922932E+03  0.76754376121E+03  0.27484051283E+03 0.  0.
         25    1    3    3    0    0  0.34299590008E+01  0.54162500210E+02 -0.46788150726E+03  0.48606424049E+03  0.12000000000E+03 0.  0.
         25    1    3    3    0    0 -0.34299590008E+01 -0.54162500210E+02 -0.24876772206E+03  0.28147952072E+03  0.12000000000E+03 0.  0.
<mgrwt>
<rscale>  0 0.27484051E+03</rscale>
<asrwt>0</asrwt>
<pdfrwt beam="1">  1        1 0.11416868E+00 0.27484051E+03</pdfrwt>
<pdfrwt beam="2">  1       -1 0.39149644E-02 0.27484051E+03</pdfrwt>
<totfact> 0.65470818E+03</totfact>
</mgrwt>
</event>
<event>
 5    1  0.1100736E+001  0.2744733E+03  0.7818608E-02  0.1098746E+00
         -2   -1    0    0    0  501 -0.00000000000E+00  0.00000000000E+00  0.21198249094E+02  0.21198249094E+02  0.00000000000E+00 0.  1.
          2   -1    0    0  501    0  0.00000000000E+00 -0.00000000000E+00 -0.88846474881E+03  0.88846474881E+03  0.00000000000E+00 0.  1.
         35    2    1    2    0    0  0.00000000000E+00  0.00000000000E+00 -0.86726649971E+03  0.90966299790E+03  0.27447329237E+03 0.  0.
         25    1    3    3    0    0  0.32123838789E+02 -0.34128582576E+02 -0.59039223525E+03  0.60428444677E+03  0.12000000000E+03 0.  0.
         25    1    3    3    0    0 -0.32123838789E+02  0.34128582576E+02 -0.27687426447E+03  0.30537855113E+03  0.12000000000E+03 0.  0.
<mgrwt>
<rscale>  0 0.27447329E+03</rscale>
<asrwt>0</asrwt>
<pdfrwt beam="1">  1        2 0.13668687E+00 0.27447329E+03</pdfrwt>
<pdfrwt beam="2">  1       -2 0.32612695E-02 0.27447329E+03</pdfrwt>
<totfact> 0.11518618E+04</totfact>
</mgrwt>
</event>
<event>
 5    1  0.1100736E+001  0.2704821E+03  0.7818608E-02  0.1101004E+00
          2   -1    0    0  501    0  0.00000000000E+00  0.00000000000E+00  0.19347036305E+04  0.19347036305E+04  0.00000000000E+00 0. -1.
         -2   -1    0    0    0  501 -0.00000000000E+00 -0.00000000000E+00 -0.94537147444E+01  0.94537147444E+01  0.00000000000E+00 0. -1.
         35    2    1    2    0    0  0.00000000000E+00  0.00000000000E+00  0.19252499157E+04  0.19441573452E+04  0.27048206031E+03 0.  0.
         25    1    3    3    0    0  0.46783784923E+01 -0.20860675189E+02  0.54147672269E+03  0.55502621218E+03  0.12000000000E+03 0.  0.
         25    1    3    3    0    0 -0.46783784923E+01  0.20860675189E+02  0.13837731931E+04  0.13891311331E+04  0.12000000000E+03 0.  0.
<mgrwt>
<rscale>  0 0.27048206E+03</rscale>
<asrwt>0</asrwt>
<pdfrwt beam="1">  1        2 0.29764640E+00 0.27048206E+03</pdfrwt>
<pdfrwt beam="2">  1       -2 0.14544192E-02 0.27048206E+03</pdfrwt>
<totfact> 0.99224511E+03</totfact>
</mgrwt>
</event>
<event>
 5    1  0.1100736E+001  0.2744320E+03  0.7818608E-02  0.1098770E+00
          2   -1    0    0  501    0  0.00000000000E+00  0.00000000000E+00  0.11487753428E+04  0.11487753428E+04  0.00000000000E+00 0.  1.
         -2   -1    0    0    0  501 -0.00000000000E+00 -0.00000000000E+00 -0.16389825073E+02  0.16389825073E+02  0.00000000000E+00 0.  1.
         35    2    1    2    0    0  0.00000000000E+00  0.00000000000E+00  0.11323855178E+04  0.11651651679E+04  0.27443197275E+03 0.  0.
         25    1    3    3    0    0  0.13542818436E+02  0.59355852993E+02  0.68025230792E+03  0.69343328998E+03  0.12000000000E+03 0.  0.
         25    1    3    3    0    0 -0.13542818436E+02 -0.59355852993E+02  0.45213320983E+03  0.47173187792E+03  0.12000000000E+03 0.  0.
<mgrwt>
<rscale>  0 0.27443197E+03</rscale>
<asrwt>0</asrwt>
<pdfrwt beam="1">  1        2 0.17673461E+00 0.27443197E+03</pdfrwt>
<pdfrwt beam="2">  1       -2 0.25215124E-02 0.27443197E+03</pdfrwt>
<totfact> 0.11716010E+04</totfact>
</mgrwt>
</event>
<event>
 5    1  0.1100736E+001  0.2752044E+03  0.7818608E-02  0.1098337E+00
         -2   -1    0    0    0  501 -0.00000000000E+00  0.00000000000E+00  0.20207745549E+02  0.20207745549E+02  0.00000000000E+00 0. -1.
          2   -1    0    0  501    0  0.00000000000E+00 -0.00000000000E+00 -0.93698571519E+03  0.93698571519E+03  0.00000000000E+00 0. -1.
         35    2    1    2    0    0  0.00000000000E+00  0.00000000000E+00 -0.91677796964E+03  0.95719346074E+03  0.27520442522E+03 0.  0.
         25    1    3    3    0    0 -0.14938068882E+02 -0.10485987157E+02 -0.23294717829E+03  0.26267373242E+03  0.12000000000E+03 0.  0.
         25    1    3    3    0    0  0.14938068882E+02  0.10485987157E+02 -0.68383079135E+03  0.69451972832E+03  0.12000000000E+03 0.  0.
<mgrwt>
<rscale>  0 0.27520443E+03</rscale>
<asrwt>0</asrwt>
<pdfrwt beam="1">  1        2 0.14415164E+00 0.27520443E+03</pdfrwt>
<pdfrwt beam="2">  1       -2 0.31088840E-02 0.27520443E+03</pdfrwt>
<totfact> 0.11516364E+04</totfact>
</mgrwt>
</event>
<event>
 5    1  0.1100736E+001  0.2753338E+03  0.7818608E-02  0.1098265E+00
         -1   -1    0    0    0  501 -0.00000000000E+00  0.00000000000E+00  0.14901696665E+03  0.14901696665E+03  0.00000000000E+00 0. -1.
          1   -1    0    0  501    0  0.00000000000E+00 -0.00000000000E+00 -0.12718132362E+03  0.12718132362E+03  0.00000000000E+00 0. -1.
         35    2    1    2    0    0  0.00000000000E+00  0.00000000000E+00  0.21835643022E+02  0.27619829027E+03  0.27533379786E+03 0.  0.
         25    1    3    3    0    0  0.43604933068E+02  0.43007995365E+02 -0.17474706931E+02  0.13585449288E+03  0.12000000000E+03 0.  0.
         25    1    3    3    0    0 -0.43604933068E+02 -0.43007995365E+02  0.39310349953E+02  0.14034379739E+03  0.12000000000E+03 0.  0.
<mgrwt>
<rscale>  0 0.27533380E+03</rscale>
<asrwt>0</asrwt>
<pdfrwt beam="1">  1        1 0.19566357E-01 0.27533380E+03</pdfrwt>
<pdfrwt beam="2">  1       -1 0.22925687E-01 0.27533380E+03</pdfrwt>
<totfact> 0.42029296E+03</totfact>
</mgrwt>
</event>
<event>
 5    1  0.1100736E+001  0.2753825E+03  0.7818608E-02  0.1098238E+00
          1   -1    0    0  501    0  0.00000000000E+00  0.00000000000E+00  0.28805007888E+03  0.28805007888E+03  0.00000000000E+00 0.  1.
         -1   -1    0    0    0  501 -0.00000000000E+00 -0.00000000000E+00 -0.65817983909E+02  0.65817983909E+02  0.00000000000E+00 0.  1.
         35    2    1    2    0    0  0.00000000000E+00  0.00000000000E+00  0.22223209497E+03  0.35386806279E+03  0.27538246463E+03 0.  0.
         25    1    3    3    0    0 -0.26511487713E+02  0.18597030595E+02  0.34983743819E+02  0.12912230969E+03  0.12000000000E+03 0.  0.
         25    1    3    3    0    0  0.26511487713E+02 -0.18597030595E+02  0.18724835115E+03  0.22474575310E+03  0.12000000000E+03 0.  0.
<mgrwt>
<rscale>  0 0.27538246E+03</rscale>
<asrwt>0</asrwt>
<pdfrwt beam="1">  1        1 0.44315396E-01 0.27538246E+03</pdfrwt>
<pdfrwt beam="2">  1       -1 0.10125844E-01 0.27538246E+03</pdfrwt>
<totfact> 0.54789460E+03</totfact>
</mgrwt>
</event>
<event>
 5    1  0.1100736E+001  0.2750576E+03  0.7818608E-02  0.1098419E+00
          1   -1    0    0  501    0  0.00000000000E+00  0.00000000000E+00  0.33545298066E+03  0.33545298066E+03  0.00000000000E+00 0. -1.
         -1   -1    0    0    0  501 -0.00000000000E+00 -0.00000000000E+00 -0.56383985005E+02  0.56383985005E+02  0.00000000000E+00 0. -1.
         35    2    1    2    0    0  0.00000000000E+00  0.00000000000E+00  0.27906899565E+03  0.39183696567E+03  0.27505763637E+03 0.  0.
         25    1    3    3    0    0  0.54981604283E+02 -0.26795229910E+02  0.99922044337E+02  0.16770621962E+03  0.12000000000E+03 0.  0.
         25    1    3    3    0    0 -0.54981604283E+02  0.26795229910E+02  0.17914695132E+03  0.22413074604E+03  0.12000000000E+03 0.  0.
<mgrwt>
<rscale>  0 0.27505764E+03</rscale>
<asrwt>0</asrwt>
<pdfrwt beam="1">  1        1 0.51608150E-01 0.27505764E+03</pdfrwt>
<pdfrwt beam="2">  1       -1 0.86744594E-02 0.27505764E+03</pdfrwt>
<totfact> 0.57385786E+03</totfact>
</mgrwt>
</event>
<event>
 5    1  0.1100736E+001  0.2743369E+03  0.7818608E-02  0.1098823E+00
          1   -1    0    0  501    0  0.00000000000E+00  0.00000000000E+00  0.38536125332E+03  0.38536125332E+03  0.00000000000E+00 0. -1.
         -1   -1    0    0    0  501 -0.00000000000E+00 -0.00000000000E+00 -0.48824779857E+02  0.48824779857E+02  0.00000000000E+00 0. -1.
         35    2    1    2    0    0  0.00000000000E+00  0.00000000000E+00  0.33653647346E+03  0.43418603318E+03  0.27433686124E+03 0.  0.
         25    1    3    3    0    0  0.56585350632E+02  0.34028838147E+02  0.18003919112E+03  0.22621665295E+03  0.12000000000E+03 0.  0.
         25    1    3    3    0    0 -0.56585350632E+02 -0.34028838147E+02  0.15649728234E+03  0.20796938023E+03  0.12000000000E+03 0.  0.
<mgrwt>
<rscale>  0 0.27433686E+03</rscale>
<asrwt>0</asrwt>
<pdfrwt beam="1">  1        1 0.59286345E-01 0.27433686E+03</pdfrwt>
<pdfrwt beam="2">  1       -1 0.75115048E-02 0.27433686E+03</pdfrwt>
<totfact> 0.59944904E+03</totfact>
</mgrwt>
</event>
<event>
 5    1  0.1100736E+001  0.2743916E+03  0.7818608E-02  0.1098792E+00
          1   -1    0    0  501    0  0.00000000000E+00  0.00000000000E+00  0.75774393053E+01  0.75774393053E+01  0.00000000000E+00 0.  1.
         -1   -1    0    0    0  501 -0.00000000000E+00 -0.00000000000E+00 -0.24840432238E+04  0.24840432238E+04  0.00000000000E+00 0.  1.
         35    2    1    2    0    0  0.00000000000E+00  0.00000000000E+00 -0.24764657845E+04  0.24916206631E+04  0.27439159433E+03 0.  0.
         25    1    3    3    0    0 -0.57025034929E+02 -0.12973643458E+02 -0.15257455269E+04  0.15315742172E+04  0.12000000000E+03 0.  0.
         25    1    3    3    0    0  0.57025034929E+02  0.12973643458E+02 -0.95072025758E+03  0.96004644585E+03  0.12000000000E+03 0.  0.
<mgrwt>
<rscale>  0 0.27439159E+03</rscale>
<asrwt>0</asrwt>
<pdfrwt beam="1">  1        1 0.11657582E-02 0.27439159E+03</pdfrwt>
<pdfrwt beam="2">  1       -1 0.38216104E+00 0.27439159E+03</pdfrwt>
<totfact> 0.15019862E+02</totfact>
</mgrwt>
</event>
<event>
 5    1  0.1100736E+001  0.2745483E+03  0.7818608E-02  0.1098704E+00
         -2   -1    0    0    0  501 -0.00000000000E+00  0.00000000000E+00  0.44542874844E+02  0.44542874844E+02  0.00000000000E+00 0.  1.
          2   -1    0    0  501    0  0.00000000000E+00 -0.00000000000E+00 -0.42305734754E+03  0.42305734754E+03  0.00000000000E+00 0.  1.
         35    2    1    2    0    0  0.00000000000E+00  0.00000000000E+00 -0.37851447270E+03  0.46760022238E+03  0.27454828707E+03 0.  0.
         25    1    3    3    0    0 -0.56127783876E+02 -0.17500020104E+02 -0.13573317323E+03  0.19047328721E+03  0.12000000000E+03 0.  0.
         25    1    3    3    0    0  0.56127783876E+02  0.17500020104E+02 -0.24278129947E+03  0.27712693517E+03  0.12000000000E+03 0.  0.
<mgrwt>
<rscale>  0 0.27454829E+03</rscale>
<asrwt>0</asrwt>
<pdfrwt beam="1">  1        2 0.65085744E-01 0.27454829E+03</pdfrwt>
<pdfrwt beam="2">  1       -2 0.68527501E-02 0.27454829E+03</pdfrwt>
<totfact> 0.89803931E+03</totfact>
</mgrwt>
</event>
<event>
 5    1  0.1100736E+001  0.2751359E+03  0.7818608E-02  0.1098376E+00
          2   -1    0    0  501    0  0.00000000000E+00  0.00000000000E+00  0.51772014564E+02  0.51772014564E+02  0.00000000000E+00 0.  1.
         -2   -1    0    0    0  501 -0.00000000000E+00 -0.00000000000E+00 -0.36554377863E+03  0.36554377863E+03  0.00000000000E+00 0.  1.
         35    2    1    2    0    0  0.00000000000E+00  0.00000000000E+00 -0.31377176407E+03  0.41731579320E+03  0.27513587793E+03 0.  0.
         25    1    3    3    0    0 -0.64899590230E+02  0.84895604920E+01 -0.18042789255E+03  0.22635868409E+03  0.12000000000E+03 0.  0.
         25    1    3    3    0    0  0.64899590230E+02 -0.84895604920E+01 -0.13334387151E+03  0.19095710911E+03  0.12000000000E+03 0.  0.
<mgrwt>
<rscale>  0 0.27513588E+03</rscale>
<asrwt>0</asrwt>
<pdfrwt beam="1">  1        2 0.79649253E-02 0.27513588E+03</pdfrwt>
<pdfrwt beam="2">  1       -2 0.56237505E-01 0.27513588E+03</pdfrwt>
<totfact> 0.25781753E+03</totfact>
</mgrwt>
</event>
<event>
 5    1  0.1100736E+001  0.2750890E+03  0.7818608E-02  0.1098402E+00
          1   -1    0    0  501    0  0.00000000000E+00  0.00000000000E+00  0.20794868447E+04  0.20794868447E+04  0.00000000000E+00 0.  1.
         -1   -1    0    0    0  501 -0.00000000000E+00 -0.00000000000E+00 -0.90976717014E+01  0.90976717014E+01  0.00000000000E+00 0.  1.
         35    2    1    2    0    0  0.00000000000E+00  0.00000000000E+00  0.20703891730E+04  0.20885845164E+04  0.27508899375E+03 0.  0.
         25    1    3    3    0    0 -0.53963793495E+01  0.59279756539E+02  0.79808828724E+03  0.80925158305E+03  0.12000000000E+03 0.  0.
         25    1    3    3    0    0  0.53963793495E+01 -0.59279756539E+02  0.12723008857E+04  0.12793329333E+04  0.12000000000E+03 0.  0.
<mgrwt>
<rscale>  0 0.27508899E+03</rscale>
<asrwt>0</asrwt>
<pdfrwt beam="1">  1        1 0.31992068E+00 0.27508899E+03</pdfrwt>
<pdfrwt beam="2">  1       -1 0.13996435E-02 0.27508899E+03</pdfrwt>
<totfact> 0.34579664E+03</totfact>
</mgrwt>
</event>
<event>
 5    1  0.1100736E+001  0.2665316E+03  0.7818608E-02  0.1103281E+00
         -2   -1    0    0    0  501 -0.00000000000E+00  0.00000000000E+00  0.32514012567E+03  0.32514012567E+03  0.00000000000E+00 0. -1.
          2   -1    0    0  501    0  0.00000000000E+00 -0.00000000000E+00 -0.54621907282E+02  0.54621907282E+02  0.00000000000E+00 0. -1.
         35    2    1    2    0    0  0.00000000000E+00  0.00000000000E+00  0.27051821838E+03  0.37976203295E+03  0.26653160261E+03 0.  0.
         25    1    3    3    0    0  0.13667648642E+02 -0.26765778244E+02  0.64639270106E+02  0.13957595332E+03  0.12000000000E+03 0.  0.
         25    1    3    3    0    0 -0.13667648642E+02  0.26765778244E+02  0.20587894828E+03  0.24018607963E+03  0.12000000000E+03 0.  0.
<mgrwt>
<rscale>  0 0.26653160E+03</rscale>
<asrwt>0</asrwt>
<pdfrwt beam="1">  1        2 0.84033705E-02 0.26653160E+03</pdfrwt>
<pdfrwt beam="2">  1       -2 0.50021557E-01 0.26653160E+03</pdfrwt>
<totfact> 0.30484540E+03</totfact>
</mgrwt>
</event>
<event>
 5    1  0.1100736E+001  0.2747232E+03  0.7818608E-02  0.1098606E+00
          1   -1    0    0  501    0  0.00000000000E+00  0.00000000000E+00  0.83389048934E+03  0.83389048934E+03  0.00000000000E+00 0. -1.
         -1   -1    0    0    0  501 -0.00000000000E+00 -0.00000000000E+00 -0.22626720628E+02  0.22626720628E+02  0.00000000000E+00 0. -1.
         35    2    1    2    0    0  0.00000000000E+00  0.00000000000E+00  0.81126376871E+03  0.85651720997E+03  0.27472318531E+03 0.  0.
         25    1    3    3    0    0  0.35457489775E+02 -0.26214029460E+02  0.24900435596E+03  0.27990637400E+03  0.12000000000E+03 0.  0.
         25    1    3    3    0    0 -0.35457489775E+02  0.26214029460E+02  0.56225941276E+03  0.57661083597E+03  0.12000000000E+03 0.  0.
<mgrwt>
<rscale>  0 0.27472319E+03</rscale>
<asrwt>0</asrwt>
<pdfrwt beam="1">  1        1 0.12829082E+00 0.27472319E+03</pdfrwt>
<pdfrwt beam="2">  1       -1 0.34810346E-02 0.27472319E+03</pdfrwt>
<totfact> 0.65206641E+03</totfact>
</mgrwt>
</event>
<event>
 5    1  0.1100736E+001  0.2752035E+03  0.7818608E-02  0.1098338E+00
          2   -1    0    0  501    0  0.00000000000E+00  0.00000000000E+00  0.24445671436E+03  0.24445671436E+03  0.00000000000E+00 0.  1.
         -2   -1    0    0    0  501 -0.00000000000E+00 -0.00000000000E+00 -0.77454371304E+02  0.77454371304E+02  0.00000000000E+00 0.  1.
         35    2    1    2    0    0  0.00000000000E+00  0.00000000000E+00  0.16700234306E+03  0.32191108566E+03  0.27520349650E+03 0.  0.
         25    1    3    3    0    0 -0.22223906331E+02 -0.48615856512E+02  0.13140028636E+03  0.18580484055E+03  0.12000000000E+03 0.  0.
         25    1    3    3    0    0  0.22223906331E+02  0.48615856512E+02  0.35602056693E+02  0.13610624511E+03  0.12000000000E+03 0.  0.
<mgrwt>
<rscale>  0 0.27520350E+03</rscale>
<asrwt>0</asrwt>
<pdfrwt beam="1">  1        2 0.37608725E-01 0.27520350E+03</pdfrwt>
<pdfrwt beam="2">  1       -2 0.11916057E-01 0.27520350E+03</pdfrwt>
<totfact> 0.67834781E+03</totfact>
</mgrwt>
</event>
<event>
 5    1  0.1100736E+001  0.2736806E+03  0.7818608E-02  0.1099191E+00
         -1   -1    0    0    0  501 -0.00000000000E+00  0.00000000000E+00  0.13652118335E+02  0.13652118335E+02  0.00000000000E+00 0.  1.
          1   -1    0    0  501    0  0.00000000000E+00 -0.00000000000E+00 -0.13716016146E+04  0.13716016146E+04  0.00000000000E+00 0.  1.
         35    2    1    2    0    0  0.00000000000E+00  0.00000000000E+00 -0.13579494963E+04  0.13852537329E+04  0.27368059889E+03 0.  0.
         25    1    3    3    0    0 -0.53606936786E+02  0.22640664315E+01 -0.87147673285E+03  0.88133451400E+03  0.12000000000E+03 0.  0.
         25    1    3    3    0    0  0.53606936786E+02 -0.22640664315E+01 -0.48647276342E+03  0.50391921894E+03  0.12000000000E+03 0.  0.
<mgrwt>
<rscale>  0 0.27368060E+03</rscale>
<asrwt>0</asrwt>
<pdfrwt beam="1">  1        1 0.21101565E+00 0.27368060E+03</pdfrwt>
<pdfrwt beam="2">  1       -1 0.21003258E-02 0.27368060E+03</pdfrwt>
<totfact> 0.55661957E+03</totfact>
</mgrwt>
</event>
<event>
 5    1  0.1100736E+001  0.2760773E+03  0.7818608E-02  0.1097851E+00
          4   -1    0    0  501    0  0.00000000000E+00  0.00000000000E+00  0.70653076927E+02  0.70653076927E+02  0.00000000000E+00 0. -1.
         -4   -1    0    0    0  501 -0.00000000000E+00 -0.00000000000E+00 -0.26969339386E+03  0.26969339386E+03  0.00000000000E+00 0. -1.
         35    2    1    2    0    0  0.00000000000E+00  0.00000000000E+00 -0.19904031694E+03  0.34034647079E+03  0.27607729427E+03 0.  0.
         25    1    3    3    0    0 -0.57323265593E+02 -0.13987685943E+02 -0.57297076720E+02  0.14548046995E+03  0.12000000000E+03 0.  0.
         25    1    3    3    0    0  0.57323265593E+02  0.13987685943E+02 -0.14174324022E+03  0.19486600084E+03  0.12000000000E+03 0.  0.
<mgrwt>
<rscale>  0 0.27607729E+03</rscale>
<asrwt>0</asrwt>
<pdfrwt beam="1">  1        4 0.10869704E-01 0.27607729E+03</pdfrwt>
<pdfrwt beam="2">  1       -4 0.41491292E-01 0.27607729E+03</pdfrwt>
<totfact> 0.69851530E+02</totfact>
</mgrwt>
</event>
<event>
 5    1  0.1100736E+001  0.2751619E+03  0.7818608E-02  0.1098361E+00
          2   -1    0    0  501    0  0.00000000000E+00  0.00000000000E+00  0.45661414025E+03  0.45661414025E+03  0.00000000000E+00 0. -1.
         -2   -1    0    0    0  501 -0.00000000000E+00 -0.00000000000E+00 -0.41454092094E+02  0.41454092094E+02  0.00000000000E+00 0. -1.
         35    2    1    2    0    0  0.00000000000E+00  0.00000000000E+00  0.41516004816E+03  0.49806823235E+03  0.27516194956E+03 0.  0.
         25    1    3    3    0    0 -0.15747357896E+02  0.61005433143E+02  0.16478820904E+03  0.21336540486E+03  0.12000000000E+03 0.  0.
         25    1    3    3    0    0  0.15747357896E+02 -0.61005433143E+02  0.25037183912E+03  0.28470282748E+03  0.12000000000E+03 0.  0.
<mgrwt>
<rscale>  0 0.27516195E+03</rscale>
<asrwt>0</asrwt>
<pdfrwt beam="1">  1        2 0.70248326E-01 0.27516195E+03</pdfrwt>
<pdfrwt beam="2">  1       -2 0.63775529E-02 0.27516195E+03</pdfrwt>
<totfact> 0.92278403E+03</totfact>
</mgrwt>
</event>
<event>
 5    1  0.1100736E+001  0.2719979E+03  0.7818608E-02  0.1100142E+00
         -1   -1    0    0    0  501 -0.00000000000E+00  0.00000000000E+00  0.41900878345E+02  0.41900878345E+02  0.00000000000E+00 0. -1.
          1   -1    0    0  501    0  0.00000000000E+00 -0.00000000000E+00 -0.44141604446E+03  0.44141604446E+03  0.00000000000E+00 0. -1.
         35    2    1    2    0    0  0.00000000000E+00  0.00000000000E+00 -0.39951516611E+03  0.48331692280E+03  0.27199794101E+03 0.  0.
         25    1    3    3    0    0  0.33793556921E+02  0.80303626887E+01 -0.29526945352E+03  0.32060964021E+03  0.12000000000E+03 0.  0.
         25    1    3    3    0    0 -0.33793556921E+02 -0.80303626887E+01 -0.10424571260E+03  0.16270728259E+03  0.12000000000E+03 0.  0.
<mgrwt>
<rscale>  0 0.27199794E+03</rscale>
<asrwt>0</asrwt>
<pdfrwt beam="1">  1        1 0.67910164E-01 0.27199794E+03</pdfrwt>
<pdfrwt beam="2">  1       -1 0.64462887E-02 0.27199794E+03</pdfrwt>
<totfact> 0.63456833E+03</totfact>
</mgrwt>
</event>
<event>
 5    1  0.1100736E+001  0.2824714E+03  0.7818608E-02  0.1094347E+00
         -2   -1    0    0    0  501 -0.00000000000E+00  0.00000000000E+00  0.21125509713E+02  0.21125509713E+02  0.00000000000E+00 0. -1.
          2   -1    0    0  501    0  0.00000000000E+00 -0.00000000000E+00 -0.94423867284E+03  0.94423867284E+03  0.00000000000E+00 0. -1.
         35    2    1    2    0    0  0.00000000000E+00  0.00000000000E+00 -0.92311316313E+03  0.96536418256E+03  0.28247140213E+03 0.  0.
         25    1    3    3    0    0 -0.24895497379E+02  0.32552622581E+02 -0.67410776829E+03  0.68593056667E+03  0.12000000000E+03 0.  0.
         25    1    3    3    0    0  0.24895497379E+02 -0.32552622581E+02 -0.24900539485E+03  0.27943361589E+03  0.12000000000E+03 0.  0.
<mgrwt>
<rscale>  0 0.28247140E+03</rscale>
<asrwt>0</asrwt>
<pdfrwt beam="1">  1        2 0.14526748E+00 0.28247140E+03</pdfrwt>
<pdfrwt beam="2">  1       -2 0.32500787E-02 0.28247140E+03</pdfrwt>
<totfact> 0.10673663E+04</totfact>
</mgrwt>
</event>
<event>
 5    1  0.1100736E+001  0.2755648E+03  0.7818608E-02  0.1098136E+00
          1   -1    0    0  501    0  0.00000000000E+00  0.00000000000E+00  0.55749418883E+03  0.55749418883E+03  0.00000000000E+00 0.  1.
         -1   -1    0    0    0  501 -0.00000000000E+00 -0.00000000000E+00 -0.34052365770E+02  0.34052365770E+02  0.00000000000E+00 0.  1.
         35    2    1    2    0    0  0.00000000000E+00  0.00000000000E+00  0.52344182306E+03  0.59154655460E+03  0.27556484560E+03 0.  0.
         25    1    3    3    0    0 -0.19031616748E+02  0.57264401299E+02  0.19581495407E+03  0.23745507013E+03  0.12000000000E+03 0.  0.
         25    1    3    3    0    0  0.19031616748E+02 -0.57264401299E+02  0.32762686899E+03  0.35409148447E+03  0.12000000000E+03 0.  0.
<mgrwt>
<rscale>  0 0.27556485E+03</rscale>
<asrwt>0</asrwt>
<pdfrwt beam="1">  1        1 0.85768331E-01 0.27556485E+03</pdfrwt>
<pdfrwt beam="2">  1       -1 0.52388259E-02 0.27556485E+03</pdfrwt>
<totfact> 0.63637207E+03</totfact>
</mgrwt>
</event>
<event>
 5    1  0.1100736E+001  0.2751696E+03  0.7818608E-02  0.1098357E+00
         -2   -1    0    0    0  501 -0.00000000000E+00  0.00000000000E+00  0.24928096099E+03  0.24928096099E+03  0.00000000000E+00 0.  1.
          2   -1    0    0  501    0  0.00000000000E+00 -0.00000000000E+00 -0.75936715199E+02  0.75936715199E+02  0.00000000000E+00 0.  1.
         35    2    1    2    0    0  0.00000000000E+00  0.00000000000E+00  0.17334424580E+03  0.32521767619E+03  0.27516960108E+03 0.  0.
         25    1    3    3    0    0  0.35948361949E+02  0.55017181932E+02  0.69528644883E+02  0.15347119435E+03  0.12000000000E+03 0.  0.
         25    1    3    3    0    0 -0.35948361949E+02 -0.55017181932E+02  0.10381560091E+03  0.17174648185E+03  0.12000000000E+03 0.  0.
<mgrwt>
<rscale>  0 0.27516960E+03</rscale>
<asrwt>0</asrwt>
<pdfrwt beam="1">  1        2 0.11682572E-01 0.27516960E+03</pdfrwt>
<pdfrwt beam="2">  1       -2 0.38350917E-01 0.27516960E+03</pdfrwt>
<totfact> 0.33954791E+03</totfact>
</mgrwt>
</event>
<event>
 5    1  0.1100736E+001  0.2757199E+03  0.7818608E-02  0.1098050E+00
         -2   -1    0    0    0  501 -0.00000000000E+00  0.00000000000E+00  0.37659712826E+02  0.37659712826E+02  0.00000000000E+00 0.  1.
          2   -1    0    0  501    0  0.00000000000E+00 -0.00000000000E+00 -0.50466032280E+03  0.50466032280E+03  0.00000000000E+00 0.  1.
         35    2    1    2    0    0  0.00000000000E+00  0.00000000000E+00 -0.46700060997E+03  0.54232003563E+03  0.27571987836E+03 0.  0.
         25    1    3    3    0    0  0.57089262179E+02  0.35012680546E+02 -0.21192760735E+03  0.25258341674E+03  0.12000000000E+03 0.  0.
         25    1    3    3    0    0 -0.57089262179E+02 -0.35012680546E+02 -0.25507300263E+03  0.28973661889E+03  0.12000000000E+03 0.  0.
<mgrwt>
<rscale>  0 0.27571988E+03</rscale>
<asrwt>0</asrwt>
<pdfrwt beam="1">  1        2 0.77640045E-01 0.27571988E+03</pdfrwt>
<pdfrwt beam="2">  1       -2 0.57938023E-02 0.27571988E+03</pdfrwt>
<totfact> 0.95685968E+03</totfact>
</mgrwt>
</event>
<event>
 5    1  0.1100736E+001  0.2770240E+03  0.7818608E-02  0.1097326E+00
          2   -1    0    0  501    0  0.00000000000E+00  0.00000000000E+00  0.27243811552E+04  0.27243811552E+04  0.00000000000E+00 0.  1.
         -2   -1    0    0    0  501 -0.00000000000E+00 -0.00000000000E+00 -0.70421785153E+01  0.70421785153E+01  0.00000000000E+00 0.  1.
         35    2    1    2    0    0  0.00000000000E+00  0.00000000000E+00  0.27173389767E+04  0.27314233337E+04  0.27702403100E+03 0.  0.
         25    1    3    3    0    0  0.63027790267E+02 -0.15207290642E+02  0.11208410386E+04  0.11291095597E+04  0.12000000000E+03 0.  0.
         25    1    3    3    0    0 -0.63027790267E+02  0.15207290642E+02  0.15964979381E+04  0.16023137740E+04  0.12000000000E+03 0.  0.
<mgrwt>
<rscale>  0 0.27702403E+03</rscale>
<asrwt>0</asrwt>
<pdfrwt beam="1">  1        2 0.41913472E+00 0.27702403E+03</pdfrwt>
<pdfrwt beam="2">  1       -2 0.10834143E-02 0.27702403E+03</pdfrwt>
<totfact> 0.57078198E+03</totfact>
</mgrwt>
</event>
<event>
 5    1  0.1100736E+001  0.2749592E+03  0.7818608E-02  0.1098474E+00
         -2   -1    0    0    0  501 -0.00000000000E+00  0.00000000000E+00  0.26064060143E+03  0.26064060143E+03  0.00000000000E+00 0.  1.
          2   -1    0    0  501    0  0.00000000000E+00 -0.00000000000E+00 -0.72516105042E+02  0.72516105042E+02  0.00000000000E+00 0.  1.
         35    2    1    2    0    0  0.00000000000E+00  0.00000000000E+00  0.18812449639E+03  0.33315670647E+03  0.27495920593E+03 0.  0.
         25    1    3    3    0    0  0.22013382745E+02 -0.37977009604E+02  0.32591626547E+02  0.13186757145E+03  0.12000000000E+03 0.  0.
         25    1    3    3    0    0 -0.22013382745E+02  0.37977009604E+02  0.15553286984E+03  0.20128913503E+03  0.12000000000E+03 0.  0.
<mgrwt>
<rscale>  0 0.27495921E+03</rscale>
<asrwt>0</asrwt>
<pdfrwt beam="1">  1        2 0.11156324E-01 0.27495921E+03</pdfrwt>
<pdfrwt beam="2">  1       -2 0.40098554E-01 0.27495921E+03</pdfrwt>
<totfact> 0.33004261E+03</totfact>
</mgrwt>
</event>
<event>
 5    1  0.1100736E+001  0.2750307E+03  0.7818608E-02  0.1098434E+00
         -1   -1    0    0    0  501 -0.00000000000E+00  0.00000000000E+00  0.28531556755E+03  0.28531556755E+03  0.00000000000E+00 0.  1.
          1   -1    0    0  501    0  0.00000000000E+00 -0.00000000000E+00 -0.66279122494E+02  0.66279122494E+02  0.00000000000E+00 0.  1.
         35    2    1    2    0    0  0.00000000000E+00  0.00000000000E+00  0.21903644506E+03  0.35159469004E+03  0.27503065612E+03 0.  0.
         25    1    3    3    0    0  0.55907105444E+02 -0.33007595520E+02  0.13148856288E+03  0.18948442672E+03  0.12000000000E+03 0.  0.
         25    1    3    3    0    0 -0.55907105444E+02  0.33007595520E+02  0.87547882174E+02  0.16211026332E+03  0.12000000000E+03 0.  0.
<mgrwt>
<rscale>  0 0.27503066E+03</rscale>
<asrwt>0</asrwt>
<pdfrwt beam="1">  1        1 0.10196788E-01 0.27503066E+03</pdfrwt>
<pdfrwt beam="2">  1       -1 0.43894702E-01 0.27503066E+03</pdfrwt>
<totfact> 0.32487362E+03</totfact>
</mgrwt>
</event>
<event>
 5    1  0.1100736E+001  0.2769891E+03  0.7818608E-02  0.1097345E+00
         -2   -1    0    0    0  501 -0.00000000000E+00  0.00000000000E+00  0.68593097063E+02  0.68593097063E+02  0.00000000000E+00 0. -1.
          2   -1    0    0  501    0  0.00000000000E+00 -0.00000000000E+00 -0.27963083641E+03  0.27963083641E+03  0.00000000000E+00 0. -1.
         35    2    1    2    0    0  0.00000000000E+00  0.00000000000E+00 -0.21103773935E+03  0.34822393348E+03  0.27698913411E+03 0.  0.
         25    1    3    3    0    0  0.54680443201E+00  0.22478394857E+02 -0.18771899330E+03  0.22392855485E+03  0.12000000000E+03 0.  0.
         25    1    3    3    0    0 -0.54680443201E+00 -0.22478394857E+02 -0.23318746046E+02  0.12429537863E+03  0.12000000000E+03 0.  0.
<mgrwt>
<rscale>  0 0.27698913E+03</rscale>
<asrwt>0</asrwt>
<pdfrwt beam="1">  1        2 0.43020128E-01 0.27698913E+03</pdfrwt>
<pdfrwt beam="2">  1       -2 0.10552784E-01 0.27698913E+03</pdfrwt>
<totfact> 0.71333730E+03</totfact>
</mgrwt>
</event>
<event>
 5    1  0.1100736E+001  0.2782146E+03  0.7818608E-02  0.1096668E+00
         -2   -1    0    0    0  501 -0.00000000000E+00  0.00000000000E+00  0.24483915371E+02  0.24483915371E+02  0.00000000000E+00 0.  1.
          2   -1    0    0  501    0  0.00000000000E+00 -0.00000000000E+00 -0.79034912708E+03  0.79034912708E+03  0.00000000000E+00 0.  1.
         35    2    1    2    0    0  0.00000000000E+00  0.00000000000E+00 -0.76586521171E+03  0.81483304245E+03  0.27821460164E+03 0.  0.
         25    1    3    3    0    0  0.33807193132E+02 -0.61289526691E+02 -0.36191277460E+03  0.38765988806E+03  0.12000000000E+03 0.  0.
         25    1    3    3    0    0 -0.33807193132E+02  0.61289526691E+02 -0.40395243711E+03  0.42717315440E+03  0.12000000000E+03 0.  0.
<mgrwt>
<rscale>  0 0.27821460E+03</rscale>
<asrwt>0</asrwt>
<pdfrwt beam="1">  1        2 0.12159218E+00 0.27821460E+03</pdfrwt>
<pdfrwt beam="2">  1       -2 0.37667561E-02 0.27821460E+03</pdfrwt>
<totfact> 0.10811937E+04</totfact>
</mgrwt>
</event>
<event>
 5    1  0.1100736E+001  0.2757128E+03  0.7818608E-02  0.1098054E+00
          2   -1    0    0  501    0  0.00000000000E+00  0.00000000000E+00  0.47176155698E+03  0.47176155698E+03  0.00000000000E+00 0.  1.
         -2   -1    0    0    0  501 -0.00000000000E+00 -0.00000000000E+00 -0.40283896774E+02  0.40283896774E+02  0.00000000000E+00 0.  1.
         35    2    1    2    0    0  0.00000000000E+00  0.00000000000E+00  0.43147766020E+03  0.51204545375E+03  0.27571284963E+03 0.  0.
         25    1    3    3    0    0  0.41478733233E+02 -0.15882096639E+02  0.12046644865E+03  0.17574097859E+03  0.12000000000E+03 0.  0.
         25    1    3    3    0    0 -0.41478733233E+02  0.15882096639E+02  0.31101121155E+03  0.33630447516E+03  0.12000000000E+03 0.  0.
<mgrwt>
<rscale>  0 0.27571285E+03</rscale>
<asrwt>0</asrwt>
<pdfrwt beam="1">  1        2 0.72578697E-01 0.27571285E+03</pdfrwt>
<pdfrwt beam="2">  1       -2 0.61975229E-02 0.27571285E+03</pdfrwt>
<totfact> 0.93023806E+03</totfact>
</mgrwt>
</event>
<event>
 5    1  0.1100736E+001  0.2759934E+03  0.7818608E-02  0.1097898E+00
          2   -1    0    0  501    0  0.00000000000E+00  0.00000000000E+00  0.74825800705E+02  0.74825800705E+02  0.00000000000E+00 0.  1.
         -2   -1    0    0    0  501 -0.00000000000E+00 -0.00000000000E+00 -0.25449893315E+03  0.25449893315E+03  0.00000000000E+00 0.  1.
         35    2    1    2    0    0  0.00000000000E+00  0.00000000000E+00 -0.17967313245E+03  0.32932473386E+03  0.27599338000E+03 0.  0.
         25    1    3    3    0    0  0.53616798336E+02  0.40080139888E+02 -0.10501963417E+03  0.17294595178E+03  0.12000000000E+03 0.  0.
         25    1    3    3    0    0 -0.53616798336E+02 -0.40080139888E+02 -0.74653498276E+02  0.15637878207E+03  0.12000000000E+03 0.  0.
<mgrwt>
<rscale>  0 0.27599338E+03</rscale>
<asrwt>0</asrwt>
<pdfrwt beam="1">  1        2 0.11511662E-01 0.27599338E+03</pdfrwt>
<pdfrwt beam="2">  1       -2 0.39153681E-01 0.27599338E+03</pdfrwt>
<totfact> 0.33241528E+03</totfact>
</mgrwt>
</event>
<event>
 5    1  0.1100736E+001  0.2755250E+03  0.7818608E-02  0.1098159E+00
          2   -1    0    0  501    0  0.00000000000E+00  0.00000000000E+00  0.73372394737E+03  0.73372394737E+03  0.00000000000E+00 0.  1.
         -2   -1    0    0    0  501 -0.00000000000E+00 -0.00000000000E+00 -0.25866000295E+02  0.25866000295E+02  0.00000000000E+00 0.  1.
         35    2    1    2    0    0  0.00000000000E+00  0.00000000000E+00  0.70785794707E+03  0.75958994766E+03  0.27552498137E+03 0.  0.
         25    1    3    3    0    0  0.38822510875E+02  0.31610101184E+02  0.47942369755E+03  0.49674285865E+03  0.12000000000E+03 0.  0.
         25    1    3    3    0    0 -0.38822510875E+02 -0.31610101184E+02  0.22843424953E+03  0.26284708902E+03  0.12000000000E+03 0.  0.
<mgrwt>
<rscale>  0 0.27552498E+03</rscale>
<asrwt>0</asrwt>
<pdfrwt beam="1">  1        2 0.11288059E+00 0.27552498E+03</pdfrwt>
<pdfrwt beam="2">  1       -2 0.39793852E-02 0.27552498E+03</pdfrwt>
<totfact> 0.10921239E+04</totfact>
</mgrwt>
</event>
<event>
 5    1  0.1100736E+001  0.2750955E+03  0.7818608E-02  0.1098398E+00
          1   -1    0    0  501    0  0.00000000000E+00  0.00000000000E+00  0.21876248249E+04  0.21876248249E+04  0.00000000000E+00 0. -1.
         -1   -1    0    0    0  501 -0.00000000000E+00 -0.00000000000E+00 -0.86483688227E+01  0.86483688227E+01  0.00000000000E+00 0. -1.
         35    2    1    2    0    0  0.00000000000E+00  0.00000000000E+00  0.21789764561E+04  0.21962731938E+04  0.27509552037E+03 0.  0.
         25    1    3    3    0    0  0.62682491077E+02 -0.92865329258E+01  0.91024593458E+03  0.92030592512E+03  0.12000000000E+03 0.  0.
         25    1    3    3    0    0 -0.62682491077E+02  0.92865329258E+01  0.12687305215E+04  0.12759672686E+04  0.12000000000E+03 0.  0.
<mgrwt>
<rscale>  0 0.27509552E+03</rscale>
<asrwt>0</asrwt>
<pdfrwt beam="1">  1        1 0.33655722E+00 0.27509552E+03</pdfrwt>
<pdfrwt beam="2">  1       -1 0.13305200E-02 0.27509552E+03</pdfrwt>
<totfact> 0.31647848E+03</totfact>
</mgrwt>
</event>
<event>
 5    1  0.1100736E+001  0.2764525E+03  0.7818608E-02  0.1097642E+00
         -2   -1    0    0    0  501 -0.00000000000E+00  0.00000000000E+00  0.98870310407E+01  0.98870310407E+01  0.00000000000E+00 0. -1.
          2   -1    0    0  501    0  0.00000000000E+00 -0.00000000000E+00 -0.19324811331E+04  0.19324811331E+04  0.00000000000E+00 0. -1.
         35    2    1    2    0    0  0.00000000000E+00  0.00000000000E+00 -0.19225941020E+04  0.19423681641E+04  0.27645253443E+03 0.  0.
         25    1    3    3    0    0 -0.21083616711E+00  0.65710945312E+02 -0.10997882667E+04  0.11082654034E+04  0.12000000000E+03 0.  0.
         25    1    3    3    0    0  0.21083616711E+00 -0.65710945312E+02 -0.82280583532E+03  0.83410276070E+03  0.12000000000E+03 0.  0.
<mgrwt>
<rscale>  0 0.27645253E+03</rscale>
<asrwt>0</asrwt>
<pdfrwt beam="1">  1        2 0.29730458E+00 0.27645253E+03</pdfrwt>
<pdfrwt beam="2">  1       -2 0.15210828E-02 0.27645253E+03</pdfrwt>
<totfact> 0.93203339E+03</totfact>
</mgrwt>
</event>
<event>
 5    1  0.1100736E+001  0.2749692E+03  0.7818608E-02  0.1098469E+00
          2   -1    0    0  501    0  0.00000000000E+00  0.00000000000E+00  0.37485761160E+04  0.37485761160E+04  0.00000000000E+00 0.  1.
         -2   -1    0    0    0  501 -0.00000000000E+00 -0.00000000000E+00 -0.50424508379E+01  0.50424508379E+01  0.00000000000E+00 0.  1.
         35    2    1    2    0    0  0.00000000000E+00  0.00000000000E+00  0.37435336651E+04  0.37536185668E+04  0.27496916756E+03 0.  0.
         25    1    3    3    0    0 -0.60064297868E+02 -0.29617189079E+02  0.19282383339E+04  0.19331290619E+04  0.12000000000E+03 0.  0.
         25    1    3    3    0    0  0.60064297868E+02  0.29617189079E+02  0.18152953312E+04  0.18204895049E+04  0.12000000000E+03 0.  0.
<mgrwt>
<rscale>  0 0.27496917E+03</rscale>
<asrwt>0</asrwt>
<pdfrwt beam="1">  1        2 0.57670179E+00 0.27496917E+03</pdfrwt>
<pdfrwt beam="2">  1       -2 0.77576466E-03 0.27496917E+03</pdfrwt>
<totfact> 0.21115781E+03</totfact>
</mgrwt>
</event>
<event>
 5    1  0.1100736E+001  0.2754785E+03  0.7818608E-02  0.1098184E+00
          2   -1    0    0  501    0  0.00000000000E+00  0.00000000000E+00  0.24866917228E+04  0.24866917228E+04  0.00000000000E+00 0. -1.
         -2   -1    0    0    0  501 -0.00000000000E+00 -0.00000000000E+00 -0.76294560094E+01  0.76294560094E+01  0.00000000000E+00 0. -1.
         35    2    1    2    0    0  0.00000000000E+00  0.00000000000E+00  0.24790622668E+04  0.24943211788E+04  0.27547852989E+03 0.  0.
         25    1    3    3    0    0  0.12660553692E+02 -0.65527815870E+02  0.11412070533E+04  0.11494380030E+04  0.12000000000E+03 0.  0.
         25    1    3    3    0    0 -0.12660553692E+02  0.65527815870E+02  0.13378552135E+04  0.13448831758E+04  0.12000000000E+03 0.  0.
<mgrwt>
<rscale>  0 0.27547853E+03</rscale>
<asrwt>0</asrwt>
<pdfrwt beam="1">  1        2 0.38256731E+00 0.27547853E+03</pdfrwt>
<pdfrwt beam="2">  1       -2 0.11737644E-02 0.27547853E+03</pdfrwt>
<totfact> 0.68865074E+03</totfact>
</mgrwt>
</event>
<event>
 5    1  0.1100736E+001  0.2737015E+03  0.7818608E-02  0.1099180E+00
          1   -1    0    0  501    0  0.00000000000E+00  0.00000000000E+00  0.41265312591E+03  0.41265312591E+03  0.00000000000E+00 0. -1.
         -1   -1    0    0    0  501 -0.00000000000E+00 -0.00000000000E+00 -0.45384659841E+02  0.45384659841E+02  0.00000000000E+00 0. -1.
         35    2    1    2    0    0  0.00000000000E+00  0.00000000000E+00  0.36726846607E+03  0.45803778575E+03  0.27370145598E+03 0.  0.
         25    1    3    3    0    0  0.19478213028E+02  0.62395220871E+02  0.19610792697E+03  0.23902067565E+03  0.12000000000E+03 0.  0.
         25    1    3    3    0    0 -0.19478213028E+02 -0.62395220871E+02  0.17116053910E+03  0.21901711010E+03  0.12000000000E+03 0.  0.
<mgrwt>
<rscale>  0 0.27370146E+03</rscale>
<asrwt>0</asrwt>
<pdfrwt beam="1">  1        1 0.63485094E-01 0.27370146E+03</pdfrwt>
<pdfrwt beam="2">  1       -1 0.69822556E-02 0.27370146E+03</pdfrwt>
<totfact> 0.61355656E+03</totfact>
</mgrwt>
</event>
<event>
 5    1  0.1100736E+001  0.2753098E+03  0.7818608E-02  0.1098279E+00
          2   -1    0    0  501    0  0.00000000000E+00  0.00000000000E+00  0.11811348900E+04  0.11811348900E+04  0.00000000000E+00 0.  1.
         -2   -1    0    0    0  501 -0.00000000000E+00 -0.00000000000E+00 -0.16042940888E+02  0.16042940888E+02  0.00000000000E+00 0.  1.
         35    2    1    2    0    0  0.00000000000E+00  0.00000000000E+00  0.11650919491E+04  0.11971778309E+04  0.27530984161E+03 0.  0.
         25    1    3    3    0    0 -0.45224633945E+02 -0.43915503316E+02  0.68682220083E+03  0.70007040681E+03  0.12000000000E+03 0.  0.
         25    1    3    3    0    0  0.45224633945E+02  0.43915503316E+02  0.47826974831E+03  0.49710742410E+03  0.12000000000E+03 0.  0.
<mgrwt>
<rscale>  0 0.27530984E+03</rscale>
<asrwt>0</asrwt>
<pdfrwt beam="1">  1        2 0.18171299E+00 0.27530984E+03</pdfrwt>
<pdfrwt beam="2">  1       -2 0.24681457E-02 0.27530984E+03</pdfrwt>
<totfact> 0.11587255E+04</totfact>
</mgrwt>
</event>
<event>
 5    1  0.1100736E+001  0.2754872E+03  0.7818608E-02  0.1098180E+00
         -1   -1    0    0    0  501 -0.00000000000E+00  0.00000000000E+00  0.15767437195E+03  0.15767437195E+03  0.00000000000E+00 0. -1.
          1   -1    0    0  501    0  0.00000000000E+00 -0.00000000000E+00 -0.12033218337E+03  0.12033218337E+03  0.00000000000E+00 0. -1.
         35    2    1    2    0    0  0.00000000000E+00  0.00000000000E+00  0.37342188576E+02  0.27800655532E+03  0.27548721523E+03 0.  0.
         25    1    3    3    0    0 -0.10627660059E+02  0.28885444043E+02 -0.42095740196E+02  0.13084100037E+03  0.12000000000E+03 0.  0.
         25    1    3    3    0    0  0.10627660059E+02 -0.28885444043E+02  0.79437928772E+02  0.14716555495E+03  0.12000000000E+03 0.  0.
<mgrwt>
<rscale>  0 0.27548722E+03</rscale>
<asrwt>0</asrwt>
<pdfrwt beam="1">  1        1 0.18512644E-01 0.27548722E+03</pdfrwt>
<pdfrwt beam="2">  1       -1 0.24257596E-01 0.27548722E+03</pdfrwt>
<totfact> 0.41124380E+03</totfact>
</mgrwt>
</event>
<event>
 5    1  0.1100736E+001  0.2732822E+03  0.7818608E-02  0.1099416E+00
          4   -1    0    0  501    0  0.00000000000E+00  0.00000000000E+00  0.51546800421E+02  0.51546800421E+02  0.00000000000E+00 0.  1.
         -4   -1    0    0    0  501 -0.00000000000E+00 -0.00000000000E+00 -0.36221046002E+03  0.36221046002E+03  0.00000000000E+00 0.  1.
         35    2    1    2    0    0  0.00000000000E+00  0.00000000000E+00 -0.31066365960E+03  0.41375726044E+03  0.27328220061E+03 0.  0.
         25    1    3    3    0    0  0.25197386536E+02 -0.59209072218E+02 -0.13805810418E+03  0.19390890297E+03  0.12000000000E+03 0.  0.
         25    1    3    3    0    0 -0.25197386536E+02  0.59209072218E+02 -0.17260555542E+03  0.21984835747E+03  0.12000000000E+03 0.  0.
<mgrwt>
<rscale>  0 0.27328220E+03</rscale>
<asrwt>0</asrwt>
<pdfrwt beam="1">  1        4 0.79302769E-02 0.27328220E+03</pdfrwt>
<pdfrwt beam="2">  1       -4 0.55724687E-01 0.27328220E+03</pdfrwt>
<totfact> 0.65024395E+02</totfact>
</mgrwt>
</event>
<event>
 5    1  0.1100736E+001  0.2751784E+03  0.7818608E-02  0.1098352E+00
          2   -1    0    0  501    0  0.00000000000E+00  0.00000000000E+00  0.80347781498E+02  0.80347781498E+02  0.00000000000E+00 0.  1.
         -2   -1    0    0    0  501 -0.00000000000E+00 -0.00000000000E+00 -0.23561053043E+03  0.23561053043E+03  0.00000000000E+00 0.  1.
         35    2    1    2    0    0  0.00000000000E+00  0.00000000000E+00 -0.15526274894E+03  0.31595831193E+03  0.27517836701E+03 0.  0.
         25    1    3    3    0    0 -0.59785078272E+02  0.30912545149E+02 -0.76516746435E+02  0.15743142481E+03  0.12000000000E+03 0.  0.
         25    1    3    3    0    0  0.59785078272E+02 -0.30912545149E+02 -0.78746002501E+02  0.15852688712E+03  0.12000000000E+03 0.  0.
<mgrwt>
<rscale>  0 0.27517837E+03</rscale>
<asrwt>0</asrwt>
<pdfrwt beam="1">  1        2 0.12361197E-01 0.27517837E+03</pdfrwt>
<pdfrwt beam="2">  1       -2 0.36247773E-01 0.27517837E+03</pdfrwt>
<totfact> 0.35256244E+03</totfact>
</mgrwt>
</event>
<event>
 5    1  0.1100736E+001  0.2748939E+03  0.7818608E-02  0.1098511E+00
         -2   -1    0    0    0  501 -0.00000000000E+00  0.00000000000E+00  0.12950193533E+02  0.12950193533E+02  0.00000000000E+00 0.  1.
          2   -1    0    0  501    0  0.00000000000E+00 -0.00000000000E+00 -0.14587943475E+04  0.14587943475E+04  0.00000000000E+00 0.  1.
         35    2    1    2    0    0  0.00000000000E+00  0.00000000000E+00 -0.14458441540E+04  0.14717445411E+04  0.27489393682E+03 0.  0.
         25    1    3    3    0    0 -0.60337788235E+02  0.15274770627E+02 -0.58985926023E+03  0.60515114987E+03  0.12000000000E+03 0.  0.
         25    1    3    3    0    0  0.60337788235E+02 -0.15274770627E+02 -0.85598489377E+03  0.86659339120E+03  0.12000000000E+03 0.  0.
<mgrwt>
<rscale>  0 0.27489394E+03</rscale>
<asrwt>0</asrwt>
<pdfrwt beam="1">  1        2 0.22442984E+00 0.27489394E+03</pdfrwt>
<pdfrwt beam="2">  1       -2 0.19923380E-02 0.27489394E+03</pdfrwt>
<totfact> 0.11162194E+04</totfact>
</mgrwt>
</event>
<event>
 5    1  0.1100736E+001  0.2757913E+03  0.7818608E-02  0.1098010E+00
          2   -1    0    0  501    0  0.00000000000E+00  0.00000000000E+00  0.19750025481E+04  0.19750025481E+04  0.00000000000E+00 0. -1.
         -2   -1    0    0    0  501 -0.00000000000E+00 -0.00000000000E+00 -0.96279397514E+01  0.96279397514E+01  0.00000000000E+00 0. -1.
         35    2    1    2    0    0  0.00000000000E+00  0.00000000000E+00  0.19653746084E+04  0.19846304879E+04  0.27579126558E+03 0.  0.
         25    1    3    3    0    0  0.34083104384E+02  0.51648380012E+02  0.78093973128E+03  0.79252512708E+03  0.12000000000E+03 0.  0.
         25    1    3    3    0    0 -0.34083104384E+02 -0.51648380012E+02  0.11844348771E+04  0.11921053608E+04  0.12000000000E+03 0.  0.
<mgrwt>
<rscale>  0 0.27579127E+03</rscale>
<asrwt>0</asrwt>
<pdfrwt beam="1">  1        2 0.30384622E+00 0.27579127E+03</pdfrwt>
<pdfrwt beam="2">  1       -2 0.14812231E-02 0.27579127E+03</pdfrwt>
<totfact> 0.92033776E+03</totfact>
</mgrwt>
</event>
<event>
 5    1  0.1100736E+001  0.2741075E+03  0.7818608E-02  0.1098952E+00
          1   -1    0    0  501    0  0.00000000000E+00  0.00000000000E+00  0.19360041487E+03  0.19360041487E+03  0.00000000000E+00 0. -1.
         -1   -1    0    0    0  501 -0.00000000000E+00 -0.00000000000E+00 -0.97023181096E+02  0.97023181096E+02  0.00000000000E+00 0. -1.
         35    2    1    2    0    0  0.00000000000E+00  0.00000000000E+00  0.96577233773E+02  0.29062359597E+03  0.27410748339E+03 0.  0.
         25    1    3    3    0    0 -0.36987720157E+02 -0.54877417488E+02  0.46140268891E+02  0.14459787967E+03  0.12000000000E+03 0.  0.
         25    1    3    3    0    0  0.36987720157E+02  0.54877417488E+02  0.50436964882E+02  0.14602571629E+03  0.12000000000E+03 0.  0.
<mgrwt>
<rscale>  0 0.27410748E+03</rscale>
<asrwt>0</asrwt>
<pdfrwt beam="1">  1        1 0.29784679E-01 0.27410748E+03</pdfrwt>
<pdfrwt beam="2">  1       -1 0.14926643E-01 0.27410748E+03</pdfrwt>
<totfact> 0.49173819E+03</totfact>
</mgrwt>
</event>
<event>
 5    1  0.1100736E+001  0.2744323E+03  0.7818608E-02  0.1098769E+00
         -2   -1    0    0    0  501 -0.00000000000E+00  0.00000000000E+00  0.11947066072E+03  0.11947066072E+03  0.00000000000E+00 0. -1.
          2   -1    0    0  501    0  0.00000000000E+00 -0.00000000000E+00 -0.15759741524E+03  0.15759741524E+03  0.00000000000E+00 0. -1.
         35    2    1    2    0    0  0.00000000000E+00  0.00000000000E+00 -0.38126754518E+02  0.27706807596E+03  0.27443226725E+03 0.  0.
         25    1    3    3    0    0  0.19280565257E+02  0.46852426187E+02 -0.62621436460E+02  0.14452797079E+03  0.12000000000E+03 0.  0.
         25    1    3    3    0    0 -0.19280565257E+02 -0.46852426187E+02  0.24494681942E+02  0.13254010517E+03  0.12000000000E+03 0.  0.
<mgrwt>
<rscale>  0 0.27443227E+03</rscale>
<asrwt>0</asrwt>
<pdfrwt beam="1">  1        2 0.24245756E-01 0.27443227E+03</pdfrwt>
<pdfrwt beam="2">  1       -2 0.18380102E-01 0.27443227E+03</pdfrwt>
<totfact> 0.53726076E+03</totfact>
</mgrwt>
</event>
<event>
 5    1  0.1100736E+001  0.2747300E+03  0.7818608E-02  0.1098603E+00
          2   -1    0    0  501    0  0.00000000000E+00  0.00000000000E+00  0.61696839023E+03  0.61696839023E+03  0.00000000000E+00 0. -1.
         -2   -1    0    0    0  501 -0.00000000000E+00 -0.00000000000E+00 -0.30583640000E+02  0.30583640000E+02  0.00000000000E+00 0. -1.
         35    2    1    2    0    0  0.00000000000E+00  0.00000000000E+00  0.58638475023E+03  0.64755203023E+03  0.27472997025E+03 0.  0.
         25    1    3    3    0    0  0.20387599023E+02 -0.54901831878E+02  0.21720636872E+03  0.25496759000E+03  0.12000000000E+03 0.  0.
         25    1    3    3    0    0 -0.20387599023E+02  0.54901831878E+02  0.36917838151E+03  0.39258444023E+03  0.12000000000E+03 0.  0.
<mgrwt>
<rscale>  0 0.27472997E+03</rscale>
<asrwt>0</asrwt>
<pdfrwt beam="1">  1        2 0.94918205E-01 0.27472997E+03</pdfrwt>
<pdfrwt beam="2">  1       -2 0.47051758E-02 0.27472997E+03</pdfrwt>
<totfact> 0.10439670E+04</totfact>
</mgrwt>
</event>
<event>
 5    1  0.1100736E+001  0.2753687E+03  0.7818608E-02  0.1098246E+00
         -2   -1    0    0    0  501 -0.00000000000E+00  0.00000000000E+00  0.73422251963E+02  0.73422251963E+02  0.00000000000E+00 0. -1.
          2   -1    0    0  501    0  0.00000000000E+00 -0.00000000000E+00 -0.25819114346E+03  0.25819114346E+03  0.00000000000E+00 0. -1.
         35    2    1    2    0    0  0.00000000000E+00  0.00000000000E+00 -0.18476889150E+03  0.33161339543E+03  0.27536866336E+03 0.  0.
         25    1    3    3    0    0 -0.26396658155E+02  0.44063376346E+02 -0.39635843433E+02  0.13641614560E+03  0.12000000000E+03 0.  0.
         25    1    3    3    0    0  0.26396658155E+02 -0.44063376346E+02 -0.14513304807E+03  0.19519724982E+03  0.12000000000E+03 0.  0.
<mgrwt>
<rscale>  0 0.27536866E+03</rscale>
<asrwt>0</asrwt>
<pdfrwt beam="1">  1        2 0.39721714E-01 0.27536866E+03</pdfrwt>
<pdfrwt beam="2">  1       -2 0.11295731E-01 0.27536866E+03</pdfrwt>
<totfact> 0.69692890E+03</totfact>
</mgrwt>
</event>
<event>
 5    1  0.1100736E+001  0.2745571E+03  0.7818608E-02  0.1098699E+00
          2   -1    0    0  501    0  0.00000000000E+00  0.00000000000E+00  0.79659080725E+03  0.79659080725E+03  0.00000000000E+00 0.  1.
         -2   -1    0    0    0  501 -0.00000000000E+00 -0.00000000000E+00 -0.23657573336E+02  0.23657573336E+02  0.00000000000E+00 0.  1.
         35    2    1    2    0    0  0.00000000000E+00  0.00000000000E+00  0.77293323391E+03  0.82024838058E+03  0.27455713752E+03 0.  0.
         25    1    3    3    0    0 -0.59796656295E+02 -0.17556871910E+02  0.45726052235E+03  0.47683442531E+03  0.12000000000E+03 0.  0.
         25    1    3    3    0    0  0.59796656295E+02  0.17556871910E+02  0.31567271156E+03  0.34341395528E+03  0.12000000000E+03 0.  0.
<mgrwt>
<rscale>  0 0.27455714E+03</rscale>
<asrwt>0</asrwt>
<pdfrwt beam="1">  1        2 0.12255241E+00 0.27455714E+03</pdfrwt>
<pdfrwt beam="2">  1       -2 0.36396273E-02 0.27455714E+03</pdfrwt>
<totfact> 0.11264967E+04</totfact>
</mgrwt>
</event>
<event>
 5    1  0.1100736E+001  0.2752027E+03  0.7818608E-02  0.1098338E+00
         -1   -1    0    0    0  501 -0.00000000000E+00  0.00000000000E+00  0.16291183308E+03  0.16291183308E+03  0.00000000000E+00 0. -1.
          1   -1    0    0  501    0  0.00000000000E+00 -0.00000000000E+00 -0.11622321308E+03  0.11622321308E+03  0.00000000000E+00 0. -1.
         35    2    1    2    0    0  0.00000000000E+00  0.00000000000E+00  0.46688620010E+02  0.27913504616E+03  0.27520273755E+03 0.  0.
         25    1    3    3    0    0 -0.62481907588E+02 -0.21847814194E+02  0.35883025076E+02  0.14166477067E+03  0.12000000000E+03 0.  0.
         25    1    3    3    0    0  0.62481907588E+02  0.21847814194E+02  0.10805594933E+02  0.13747027549E+03  0.12000000000E+03 0.  0.
<mgrwt>
<rscale>  0 0.27520274E+03</rscale>
<asrwt>0</asrwt>
<pdfrwt beam="1">  1        1 0.17880494E-01 0.27520274E+03</pdfrwt>
<pdfrwt beam="2">  1       -1 0.25063359E-01 0.27520274E+03</pdfrwt>
<totfact> 0.40745520E+03</totfact>
</mgrwt>
</event>
<event>
 5    1  0.1100736E+001  0.2749399E+03  0.7818608E-02  0.1098485E+00
          1   -1    0    0  501    0  0.00000000000E+00  0.00000000000E+00  0.32798034445E+04  0.32798034445E+04  0.00000000000E+00 0. -1.
         -1   -1    0    0    0  501 -0.00000000000E+00 -0.00000000000E+00 -0.57619259753E+01  0.57619259753E+01  0.00000000000E+00 0. -1.
         35    2    1    2    0    0  0.00000000000E+00  0.00000000000E+00  0.32740415185E+04  0.32855653704E+04  0.27493988187E+03 0.  0.
         25    1    3    3    0    0  0.14050587555E+02  0.59196225778E+02  0.12997874230E+04  0.13067321673E+04  0.12000000000E+03 0.  0.
         25    1    3    3    0    0 -0.14050587555E+02 -0.59196225778E+02  0.19742540955E+04  0.19788332031E+04  0.12000000000E+03 0.  0.
<mgrwt>
<rscale>  0 0.27493988E+03</rscale>
<asrwt>0</asrwt>
<pdfrwt beam="1">  1        1 0.50458365E+00 0.27493988E+03</pdfrwt>
<pdfrwt beam="2">  1       -1 0.88645277E-03 0.27493988E+03</pdfrwt>
<totfact> 0.10233461E+03</totfact>
</mgrwt>
</event>
<event>
 5    1  0.1100736E+001  0.2740268E+03  0.7818608E-02  0.1098997E+00
          2   -1    0    0  501    0  0.00000000000E+00  0.00000000000E+00  0.13899261673E+03  0.13899261673E+03  0.00000000000E+00 0.  1.
         -2   -1    0    0    0  501 -0.00000000000E+00 -0.00000000000E+00 -0.13506237411E+03  0.13506237411E+03  0.00000000000E+00 0.  1.
         35    2    1    2    0    0  0.00000000000E+00  0.00000000000E+00  0.39302426173E+01  0.27405499085E+03  0.27402680745E+03 0.  0.
         25    1    3    3    0    0 -0.53093556182E+02 -0.34631745843E+02  0.20792287132E+02  0.13729749718E+03  0.12000000000E+03 0.  0.
         25    1    3    3    0    0  0.53093556182E+02  0.34631745843E+02 -0.16862044515E+02  0.13675749366E+03  0.12000000000E+03 0.  0.
<mgrwt>
<rscale>  0 0.27402681E+03</rscale>
<asrwt>0</asrwt>
<pdfrwt beam="1">  1        2 0.21383479E-01 0.27402681E+03</pdfrwt>
<pdfrwt beam="2">  1       -2 0.20778827E-01 0.27402681E+03</pdfrwt>
<totfact> 0.50220568E+03</totfact>
</mgrwt>
</event>
<event>
 5    1  0.1100736E+001  0.2761542E+03  0.7818608E-02  0.1097808E+00
         -1   -1    0    0    0  501 -0.00000000000E+00  0.00000000000E+00  0.50442905541E+03  0.50442905541E+03  0.00000000000E+00 0. -1.
          1   -1    0    0  501    0  0.00000000000E+00 -0.00000000000E+00 -0.37795779827E+02  0.37795779827E+02  0.00000000000E+00 0. -1.
         35    2    1    2    0    0  0.00000000000E+00  0.00000000000E+00  0.46663327559E+03  0.54222483524E+03  0.27615422877E+03 0.  0.
         25    1    3    3    0    0  0.40559746472E+01  0.64851522651E+02  0.19198451645E+03  0.23554240696E+03  0.12000000000E+03 0.  0.
         25    1    3    3    0    0 -0.40559746472E+01 -0.64851522651E+02  0.27464875914E+03  0.30668242828E+03  0.12000000000E+03 0.  0.
<mgrwt>
<rscale>  0 0.27615423E+03</rscale>
<asrwt>0</asrwt>
<pdfrwt beam="1">  1        1 0.58147358E-02 0.27615423E+03</pdfrwt>
<pdfrwt beam="2">  1       -1 0.77604465E-01 0.27615423E+03</pdfrwt>
<totfact> 0.23406187E+03</totfact>
</mgrwt>
</event>
<event>
 5    1  0.1100736E+001  0.2752843E+03  0.7818608E-02  0.1098293E+00
          1   -1    0    0  501    0  0.00000000000E+00  0.00000000000E+00  0.88470210187E+02  0.88470210187E+02  0.00000000000E+00 0.  1.
         -1   -1    0    0    0  501 -0.00000000000E+00 -0.00000000000E+00 -0.21414397992E+03  0.21414397992E+03  0.00000000000E+00 0.  1.
         35    2    1    2    0    0  0.00000000000E+00  0.00000000000E+00 -0.12567376974E+03  0.30261419011E+03  0.27528431059E+03 0.  0.
         25    1    3    3    0    0 -0.61542043636E+02 -0.27070761945E+02 -0.57328014546E+02  0.14901929586E+03  0.12000000000E+03 0.  0.
         25    1    3    3    0    0  0.61542043636E+02  0.27070761945E+02 -0.68345755191E+02  0.15359489425E+03  0.12000000000E+03 0.  0.
<mgrwt>
<rscale>  0 0.27528431E+03</rscale>
<asrwt>0</asrwt>
<pdfrwt beam="1">  1        1 0.13610801E-01 0.27528431E+03</pdfrwt>
<pdfrwt beam="2">  1       -1 0.32945228E-01 0.27528431E+03</pdfrwt>
<totfact> 0.36663432E+03</totfact>
</mgrwt>
</event>
<event>
 5    1  0.1100736E+001  0.2748332E+03  0.7818608E-02  0.1098545E+00
         -1   -1    0    0    0  501 -0.00000000000E+00  0.00000000000E+00  0.31686899224E+02  0.31686899224E+02  0.00000000000E+00 0.  1.
          1   -1    0    0  501    0  0.00000000000E+00 -0.00000000000E+00 -0.59593466270E+03  0.59593466270E+03  0.00000000000E+00 0.  1.
         35    2    1    2    0    0  0.00000000000E+00  0.00000000000E+00 -0.56424776347E+03  0.62762156192E+03  0.27483319742E+03 0.  0.
         25    1    3    3    0    0 -0.25704029395E+02  0.58594077963E+02 -0.32718515879E+03  0.35432201630E+03  0.12000000000E+03 0.  0.
         25    1    3    3    0    0  0.25704029395E+02 -0.58594077963E+02 -0.23706260468E+03  0.27329954562E+03  0.12000000000E+03 0.  0.
<mgrwt>
<rscale>  0 0.27483320E+03</rscale>
<asrwt>0</asrwt>
<pdfrwt beam="1">  1        1 0.91682259E-01 0.27483320E+03</pdfrwt>
<pdfrwt beam="2">  1       -1 0.48749074E-02 0.27483320E+03</pdfrwt>
<totfact> 0.64677682E+03</totfact>
</mgrwt>
</event>
<event>
 5    1  0.1100736E+001  0.2754517E+03  0.7818608E-02  0.1098199E+00
         -1   -1    0    0    0  501 -0.00000000000E+00  0.00000000000E+00  0.20117955151E+02  0.20117955151E+02  0.00000000000E+00 0.  1.
          1   -1    0    0  501    0  0.00000000000E+00 -0.00000000000E+00 -0.94285997289E+03  0.94285997289E+03  0.00000000000E+00 0.  1.
         35    2    1    2    0    0  0.00000000000E+00  0.00000000000E+00 -0.92274201774E+03  0.96297792804E+03  0.27545173550E+03 0.  0.
         25    1    3    3    0    0 -0.32882747470E+02  0.57522945522E+02 -0.41469583321E+03  0.43676400770E+03  0.12000000000E+03 0.  0.
         25    1    3    3    0    0  0.32882747470E+02 -0.57522945522E+02 -0.50804618453E+03  0.52621392034E+03  0.12000000000E+03 0.  0.
<mgrwt>
<rscale>  0 0.27545174E+03</rscale>
<asrwt>0</asrwt>
<pdfrwt beam="1">  1        1 0.14505537E+00 0.27545174E+03</pdfrwt>
<pdfrwt beam="2">  1       -1 0.30950702E-02 0.27545174E+03</pdfrwt>
<totfact> 0.63615611E+03</totfact>
</mgrwt>
</event>
<event>
 5    1  0.1100736E+001  0.2775018E+03  0.7818608E-02  0.1097061E+00
         -2   -1    0    0    0  501 -0.00000000000E+00  0.00000000000E+00  0.19299790002E+02  0.19299790002E+02  0.00000000000E+00 0.  1.
          2   -1    0    0  501    0  0.00000000000E+00 -0.00000000000E+00 -0.99751421158E+03  0.99751421158E+03  0.00000000000E+00 0.  1.
         35    2    1    2    0    0  0.00000000000E+00  0.00000000000E+00 -0.97821442158E+03  0.10168140016E+04  0.27750181842E+03 0.  0.
         25    1    3    3    0    0 -0.11574941983E+02  0.25963023258E+02 -0.25610061943E+03  0.28424564224E+03  0.12000000000E+03 0.  0.
         25    1    3    3    0    0  0.11574941983E+02 -0.25963023258E+02 -0.72211380215E+03  0.73256835934E+03  0.12000000000E+03 0.  0.
<mgrwt>
<rscale>  0 0.27750182E+03</rscale>
<asrwt>0</asrwt>
<pdfrwt beam="1">  1        2 0.15346378E+00 0.27750182E+03</pdfrwt>
<pdfrwt beam="2">  1       -2 0.29691975E-02 0.27750182E+03</pdfrwt>
<totfact> 0.11310144E+04</totfact>
</mgrwt>
</event>
<event>
 5    1  0.1100736E+001  0.2743577E+03  0.7818608E-02  0.1098811E+00
         -1   -1    0    0    0  501 -0.00000000000E+00  0.00000000000E+00  0.49140029812E+02  0.49140029812E+02  0.00000000000E+00 0. -1.
          1   -1    0    0  501    0  0.00000000000E+00 -0.00000000000E+00 -0.38294708607E+03  0.38294708607E+03  0.00000000000E+00 0. -1.
         35    2    1    2    0    0  0.00000000000E+00  0.00000000000E+00 -0.33380705626E+03  0.43208711588E+03  0.27435765873E+03 0.  0.
         25    1    3    3    0    0  0.45533246640E+02  0.47599253348E+02 -0.15289964604E+03  0.20522491863E+03  0.12000000000E+03 0.  0.
         25    1    3    3    0    0 -0.45533246640E+02 -0.47599253348E+02 -0.18090741022E+03  0.22686219725E+03  0.12000000000E+03 0.  0.
<mgrwt>
<rscale>  0 0.27435766E+03</rscale>
<asrwt>0</asrwt>
<pdfrwt beam="1">  1        1 0.58914935E-01 0.27435766E+03</pdfrwt>
<pdfrwt beam="2">  1       -1 0.75600047E-02 0.27435766E+03</pdfrwt>
<totfact> 0.59838648E+03</totfact>
</mgrwt>
</event>
<event>
 5    1  0.1100736E+001  0.2770970E+03  0.7818608E-02  0.1097285E+00
         -2   -1    0    0    0  501 -0.00000000000E+00  0.00000000000E+00  0.15536004729E+03  0.15536004729E+03  0.00000000000E+00 0.  1.
          2   -1    0    0  501    0  0.00000000000E+00 -0.00000000000E+00 -0.12355614799E+03  0.12355614799E+03  0.00000000000E+00 0.  1.
         35    2    1    2    0    0  0.00000000000E+00  0.00000000000E+00  0.31803899306E+02  0.27891619528E+03  0.27709701546E+03 0.  0.
         25    1    3    3    0    0  0.34511658184E+02  0.67932745184E+01 -0.44142726487E+02  0.13261140008E+03  0.12000000000E+03 0.  0.
         25    1    3    3    0    0 -0.34511658184E+02 -0.67932745184E+01  0.75946625793E+02  0.14630479520E+03  0.12000000000E+03 0.  0.
<mgrwt>
<rscale>  0 0.27709702E+03</rscale>
<asrwt>0</asrwt>
<pdfrwt beam="1">  1        2 0.19008638E-01 0.27709702E+03</pdfrwt>
<pdfrwt beam="2">  1       -2 0.23901546E-01 0.27709702E+03</pdfrwt>
<totfact> 0.45080744E+03</totfact>
</mgrwt>
</event>
<event>
 5    1  0.1100736E+001  0.2753033E+03  0.7818608E-02  0.1098282E+00
          1   -1    0    0  501    0  0.00000000000E+00  0.00000000000E+00  0.54955578241E+02  0.54955578241E+02  0.00000000000E+00 0. -1.
         -1   -1    0    0    0  501 -0.00000000000E+00 -0.00000000000E+00 -0.34478714844E+03  0.34478714844E+03  0.00000000000E+00 0. -1.
         35    2    1    2    0    0  0.00000000000E+00  0.00000000000E+00 -0.28983157020E+03  0.39974272668E+03  0.27530330265E+03 0.  0.
         25    1    3    3    0    0  0.60438253746E+02  0.18838981071E+02 -0.17866639027E+03  0.22434207973E+03  0.12000000000E+03 0.  0.
         25    1    3    3    0    0 -0.60438253746E+02 -0.18838981071E+02 -0.11116517993E+03  0.17540064695E+03  0.12000000000E+03 0.  0.
<mgrwt>
<rscale>  0 0.27530330E+03</rscale>
<asrwt>0</asrwt>
<pdfrwt beam="1">  1        1 0.84547044E-02 0.27530330E+03</pdfrwt>
<pdfrwt beam="2">  1       -1 0.53044177E-01 0.27530330E+03</pdfrwt>
<totfact> 0.29545735E+03</totfact>
</mgrwt>
</event>
<event>
 5    1  0.1100736E+001  0.2745341E+03  0.7818608E-02  0.1098712E+00
         -1   -1    0    0    0  501 -0.00000000000E+00  0.00000000000E+00  0.73191254421E+01  0.73191254421E+01  0.00000000000E+00 0. -1.
          1   -1    0    0  501    0  0.00000000000E+00 -0.00000000000E+00 -0.25743839225E+04  0.25743839225E+04  0.00000000000E+00 0. -1.
         35    2    1    2    0    0  0.00000000000E+00  0.00000000000E+00 -0.25670647970E+04  0.25817030479E+04  0.27453406976E+03 0.  0.
         25    1    3    3    0    0 -0.22942298213E+02  0.38688196400E+02 -0.17460605189E+04  0.17507571109E+04  0.12000000000E+03 0.  0.
         25    1    3    3    0    0  0.22942298213E+02 -0.38688196400E+02 -0.82100427810E+03  0.83094593702E+03  0.12000000000E+03 0.  0.
<mgrwt>
<rscale>  0 0.27453407E+03</rscale>
<asrwt>0</asrwt>
<pdfrwt beam="1">  1        1 0.39605940E+00 0.27453407E+03</pdfrwt>
<pdfrwt beam="2">  1       -1 0.11260184E-02 0.27453407E+03</pdfrwt>
<totfact> 0.22401454E+03</totfact>
</mgrwt>
</event>
<event>
 5    1  0.1100736E+001  0.2758043E+03  0.7818608E-02  0.1098003E+00
         -1   -1    0    0    0  501 -0.00000000000E+00  0.00000000000E+00  0.10434460316E+03  0.10434460316E+03  0.00000000000E+00 0. -1.
          1   -1    0    0  501    0  0.00000000000E+00 -0.00000000000E+00 -0.18225185578E+03  0.18225185578E+03  0.00000000000E+00 0. -1.
         35    2    1    2    0    0  0.00000000000E+00  0.00000000000E+00 -0.77907252623E+02  0.28659645893E+03  0.27580426078E+03 0.  0.
         25    1    3    3    0    0  0.29026682570E+01 -0.38796799104E+02 -0.96841468313E+02  0.15903423244E+03  0.12000000000E+03 0.  0.
         25    1    3    3    0    0 -0.29026682570E+01  0.38796799104E+02  0.18934215690E+02  0.12756222649E+03  0.12000000000E+03 0.  0.
<mgrwt>
<rscale>  0 0.27580426E+03</rscale>
<asrwt>0</asrwt>
<pdfrwt beam="1">  1        1 0.28038747E-01 0.27580426E+03</pdfrwt>
<pdfrwt beam="2">  1       -1 0.16053016E-01 0.27580426E+03</pdfrwt>
<totfact> 0.47284382E+03</totfact>
</mgrwt>
</event>
<event>
 5    1  0.1100736E+001  0.2762563E+03  0.7818608E-02  0.1097751E+00
         -1   -1    0    0    0  501 -0.00000000000E+00  0.00000000000E+00  0.28474424519E+03  0.28474424519E+03  0.00000000000E+00 0. -1.
          1   -1    0    0  501    0  0.00000000000E+00 -0.00000000000E+00 -0.67005367076E+02  0.67005367076E+02  0.00000000000E+00 0. -1.
         35    2    1    2    0    0  0.00000000000E+00  0.00000000000E+00  0.21773887812E+03  0.35174961227E+03  0.27625634959E+03 0.  0.
         25    1    3    3    0    0  0.20642708031E+02  0.55059264492E+02  0.15337479678E+03  0.20342436503E+03  0.12000000000E+03 0.  0.
         25    1    3    3    0    0 -0.20642708031E+02 -0.55059264492E+02  0.64364081334E+02  0.14832524723E+03  0.12000000000E+03 0.  0.
<mgrwt>
<rscale>  0 0.27625635E+03</rscale>
<asrwt>0</asrwt>
<pdfrwt beam="1">  1        1 0.10308518E-01 0.27625635E+03</pdfrwt>
<pdfrwt beam="2">  1       -1 0.43806806E-01 0.27625635E+03</pdfrwt>
<totfact> 0.32135435E+03</totfact>
</mgrwt>
</event>
<event>
 5    1  0.1100736E+001  0.2733459E+03  0.7818608E-02  0.1099380E+00
         -1   -1    0    0    0  501 -0.00000000000E+00  0.00000000000E+00  0.15902922027E+02  0.15902922027E+02  0.00000000000E+00 0.  1.
          1   -1    0    0  501    0  0.00000000000E+00 -0.00000000000E+00 -0.11745950326E+04  0.11745950326E+04  0.00000000000E+00 0.  1.
         35    2    1    2    0    0  0.00000000000E+00  0.00000000000E+00 -0.11586921105E+04  0.11904979546E+04  0.27334588504E+03 0.  0.
         25    1    3    3    0    0 -0.13734159390E+02 -0.60935647613E+02 -0.49470188726E+03  0.51286619848E+03  0.12000000000E+03 0.  0.
         25    1    3    3    0    0  0.13734159390E+02  0.60935647613E+02 -0.66399022327E+03  0.67763175611E+03  0.12000000000E+03 0.  0.
<mgrwt>
<rscale>  0 0.27334589E+03</rscale>
<asrwt>0</asrwt>
<pdfrwt beam="1">  1        1 0.18070695E+00 0.27334589E+03</pdfrwt>
<pdfrwt beam="2">  1       -1 0.24466031E-02 0.27334589E+03</pdfrwt>
<totfact> 0.60809651E+03</totfact>
</mgrwt>
</event>
<event>
 5    1  0.1100736E+001  0.2739524E+03  0.7818608E-02  0.1099039E+00
          2   -1    0    0  501    0  0.00000000000E+00  0.00000000000E+00  0.10449538920E+04  0.10449538920E+04  0.00000000000E+00 0.  1.
         -2   -1    0    0    0  501 -0.00000000000E+00 -0.00000000000E+00 -0.17955321655E+02  0.17955321655E+02  0.00000000000E+00 0.  1.
         35    2    1    2    0    0  0.00000000000E+00  0.00000000000E+00  0.10269985703E+04  0.10629092137E+04  0.27395242832E+03 0.  0.
         25    1    3    3    0    0  0.93811399971E+01  0.40903111686E+02  0.71139011200E+03  0.72265964450E+03  0.12000000000E+03 0.  0.
         25    1    3    3    0    0 -0.93811399971E+01 -0.40903111686E+02  0.31560845835E+03  0.34024956916E+03  0.12000000000E+03 0.  0.
<mgrwt>
<rscale>  0 0.27395243E+03</rscale>
<asrwt>0</asrwt>
<pdfrwt beam="1">  1        2 0.16076209E+00 0.27395243E+03</pdfrwt>
<pdfrwt beam="2">  1       -2 0.27623580E-02 0.27395243E+03</pdfrwt>
<totfact> 0.11779118E+04</totfact>
</mgrwt>
</event>
<event>
 5    1  0.1100736E+001  0.2753221E+03  0.7818608E-02  0.1098272E+00
          1   -1    0    0  501    0  0.00000000000E+00  0.00000000000E+00  0.52540795800E+03  0.52540795800E+03  0.00000000000E+00 0. -1.
         -1   -1    0    0    0  501 -0.00000000000E+00 -0.00000000000E+00 -0.36068295664E+02  0.36068295664E+02  0.00000000000E+00 0. -1.
         35    2    1    2    0    0  0.00000000000E+00  0.00000000000E+00  0.48933966234E+03  0.56147625367E+03  0.27532213549E+03 0.  0.
         25    1    3    3    0    0  0.17887477948E+02  0.54646644414E+02  0.31660841469E+03  0.34343428172E+03  0.12000000000E+03 0.  0.
         25    1    3    3    0    0 -0.17887477948E+02 -0.54646644414E+02  0.17273124765E+03  0.21804197194E+03  0.12000000000E+03 0.  0.
<mgrwt>
<rscale>  0 0.27532214E+03</rscale>
<asrwt>0</asrwt>
<pdfrwt beam="1">  1        1 0.80831988E-01 0.27532214E+03</pdfrwt>
<pdfrwt beam="2">  1       -1 0.55489690E-02 0.27532214E+03</pdfrwt>
<totfact> 0.63239624E+03</totfact>
</mgrwt>
</event>
<event>
 5    1  0.1100736E+001  0.2749067E+03  0.7818608E-02  0.1098504E+00
          2   -1    0    0  501    0  0.00000000000E+00  0.00000000000E+00  0.28386311196E+03  0.28386311196E+03  0.00000000000E+00 0.  1.
         -2   -1    0    0    0  501 -0.00000000000E+00 -0.00000000000E+00 -0.66558241171E+02  0.66558241171E+02  0.00000000000E+00 0.  1.
         35    2    1    2    0    0  0.00000000000E+00  0.00000000000E+00  0.21730487079E+03  0.35042135313E+03  0.27490674394E+03 0.  0.
         25    1    3    3    0    0 -0.25850404316E+02  0.47809082038E+02  0.15866646820E+03  0.20622560428E+03  0.12000000000E+03 0.  0.
         25    1    3    3    0    0  0.25850404316E+02 -0.47809082038E+02  0.58638402586E+02  0.14419574885E+03  0.12000000000E+03 0.  0.
<mgrwt>
<rscale>  0 0.27490674E+03</rscale>
<asrwt>0</asrwt>
<pdfrwt beam="1">  1        2 0.43671247E-01 0.27490674E+03</pdfrwt>
<pdfrwt beam="2">  1       -2 0.10239730E-01 0.27490674E+03</pdfrwt>
<totfact> 0.73622070E+03</totfact>
</mgrwt>
</event>
<event>
 5    1  0.1100736E+001  0.2753923E+03  0.7818608E-02  0.1098233E+00
          2   -1    0    0  501    0  0.00000000000E+00  0.00000000000E+00  0.54943112854E+03  0.54943112854E+03  0.00000000000E+00 0.  1.
         -2   -1    0    0    0  501 -0.00000000000E+00 -0.00000000000E+00 -0.34508837614E+02  0.34508837614E+02  0.00000000000E+00 0.  1.
         35    2    1    2    0    0  0.00000000000E+00  0.00000000000E+00  0.51492229093E+03  0.58393996616E+03  0.27539229906E+03 0.  0.
         25    1    3    3    0    0 -0.13295934406E+02  0.50224411513E+02  0.16598992246E+03  0.21131002755E+03  0.12000000000E+03 0.  0.
         25    1    3    3    0    0  0.13295934406E+02 -0.50224411513E+02  0.34893236847E+03  0.37262993861E+03  0.12000000000E+03 0.  0.
<mgrwt>
<rscale>  0 0.27539230E+03</rscale>
<asrwt>0</asrwt>
<pdfrwt beam="1">  1        2 0.84527860E-01 0.27539230E+03</pdfrwt>
<pdfrwt beam="2">  1       -2 0.53090523E-02 0.27539230E+03</pdfrwt>
<totfact> 0.99336471E+03</totfact>
</mgrwt>
</event>
<event>
 5    1  0.1100736E+001  0.2750646E+03  0.7818608E-02  0.1098416E+00
          2   -1    0    0  501    0  0.00000000000E+00  0.00000000000E+00  0.21657067018E+04  0.21657067018E+04  0.00000000000E+00 0. -1.
         -2   -1    0    0    0  501 -0.00000000000E+00 -0.00000000000E+00 -0.87339293895E+01  0.87339293895E+01  0.00000000000E+00 0. -1.
         35    2    1    2    0    0  0.00000000000E+00  0.00000000000E+00  0.21569727724E+04  0.21744406312E+04  0.27506456996E+03 0.  0.
         25    1    3    3    0    0 -0.10526441014E+02  0.15511499455E+02  0.15885842370E+04  0.15932204150E+04  0.12000000000E+03 0.  0.
         25    1    3    3    0    0  0.10526441014E+02 -0.15511499455E+02  0.56838853537E+03  0.58122021620E+03  0.12000000000E+03 0.  0.
<mgrwt>
<rscale>  0 0.27506457E+03</rscale>
<asrwt>0</asrwt>
<pdfrwt beam="1">  1        2 0.33318522E+00 0.27506457E+03</pdfrwt>
<pdfrwt beam="2">  1       -2 0.13436832E-02 0.27506457E+03</pdfrwt>
<totfact> 0.84161791E+03</totfact>
</mgrwt>
</event>
<event>
 5    1  0.1100736E+001  0.2762505E+03  0.7818608E-02  0.1097755E+00
         -2   -1    0    0    0  501 -0.00000000000E+00  0.00000000000E+00  0.15962069751E+02  0.15962069751E+02  0.00000000000E+00 0. -1.
          2   -1    0    0  501    0  0.00000000000E+00 -0.00000000000E+00 -0.11952452708E+04  0.11952452708E+04  0.00000000000E+00 0. -1.
         35    2    1    2    0    0  0.00000000000E+00  0.00000000000E+00 -0.11792832011E+04  0.12112073406E+04  0.27625052675E+03 0.  0.
         25    1    3    3    0    0  0.64085105518E+02  0.23909925862E+02 -0.58939833257E+03  0.60536681421E+03  0.12000000000E+03 0.  0.
         25    1    3    3    0    0 -0.64085105518E+02 -0.23909925862E+02 -0.58988486848E+03  0.60584052635E+03  0.12000000000E+03 0.  0.
<mgrwt>
<rscale>  0 0.27625053E+03</rscale>
<asrwt>0</asrwt>
<pdfrwt beam="1">  1        2 0.18388397E+00 0.27625053E+03</pdfrwt>
<pdfrwt beam="2">  1       -2 0.24557019E-02 0.27625053E+03</pdfrwt>
<totfact> 0.11460956E+04</totfact>
</mgrwt>
</event>
<event>
 5    1  0.1100736E+001  0.2749027E+03  0.7818608E-02  0.1098506E+00
          1   -1    0    0  501    0  0.00000000000E+00  0.00000000000E+00  0.11949324766E+03  0.11949324766E+03  0.00000000000E+00 0.  1.
         -1   -1    0    0    0  501 -0.00000000000E+00 -0.00000000000E+00 -0.15810827734E+03  0.15810827734E+03  0.00000000000E+00 0.  1.
         35    2    1    2    0    0  0.00000000000E+00  0.00000000000E+00 -0.38615029688E+02  0.27760152500E+03  0.27490268490E+03 0.  0.
         25    1    3    3    0    0 -0.10712726696E+00 -0.73086083980E+01  0.47975767855E+02  0.12944149850E+03  0.12000000000E+03 0.  0.
         25    1    3    3    0    0  0.10712726696E+00  0.73086083980E+01 -0.86590797543E+02  0.14816002650E+03  0.12000000000E+03 0.  0.
<mgrwt>
<rscale>  0 0.27490268E+03</rscale>
<asrwt>0</asrwt>
<pdfrwt beam="1">  1        1 0.18383577E-01 0.27490268E+03</pdfrwt>
<pdfrwt beam="2">  1       -1 0.24324350E-01 0.27490268E+03</pdfrwt>
<totfact> 0.41307485E+03</totfact>
</mgrwt>
</event>
<event>
 5    1  0.1100736E+001  0.2750420E+03  0.7818608E-02  0.1098428E+00
          2   -1    0    0  501    0  0.00000000000E+00  0.00000000000E+00  0.21569291683E+03  0.21569291683E+03  0.00000000000E+00 0. -1.
         -2   -1    0    0    0  501 -0.00000000000E+00 -0.00000000000E+00 -0.87680306567E+02  0.87680306567E+02  0.00000000000E+00 0. -1.
         35    2    1    2    0    0  0.00000000000E+00  0.00000000000E+00  0.12801261026E+03  0.30337322339E+03  0.27504196823E+03 0.  0.
         25    1    3    3    0    0  0.13857919758E+02  0.65725550880E+02  0.64405668479E+02  0.15185512869E+03  0.12000000000E+03 0.  0.
         25    1    3    3    0    0 -0.13857919758E+02 -0.65725550880E+02  0.63606941780E+02  0.15151809470E+03  0.12000000000E+03 0.  0.
<mgrwt>
<rscale>  0 0.27504197E+03</rscale>
<asrwt>0</asrwt>
<pdfrwt beam="1">  1        2 0.33183526E-01 0.27504197E+03</pdfrwt>
<pdfrwt beam="2">  1       -2 0.13489278E-01 0.27504197E+03</pdfrwt>
<totfact> 0.63535684E+03</totfact>
</mgrwt>
</event>
<event>
 5    1  0.1100736E+001  0.2662176E+03  0.7818608E-02  0.1103464E+00
         -1   -1    0    0    0  501 -0.00000000000E+00  0.00000000000E+00  0.78958986141E+01  0.78958986141E+01  0.00000000000E+00 0. -1.
          1   -1    0    0  501    0  0.00000000000E+00 -0.00000000000E+00 -0.22439435816E+04  0.22439435816E+04  0.00000000000E+00 0. -1.
         35    2    1    2    0    0  0.00000000000E+00  0.00000000000E+00 -0.22360476830E+04  0.22518394802E+04  0.26621758782E+03 0.  0.
         25    1    3    3    0    0 -0.26944075319E+02 -0.49181996166E+02 -0.12293117698E+04  0.12364272236E+04  0.12000000000E+03 0.  0.
         25    1    3    3    0    0  0.26944075319E+02  0.49181996166E+02 -0.10067359132E+04  0.10154122566E+04  0.12000000000E+03 0.  0.
<mgrwt>
<rscale>  0 0.26621759E+03</rscale>
<asrwt>0</asrwt>
<pdfrwt beam="1">  1        1 0.34522228E+00 0.26621759E+03</pdfrwt>
<pdfrwt beam="2">  1       -1 0.12147530E-02 0.26621759E+03</pdfrwt>
<totfact> 0.33192975E+03</totfact>
</mgrwt>
</event>
<event>
 4    1  0.1100736E+001  0.2591304E+03  0.7818608E-02  0.1107667E+00
         -2   -1    0    0    0  501 -0.00000000000E+00  0.00000000000E+00  0.12291072668E+04  0.12291072668E+04  0.00000000000E+00 0. -1.
          2   -1    0    0  501    0  0.00000000000E+00 -0.00000000000E+00 -0.13657992450E+02  0.13657992450E+02  0.00000000000E+00 0. -1.
         25    1    1    2    0    0  0.39235732313E+02 -0.20062227071E+02  0.70891738660E+03  0.72035116205E+03  0.12000000000E+03 0.  0.
         25    1    1    2    0    0 -0.39235732313E+02  0.20062227071E+02  0.50653188778E+03  0.52241409723E+03  0.12000000000E+03 0.  0.
<mgrwt>
<rscale>  0 0.25913037E+03</rscale>
<asrwt>0</asrwt>
<pdfrwt beam="1">  1        2 0.21012306E-02 0.25913037E+03</pdfrwt>
<pdfrwt beam="2">  1       -2 0.18909334E+00 0.25913037E+03</pdfrwt>
<totfact> 0.86532565E+02</totfact>
</mgrwt>
</event>
<event>
 5    1  0.1100736E+001  0.2751365E+03  0.7818608E-02  0.1098375E+00
         -2   -1    0    0    0  501 -0.00000000000E+00  0.00000000000E+00  0.29178975514E+02  0.29178975514E+02  0.00000000000E+00 0.  1.
          2   -1    0    0  501    0  0.00000000000E+00 -0.00000000000E+00 -0.64858423193E+03  0.64858423193E+03  0.00000000000E+00 0.  1.
         35    2    1    2    0    0  0.00000000000E+00  0.00000000000E+00 -0.61940525642E+03  0.67776320744E+03  0.27513650010E+03 0.  0.
         25    1    3    3    0    0  0.62164738017E+02 -0.22559047561E+02 -0.27936632564E+03  0.31115737044E+03  0.12000000000E+03 0.  0.
         25    1    3    3    0    0 -0.62164738017E+02  0.22559047561E+02 -0.34003893078E+03  0.36660583700E+03  0.12000000000E+03 0.  0.
<mgrwt>
<rscale>  0 0.27513650E+03</rscale>
<asrwt>0</asrwt>
<pdfrwt beam="1">  1        2 0.99782184E-01 0.27513650E+03</pdfrwt>
<pdfrwt beam="2">  1       -2 0.44890734E-02 0.27513650E+03</pdfrwt>
<totfact> 0.10569554E+04</totfact>
</mgrwt>
</event>
<event>
 5    1  0.1100736E+001  0.2742882E+03  0.7818608E-02  0.1098850E+00
         -1   -1    0    0    0  501 -0.00000000000E+00  0.00000000000E+00  0.15170266144E+03  0.15170266144E+03  0.00000000000E+00 0. -1.
          1   -1    0    0  501    0  0.00000000000E+00 -0.00000000000E+00 -0.12398272803E+03  0.12398272803E+03  0.00000000000E+00 0. -1.
         35    2    1    2    0    0  0.00000000000E+00  0.00000000000E+00  0.27719933408E+02  0.27568538948E+03  0.27428824120E+03 0.  0.
         25    1    3    3    0    0  0.53312220903E+02 -0.42039189906E+01 -0.25693299796E+02  0.13386564715E+03  0.12000000000E+03 0.  0.
         25    1    3    3    0    0 -0.53312220903E+02  0.42039189906E+01  0.53413233204E+02  0.14181974233E+03  0.12000000000E+03 0.  0.
<mgrwt>
<rscale>  0 0.27428824E+03</rscale>
<asrwt>0</asrwt>
<pdfrwt beam="1">  1        1 0.19074266E-01 0.27428824E+03</pdfrwt>
<pdfrwt beam="2">  1       -1 0.23338871E-01 0.27428824E+03</pdfrwt>
<totfact> 0.42168777E+03</totfact>
</mgrwt>
</event>
<event>
 5    1  0.1100736E+001  0.2730431E+03  0.7818608E-02  0.1099550E+00
          2   -1    0    0  501    0  0.00000000000E+00  0.00000000000E+00  0.64720547853E+03  0.64720547853E+03  0.00000000000E+00 0. -1.
         -2   -1    0    0    0  501 -0.00000000000E+00 -0.00000000000E+00 -0.28797866376E+02  0.28797866376E+02  0.00000000000E+00 0. -1.
         35    2    1    2    0    0  0.00000000000E+00  0.00000000000E+00  0.61840761215E+03  0.67600334490E+03  0.27304312398E+03 0.  0.
         25    1    3    3    0    0 -0.32126920216E+01  0.61298281153E+02  0.36289731861E+03  0.38712047804E+03  0.12000000000E+03 0.  0.
         25    1    3    3    0    0  0.32126920216E+01 -0.61298281153E+02  0.25551029354E+03  0.28888286686E+03  0.12000000000E+03 0.  0.
<mgrwt>
<rscale>  0 0.27304312E+03</rscale>
<asrwt>0</asrwt>
<pdfrwt beam="1">  1        2 0.99570063E-01 0.27304312E+03</pdfrwt>
<pdfrwt beam="2">  1       -2 0.44304415E-02 0.27304312E+03</pdfrwt>
<totfact> 0.10805821E+04</totfact>
</mgrwt>
</event>
<event>
 5    1  0.1100736E+001  0.2750530E+03  0.7818608E-02  0.1098422E+00
         -1   -1    0    0    0  501 -0.00000000000E+00  0.00000000000E+00  0.27153450504E+03  0.27153450504E+03  0.00000000000E+00 0. -1.
          1   -1    0    0  501    0  0.00000000000E+00 -0.00000000000E+00 -0.69654254945E+02  0.69654254945E+02  0.00000000000E+00 0. -1.
         35    2    1    2    0    0  0.00000000000E+00  0.00000000000E+00  0.20188025010E+03  0.34118875999E+03  0.27505296683E+03 0.  0.
         25    1    3    3    0    0  0.42306658101E+02 -0.30352670947E+02  0.48277385034E+02  0.13943401256E+03  0.12000000000E+03 0.  0.
         25    1    3    3    0    0 -0.42306658101E+02  0.30352670947E+02  0.15360286506E+03  0.20175474743E+03  0.12000000000E+03 0.  0.
<mgrwt>
<rscale>  0 0.27505297E+03</rscale>
<asrwt>0</asrwt>
<pdfrwt beam="1">  1        1 0.10716039E-01 0.27505297E+03</pdfrwt>
<pdfrwt beam="2">  1       -1 0.41774539E-01 0.27505297E+03</pdfrwt>
<totfact> 0.33221385E+03</totfact>
</mgrwt>
</event>
<event>
 5    1  0.1100736E+001  0.2734677E+03  0.7818608E-02  0.1099311E+00
          2   -1    0    0  501    0  0.00000000000E+00  0.00000000000E+00  0.90129613284E+03  0.90129613284E+03  0.00000000000E+00 0. -1.
         -2   -1    0    0    0  501 -0.00000000000E+00 -0.00000000000E+00 -0.20743627893E+02  0.20743627893E+02  0.00000000000E+00 0. -1.
         35    2    1    2    0    0  0.00000000000E+00  0.00000000000E+00  0.88055250495E+03  0.92203976074E+03  0.27346774290E+03 0.  0.
         25    1    3    3    0    0  0.23058690781E+02 -0.39282930907E+02  0.28136775395E+03  0.30926148296E+03  0.12000000000E+03 0.  0.
         25    1    3    3    0    0 -0.23058690781E+02  0.39282930907E+02  0.59918475100E+03  0.61277827777E+03  0.12000000000E+03 0.  0.
<mgrwt>
<rscale>  0 0.27346774E+03</rscale>
<asrwt>0</asrwt>
<pdfrwt beam="1">  1        2 0.13866091E+00 0.27346774E+03</pdfrwt>
<pdfrwt beam="2">  1       -2 0.31913281E-02 0.27346774E+03</pdfrwt>
<totfact> 0.11670228E+04</totfact>
</mgrwt>
</event>
<event>
 5    1  0.1100736E+001  0.2746902E+03  0.7818608E-02  0.1098625E+00
          1   -1    0    0  501    0  0.00000000000E+00  0.00000000000E+00  0.86553329685E+03  0.86553329685E+03  0.00000000000E+00 0.  1.
         -1   -1    0    0    0  501 -0.00000000000E+00 -0.00000000000E+00 -0.21794277608E+02  0.21794277608E+02  0.00000000000E+00 0.  1.
         35    2    1    2    0    0  0.00000000000E+00  0.00000000000E+00  0.84373901924E+03  0.88732757446E+03  0.27469017420E+03 0.  0.
         25    1    3    3    0    0 -0.45497084052E+02 -0.42881789126E+02  0.34577997770E+03  0.37131203250E+03  0.12000000000E+03 0.  0.
         25    1    3    3    0    0  0.45497084052E+02  0.42881789126E+02  0.49795904154E+03  0.51601554196E+03  0.12000000000E+03 0.  0.
<mgrwt>
<rscale>  0 0.27469017E+03</rscale>
<asrwt>0</asrwt>
<pdfrwt beam="1">  1        1 0.13315894E+00 0.27469017E+03</pdfrwt>
<pdfrwt beam="2">  1       -1 0.33529664E-02 0.27469017E+03</pdfrwt>
<totfact> 0.64982262E+03</totfact>
</mgrwt>
</event>
<event>
 5    1  0.1100736E+001  0.2742193E+03  0.7818608E-02  0.1098889E+00
         -2   -1    0    0    0  501 -0.00000000000E+00  0.00000000000E+00  0.11715457355E+02  0.11715457355E+02  0.00000000000E+00 0. -1.
          2   -1    0    0  501    0  0.00000000000E+00 -0.00000000000E+00 -0.16046366463E+04  0.16046366463E+04  0.00000000000E+00 0. -1.
         35    2    1    2    0    0  0.00000000000E+00  0.00000000000E+00 -0.15929211889E+04  0.16163521036E+04  0.27421927138E+03 0.  0.
         25    1    3    3    0    0  0.50436974624E+02  0.79600638979E+01 -0.54695349445E+03  0.56228584912E+03  0.12000000000E+03 0.  0.
         25    1    3    3    0    0 -0.50436974624E+02 -0.79600638979E+01 -0.10459676945E+04  0.10540662545E+04  0.12000000000E+03 0.  0.
<mgrwt>
<rscale>  0 0.27421927E+03</rscale>
<asrwt>0</asrwt>
<pdfrwt beam="1">  1        2 0.24686727E+00 0.27421927E+03</pdfrwt>
<pdfrwt beam="2">  1       -2 0.18023773E-02 0.27421927E+03</pdfrwt>
<totfact> 0.10810817E+04</totfact>
</mgrwt>
</event>
<event>
 5    1  0.1100736E+001  0.2716501E+03  0.7818608E-02  0.1100339E+00
         -1   -1    0    0    0  501 -0.00000000000E+00  0.00000000000E+00  0.33023370793E+02  0.33023370793E+02  0.00000000000E+00 0.  1.
          1   -1    0    0  501    0  0.00000000000E+00 -0.00000000000E+00 -0.55864817116E+03  0.55864817116E+03  0.00000000000E+00 0.  1.
         35    2    1    2    0    0  0.00000000000E+00  0.00000000000E+00 -0.52562480036E+03  0.59167154195E+03  0.27165011098E+03 0.  0.
         25    1    3    3    0    0  0.13517025078E+02  0.46003279623E+02 -0.17171214883E+03  0.21490480162E+03  0.12000000000E+03 0.  0.
         25    1    3    3    0    0 -0.13517025078E+02 -0.46003279623E+02 -0.35391265154E+03  0.37676674033E+03  0.12000000000E+03 0.  0.
<mgrwt>
<rscale>  0 0.27165011E+03</rscale>
<asrwt>0</asrwt>
<pdfrwt beam="1">  1        1 0.85945876E-01 0.27165011E+03</pdfrwt>
<pdfrwt beam="2">  1       -1 0.50805184E-02 0.27165011E+03</pdfrwt>
<totfact> 0.66417786E+03</totfact>
</mgrwt>
</event>
<event>
 5    1  0.1100736E+001  0.2790361E+03  0.7818608E-02  0.1096217E+00
         -2   -1    0    0    0  501 -0.00000000000E+00  0.00000000000E+00  0.33208885247E+02  0.33208885247E+02  0.00000000000E+00 0.  1.
          2   -1    0    0  501    0  0.00000000000E+00 -0.00000000000E+00 -0.58614704438E+03  0.58614704438E+03  0.00000000000E+00 0.  1.
         35    2    1    2    0    0  0.00000000000E+00  0.00000000000E+00 -0.55293815914E+03  0.61935592963E+03  0.27903612623E+03 0.  0.
         25    1    3    3    0    0  0.61381025719E+02 -0.15984786821E+02 -0.34812369868E+03  0.37364856926E+03  0.12000000000E+03 0.  0.
         25    1    3    3    0    0 -0.61381025719E+02  0.15984786821E+02 -0.20481446045E+03  0.24570736037E+03  0.12000000000E+03 0.  0.
<mgrwt>
<rscale>  0 0.27903613E+03</rscale>
<asrwt>0</asrwt>
<pdfrwt beam="1">  1        2 0.90176464E-01 0.27903613E+03</pdfrwt>
<pdfrwt beam="2">  1       -2 0.51090595E-02 0.27903613E+03</pdfrwt>
<totfact> 0.97837269E+03</totfact>
</mgrwt>
</event>
<event>
 5    1  0.1100736E+001  0.2752226E+03  0.7818608E-02  0.1098327E+00
          2   -1    0    0  501    0  0.00000000000E+00  0.00000000000E+00  0.93859072469E+03  0.93859072469E+03  0.00000000000E+00 0.  1.
         -2   -1    0    0    0  501 -0.00000000000E+00 -0.00000000000E+00 -0.20175850622E+02  0.20175850622E+02  0.00000000000E+00 0.  1.
         35    2    1    2    0    0  0.00000000000E+00  0.00000000000E+00  0.91841487407E+03  0.95876657532E+03  0.27522257361E+03 0.  0.
         25    1    3    3    0    0 -0.11099874272E+02 -0.62359335105E+02  0.53902474168E+03  0.55584131371E+03  0.12000000000E+03 0.  0.
         25    1    3    3    0    0  0.11099874272E+02  0.62359335105E+02  0.37939013239E+03  0.40292526161E+03  0.12000000000E+03 0.  0.
<mgrwt>
<rscale>  0 0.27522257E+03</rscale>
<asrwt>0</asrwt>
<pdfrwt beam="1">  1        2 0.14439854E+00 0.27522257E+03</pdfrwt>
<pdfrwt beam="2">  1       -2 0.31039777E-02 0.27522257E+03</pdfrwt>
<totfact> 0.11516587E+04</totfact>
</mgrwt>
</event>
<event>
 5    1  0.1100736E+001  0.2764331E+03  0.7818608E-02  0.1097653E+00
          1   -1    0    0  501    0  0.00000000000E+00  0.00000000000E+00  0.23495218368E+04  0.23495218368E+04  0.00000000000E+00 0. -1.
         -1   -1    0    0    0  501 -0.00000000000E+00 -0.00000000000E+00 -0.81309373708E+01  0.81309373708E+01  0.00000000000E+00 0. -1.
         35    2    1    2    0    0  0.00000000000E+00  0.00000000000E+00  0.23413908994E+04  0.23576527742E+04  0.27643310154E+03 0.  0.
         25    1    3    3    0    0 -0.11028805365E+02 -0.59322546367E+02  0.89262190820E+03  0.90267085367E+03  0.12000000000E+03 0.  0.
         25    1    3    3    0    0  0.11028805365E+02  0.59322546367E+02  0.14487689912E+04  0.14549819205E+04  0.12000000000E+03 0.  0.
<mgrwt>
<rscale>  0 0.27643310E+03</rscale>
<asrwt>0</asrwt>
<pdfrwt beam="1">  1        1 0.36146436E+00 0.27643310E+03</pdfrwt>
<pdfrwt beam="2">  1       -1 0.12509153E-02 0.27643310E+03</pdfrwt>
<totfact> 0.27110482E+03</totfact>
</mgrwt>
</event>
<event>
 5    1  0.1100736E+001  0.2757285E+03  0.7818608E-02  0.1098045E+00
          2   -1    0    0  501    0  0.00000000000E+00  0.00000000000E+00  0.14415416316E+04  0.14415416316E+04  0.00000000000E+00 0. -1.
         -2   -1    0    0    0  501 -0.00000000000E+00 -0.00000000000E+00 -0.13184880753E+02  0.13184880753E+02  0.00000000000E+00 0. -1.
         35    2    1    2    0    0  0.00000000000E+00  0.00000000000E+00  0.14283567508E+04  0.14547265123E+04  0.27572852238E+03 0.  0.
         25    1    3    3    0    0 -0.27029143408E+01  0.67792061904E+02  0.72402773301E+03  0.73703407490E+03  0.12000000000E+03 0.  0.
         25    1    3    3    0    0  0.27029143408E+01 -0.67792061904E+02  0.70432901783E+03  0.71769243745E+03  0.12000000000E+03 0.  0.
<mgrwt>
<rscale>  0 0.27572852E+03</rscale>
<asrwt>0</asrwt>
<pdfrwt beam="1">  1        2 0.22177551E+00 0.27572852E+03</pdfrwt>
<pdfrwt beam="2">  1       -2 0.20284443E-02 0.27572852E+03</pdfrwt>
<totfact> 0.11107022E+04</totfact>
</mgrwt>
</event>
<event>
 5    1  0.1100736E+001  0.2749478E+03  0.7818608E-02  0.1098481E+00
         -1   -1    0    0    0  501 -0.00000000000E+00  0.00000000000E+00  0.97601437785E+01  0.97601437785E+01  0.00000000000E+00 0. -1.
          1   -1    0    0  501    0  0.00000000000E+00 -0.00000000000E+00 -0.19363512939E+04  0.19363512939E+04  0.00000000000E+00 0. -1.
         35    2    1    2    0    0  0.00000000000E+00  0.00000000000E+00 -0.19265911501E+04  0.19461114377E+04  0.27494775529E+03 0.  0.
         25    1    3    3    0    0 -0.19480802823E+02 -0.25446846810E+02 -0.54622567794E+03  0.56016920206E+03  0.12000000000E+03 0.  0.
         25    1    3    3    0    0  0.19480802823E+02  0.25446846810E+02 -0.13803654722E+04  0.13859422356E+04  0.12000000000E+03 0.  0.
<mgrwt>
<rscale>  0 0.27494776E+03</rscale>
<asrwt>0</asrwt>
<pdfrwt beam="1">  1        1 0.29790055E+00 0.27494776E+03</pdfrwt>
<pdfrwt beam="2">  1       -1 0.15015588E-02 0.27494776E+03</pdfrwt>
<totfact> 0.38670415E+03</totfact>
</mgrwt>
</event>
<event>
 5    1  0.1100736E+001  0.2749722E+03  0.7818608E-02  0.1098467E+00
         -1   -1    0    0    0  501 -0.00000000000E+00  0.00000000000E+00  0.33896660378E+03  0.33896660378E+03  0.00000000000E+00 0. -1.
          1   -1    0    0  501    0  0.00000000000E+00 -0.00000000000E+00 -0.55764870090E+02  0.55764870090E+02  0.00000000000E+00 0. -1.
         35    2    1    2    0    0  0.00000000000E+00  0.00000000000E+00  0.28320173368E+03  0.39473147387E+03  0.27497220677E+03 0.  0.
         25    1    3    3    0    0 -0.41934699699E+01  0.48068390874E+02  0.74663285368E+02  0.14934109138E+03  0.12000000000E+03 0.  0.
         25    1    3    3    0    0  0.41934699699E+01 -0.48068390874E+02  0.20853844832E+03  0.24539038249E+03  0.12000000000E+03 0.  0.
<mgrwt>
<rscale>  0 0.27497221E+03</rscale>
<asrwt>0</asrwt>
<pdfrwt beam="1">  1        1 0.85792110E-02 0.27497221E+03</pdfrwt>
<pdfrwt beam="2">  1       -1 0.52148707E-01 0.27497221E+03</pdfrwt>
<totfact> 0.29901134E+03</totfact>
</mgrwt>
</event>
<event>
 5    1  0.1100736E+001  0.2737277E+03  0.7818608E-02  0.1099165E+00
         -3   -1    0    0    0  501 -0.00000000000E+00  0.00000000000E+00  0.13713889840E+03  0.13713889840E+03  0.00000000000E+00 0.  1.
          3   -1    0    0  501    0  0.00000000000E+00 -0.00000000000E+00 -0.13658930902E+03  0.13658930902E+03  0.00000000000E+00 0.  1.
         35    2    1    2    0    0  0.00000000000E+00  0.00000000000E+00  0.54958937850E+00  0.27372820743E+03  0.27372765570E+03 0.  0.
         25    1    3    3    0    0 -0.50578054913E+02 -0.65297574011E+01  0.41879325457E+02  0.13694763697E+03  0.12000000000E+03 0.  0.
         25    1    3    3    0    0  0.50578054913E+02  0.65297574011E+01 -0.41329736078E+02  0.13678057046E+03  0.12000000000E+03 0.  0.
<mgrwt>
<rscale>  0 0.27372766E+03</rscale>
<asrwt>0</asrwt>
<pdfrwt beam="1">  1        3 0.21013740E-01 0.27372766E+03</pdfrwt>
<pdfrwt beam="2">  1       -3 0.21098292E-01 0.27372766E+03</pdfrwt>
<totfact> 0.10659122E+03</totfact>
</mgrwt>
</event>
<event>
 5    1  0.1100736E+001  0.2746625E+03  0.7818608E-02  0.1098640E+00
         -2   -1    0    0    0  501 -0.00000000000E+00  0.00000000000E+00  0.13583659011E+04  0.13583659011E+04  0.00000000000E+00 0. -1.
          2   -1    0    0  501    0  0.00000000000E+00 -0.00000000000E+00 -0.13884231059E+02  0.13884231059E+02  0.00000000000E+00 0. -1.
         35    2    1    2    0    0  0.00000000000E+00  0.00000000000E+00  0.13444816701E+04  0.13722501322E+04  0.27466245490E+03 0.  0.
         25    1    3    3    0    0 -0.36321974545E+02 -0.22798594037E+02  0.92801182293E+03  0.93672034526E+03  0.12000000000E+03 0.  0.
         25    1    3    3    0    0  0.36321974545E+02  0.22798594037E+02  0.41646984714E+03  0.43552978693E+03  0.12000000000E+03 0.  0.
<mgrwt>
<rscale>  0 0.27466245E+03</rscale>
<asrwt>0</asrwt>
<pdfrwt beam="1">  1        2 0.21360366E-02 0.27466245E+03</pdfrwt>
<pdfrwt beam="2">  1       -2 0.20897927E+00 0.27466245E+03</pdfrwt>
<totfact> 0.63332360E+02</totfact>
</mgrwt>
</event>
<event>
 5    1  0.1100736E+001  0.2751356E+03  0.7818608E-02  0.1098376E+00
         -3   -1    0    0    0  501 -0.00000000000E+00  0.00000000000E+00  0.15150659127E+03  0.15150659127E+03  0.00000000000E+00 0.  1.
          3   -1    0    0  501    0  0.00000000000E+00 -0.00000000000E+00 -0.12491140627E+03  0.12491140627E+03  0.00000000000E+00 0.  1.
         35    2    1    2    0    0  0.00000000000E+00  0.00000000000E+00  0.26595185006E+02  0.27641799754E+03  0.27513561292E+03 0.  0.
         25    1    3    3    0    0  0.39964352135E+02 -0.49361593681E+02 -0.89683999342E+01  0.13606670632E+03  0.12000000000E+03 0.  0.
         25    1    3    3    0    0 -0.39964352135E+02  0.49361593681E+02  0.35563584940E+02  0.14035129122E+03  0.12000000000E+03 0.  0.
<mgrwt>
<rscale>  0 0.27513561E+03</rscale>
<asrwt>0</asrwt>
<pdfrwt beam="1">  1        3 0.19217140E-01 0.27513561E+03</pdfrwt>
<pdfrwt beam="2">  1       -3 0.23308706E-01 0.27513561E+03</pdfrwt>
<totfact> 0.10451393E+03</totfact>
</mgrwt>
</event>
<event>
 5    1  0.1100736E+001  0.2750179E+03  0.7818608E-02  0.1098442E+00
         -1   -1    0    0    0  501 -0.00000000000E+00  0.00000000000E+00  0.24778228846E+03  0.24778228846E+03  0.00000000000E+00 0. -1.
          1   -1    0    0  501    0  0.00000000000E+00 -0.00000000000E+00 -0.76311780645E+02  0.76311780645E+02  0.00000000000E+00 0. -1.
         35    2    1    2    0    0  0.00000000000E+00  0.00000000000E+00  0.17147050781E+03  0.32409406910E+03  0.27501787320E+03 0.  0.
         25    1    3    3    0    0 -0.25628222350E+02 -0.81440042592E+01  0.15824163174E+03  0.20040844444E+03  0.12000000000E+03 0.  0.
         25    1    3    3    0    0  0.25628222350E+02  0.81440042592E+01  0.13228876070E+02  0.12368562466E+03  0.12000000000E+03 0.  0.
<mgrwt>
<rscale>  0 0.27501787E+03</rscale>
<asrwt>0</asrwt>
<pdfrwt beam="1">  1        1 0.11740274E-01 0.27501787E+03</pdfrwt>
<pdfrwt beam="2">  1       -1 0.38120352E-01 0.27501787E+03</pdfrwt>
<totfact> 0.34595863E+03</totfact>
</mgrwt>
</event>
<event>
 5    1  0.1100736E+001  0.2746236E+03  0.7818608E-02  0.1098662E+00
          1   -1    0    0  501    0  0.00000000000E+00  0.00000000000E+00  0.10666731028E+03  0.10666731028E+03  0.00000000000E+00 0. -1.
         -1   -1    0    0    0  501 -0.00000000000E+00 -0.00000000000E+00 -0.17676020071E+03  0.17676020071E+03  0.00000000000E+00 0. -1.
         35    2    1    2    0    0  0.00000000000E+00  0.00000000000E+00 -0.70092890433E+02  0.28342751098E+03  0.27462363462E+03 0.  0.
         25    1    3    3    0    0  0.42930863170E+02 -0.34581654215E+01 -0.87666396814E+02  0.15472690474E+03  0.12000000000E+03 0.  0.
         25    1    3    3    0    0 -0.42930863170E+02  0.34581654215E+01  0.17573506382E+02  0.12870060624E+03  0.12000000000E+03 0.  0.
<mgrwt>
<rscale>  0 0.27462363E+03</rscale>
<asrwt>0</asrwt>
<pdfrwt beam="1">  1        1 0.16410355E-01 0.27462363E+03</pdfrwt>
<pdfrwt beam="2">  1       -1 0.27193877E-01 0.27462363E+03</pdfrwt>
<totfact> 0.39747979E+03</totfact>
</mgrwt>
</event>
<event>
 5    1  0.1100736E+001  0.2745598E+03  0.7818608E-02  0.1098698E+00
         -2   -1    0    0    0  501 -0.00000000000E+00  0.00000000000E+00  0.40397160453E+02  0.40397160453E+02  0.00000000000E+00 0.  1.
          2   -1    0    0  501    0  0.00000000000E+00 -0.00000000000E+00 -0.46651229385E+03  0.46651229385E+03  0.00000000000E+00 0.  1.
         35    2    1    2    0    0  0.00000000000E+00  0.00000000000E+00 -0.42611513340E+03  0.50690945431E+03  0.27455980761E+03 0.  0.
         25    1    3    3    0    0 -0.60459516665E+02  0.57113756764E+01 -0.16223337865E+03  0.21073120821E+03  0.12000000000E+03 0.  0.
         25    1    3    3    0    0  0.60459516665E+02 -0.57113756764E+01 -0.26388175475E+03  0.29617824609E+03  0.12000000000E+03 0.  0.
<mgrwt>
<rscale>  0 0.27455981E+03</rscale>
<asrwt>0</asrwt>
<pdfrwt beam="1">  1        2 0.71771117E-01 0.27455981E+03</pdfrwt>
<pdfrwt beam="2">  1       -2 0.62149482E-02 0.27455981E+03</pdfrwt>
<totfact> 0.93762945E+03</totfact>
</mgrwt>
</event>
