<event>
 9    1  0.4307774E-036  0.1000165E+04  0.7818608E-02  0.8680880E-01
         -2   -1    0    0    0  501 -0.00000000000E+00  0.00000000000E+00  0.84763369815E+03  0.84763369815E+03  0.00000000000E+00 0.  1.
          2   -1    0    0  501    0  0.00000000000E+00 -0.00000000000E+00 -0.29503632869E+03  0.29503632869E+03  0.00000000000E+00 0.  1.
         36    2    1    2    0    0  0.00000000000E+00  0.28421709430E-13  0.55259736946E+03  0.11426700268E+04  0.10001654551E+04 0.  0.
         25    2    3    3    0    0 -0.11364114466E+03  0.76540031708E+02  0.69750164672E+02  0.19797758282E+03  0.12472911293E+03 0.  0.
         35    2    3    3    0    0  0.11364114466E+03 -0.76540031708E+02  0.48284720479E+03  0.94469244401E+03  0.80033099677E+03 0.  0.
         22    1    5    5    0    0  0.22370138015E+02  0.23405902853E+03  0.56391062785E+03  0.61096583220E+03  0.00000000000E+00 0.  1.
         22    1    5    5    0    0  0.91271006650E+02 -0.31059906024E+03 -0.81063423064E+02  0.33372661182E+03  0.00000000000E+00 0.  1.
          5    1    4    4  502    0 -0.28986526970E+02  0.92821473802E+02  0.49864773947E+02  0.10938295308E+03  0.47000000000E+01 0.  1.
         -5    1    4    4    0  502 -0.84654617694E+02 -0.16281442093E+02  0.19885390725E+02  0.88594629735E+02  0.47000000000E+01 0.  1.
<mgrwt>
<rscale>  0 0.10001655E+04</rscale>
<asrwt>0</asrwt>
<pdfrwt beam="1">  1        2 0.45390205E-01 0.10001655E+04</pdfrwt>
<pdfrwt beam="2">  1       -2 0.13040518E+00 0.10001655E+04</pdfrwt>
<totfact> 0.55630512E+01</totfact>
</mgrwt>
</event>
<event>
 9    1  0.4307774E-036  0.9997594E+03  0.7818608E-02  0.8681267E-01
          1   -1    0    0  501    0  0.00000000000E+00  0.00000000000E+00  0.21632504485E+04  0.21632504485E+04  0.00000000000E+00 0. -1.
         -1   -1    0    0    0  501 -0.00000000000E+00 -0.00000000000E+00 -0.11551122849E+03  0.11551122849E+03  0.00000000000E+00 0. -1.
         36    2    1    2    0    0  0.00000000000E+00  0.71054273576E-14  0.20477392200E+04  0.22787616770E+04  0.99975940473E+03 0.  0.
         25    2    3    3    0    0 -0.20961155219E+02  0.29061415162E+02  0.75951333165E+02  0.15073364107E+03  0.12517223997E+03 0.  0.
         35    2    3    3    0    0  0.20961155219E+02 -0.29061415162E+02  0.19717878869E+04  0.21280280360E+04  0.79954481743E+03 0.  0.
         22    1    5    5    0    0 -0.89533268695E+02 -0.15447805974E+03  0.32417246940E+02  0.18146777963E+03  0.00000000000E+00 0.  1.
         22    1    5    5    0    0  0.11049442391E+03  0.12541664457E+03  0.19393706399E+04  0.19465602563E+04  0.00000000000E+00 0.  1.
          5    1    4    4  502    0 -0.40824900458E+02  0.21242319760E+02  0.10479024660E+03  0.11454690930E+03  0.47000000000E+01 0.  1.
         -5    1    4    4    0  502  0.19863745239E+02  0.78190954024E+01 -0.28838913438E+02  0.36186731769E+02  0.47000000000E+01 0.  1.
<mgrwt>
<rscale>  0 0.99975940E+03</rscale>
<asrwt>0</asrwt>
<pdfrwt beam="1">  1        1 0.33280773E+00 0.99975940E+03</pdfrwt>
<pdfrwt beam="2">  1       -1 0.17770960E-01 0.99975940E+03</pdfrwt>
<totfact> 0.59431589E+01</totfact>
</mgrwt>
</event>
<event>
 9    1  0.4307774E-036  0.9974807E+03  0.7818608E-02  0.8683441E-01
          2   -1    0    0  501    0  0.00000000000E+00  0.00000000000E+00  0.48609238195E+03  0.48609238195E+03  0.00000000000E+00 0.  1.
         -2   -1    0    0    0  501 -0.00000000000E+00 -0.00000000000E+00 -0.51171738914E+03  0.51171738914E+03  0.00000000000E+00 0.  1.
         36    2    1    2    0    0 -0.71054273576E-14  0.00000000000E+00 -0.25625007198E+02  0.99780977109E+03  0.99748067565E+03 0.  0.
         25    2    3    3    0    0  0.42261304689E+02 -0.98294441676E+02  0.81676327550E+02  0.18383726684E+03  0.12520903744E+03 0.  0.
         35    2    3    3    0    0 -0.42261304689E+02  0.98294441676E+02 -0.10730133475E+03  0.81397250425E+03  0.79974361273E+03 0.  0.
         22    1    5    5    0    0 -0.14900440869E+03  0.22989440758E+03  0.27968960168E+03  0.39150993057E+03  0.00000000000E+00 0.  1.
         22    1    5    5    0    0  0.10674310400E+03 -0.13159996591E+03 -0.38699093643E+03  0.42246257368E+03  0.00000000000E+00 0.  1.
          5    1    4    4  502    0  0.86346304966E+02 -0.69543540196E+02  0.64087847360E+02  0.12814573947E+03  0.47000000000E+01 0. -1.
         -5    1    4    4    0  502 -0.44085000278E+02 -0.28750901480E+02  0.17588480189E+02  0.55691527370E+02  0.47000000000E+01 0. -1.
<mgrwt>
<rscale>  0 0.99748068E+03</rscale>
<asrwt>0</asrwt>
<pdfrwt beam="1">  1        2 0.74783444E-01 0.99748068E+03</pdfrwt>
<pdfrwt beam="2">  1       -2 0.78725752E-01 0.99748068E+03</pdfrwt>
<totfact> 0.10995938E+02</totfact>
</mgrwt>
</event>
<event>
 9    1  0.4307774E-036  0.1000993E+04  0.7818608E-02  0.8680093E-01
         -2   -1    0    0    0  501 -0.00000000000E+00  0.00000000000E+00  0.13865148419E+03  0.13865148419E+03  0.00000000000E+00 0. -1.
          2   -1    0    0  501    0  0.00000000000E+00 -0.00000000000E+00 -0.18066654234E+04  0.18066654234E+04  0.00000000000E+00 0. -1.
         36    2    1    2    0    0  0.00000000000E+00  0.14210854715E-13 -0.16680139392E+04  0.19453169076E+04  0.10009931916E+04 0.  0.
         25    2    3    3    0    0  0.84657677604E+02  0.99100064465E+02 -0.21514098614E+03  0.28085805056E+03  0.12493140316E+03 0.  0.
         35    2    3    3    0    0 -0.84657677604E+02 -0.99100064465E+02 -0.14528729531E+04  0.16644588570E+04  0.80162068574E+03 0.  0.
         22    1    5    5    0    0 -0.75079625267E+02 -0.10706491145E+03 -0.15555460730E+04  0.15610328089E+04  0.00000000000E+00 0. -1.
         22    1    5    5    0    0 -0.95780523371E+01  0.79648469826E+01  0.10267311990E+03  0.10342604810E+03  0.00000000000E+00 0. -1.
          5    1    4    4  502    0 -0.32310917515E+02  0.22744790948E+02 -0.36121953547E+02  0.53742036005E+02  0.47000000000E+01 0. -1.
         -5    1    4    4    0  502  0.11696859512E+03  0.76355273518E+02 -0.17901903260E+03  0.22711601456E+03  0.47000000000E+01 0. -1.
<mgrwt>
<rscale>  0 0.10009932E+04</rscale>
<asrwt>0</asrwt>
<pdfrwt beam="1">  1        2 0.27794853E+00 0.10009932E+04</pdfrwt>
<pdfrwt beam="2">  1       -2 0.21330997E-01 0.10009932E+04</pdfrwt>
<totfact> 0.19289637E+02</totfact>
</mgrwt>
</event>
<event>
 9    1  0.4307774E-036  0.1000223E+04  0.7818608E-02  0.8680826E-01
          2   -1    0    0  501    0  0.00000000000E+00  0.00000000000E+00  0.74972220562E+03  0.74972220562E+03  0.00000000000E+00 0.  1.
         -2   -1    0    0    0  501 -0.00000000000E+00 -0.00000000000E+00 -0.33360543119E+03  0.33360543119E+03  0.00000000000E+00 0.  1.
         36    2    1    2    0    0 -0.14210854715E-13  0.14210854715E-13  0.41611677443E+03  0.10833276368E+04  0.10002227745E+04 0.  0.
         25    2    3    3    0    0 -0.18133983131E+02  0.94030277098E+02  0.19317080240E+03  0.24730340959E+03  0.12113415347E+03 0.  0.
         35    2    3    3    0    0  0.18133983131E+02 -0.94030277098E+02  0.22294597203E+03  0.83602422722E+03  0.80003816641E+03 0.  0.
         22    1    5    5    0    0  0.39773004231E+03 -0.11551769154E+03  0.46163401433E+02  0.41673082829E+03  0.00000000000E+00 0. -1.
         22    1    5    5    0    0 -0.37959605918E+03  0.21487414445E+02  0.17678257059E+03  0.41929339893E+03  0.00000000000E+00 0. -1.
          5    1    4    4  502    0  0.46904150007E+02  0.67069593131E+02  0.84479296865E+02  0.11771648657E+03  0.47000000000E+01 0. -1.
         -5    1    4    4    0  502 -0.65038133138E+02  0.26960683967E+02  0.10869150554E+03  0.12958692302E+03  0.47000000000E+01 0. -1.
<mgrwt>
<rscale>  0 0.10002228E+04</rscale>
<asrwt>0</asrwt>
<pdfrwt beam="1">  1        2 0.11534188E+00 0.10002228E+04</pdfrwt>
<pdfrwt beam="2">  1       -2 0.51323913E-01 0.10002228E+04</pdfrwt>
<totfact> 0.16289548E+02</totfact>
</mgrwt>
</event>
<event>
 9    1  0.4307774E-036  0.1000574E+04  0.7818608E-02  0.8680492E-01
         -2   -1    0    0    0  501 -0.00000000000E+00  0.00000000000E+00  0.12672691424E+03  0.12672691424E+03  0.00000000000E+00 0. -1.
          2   -1    0    0  501    0  0.00000000000E+00 -0.00000000000E+00 -0.19750098782E+04  0.19750098782E+04  0.00000000000E+00 0. -1.
         36    2    1    2    0    0 -0.71054273576E-14 -0.28421709430E-13 -0.18482829640E+04  0.21017367924E+04  0.10005736504E+04 0.  0.
         25    2    3    3    0    0 -0.41344053857E+02 -0.13367085155E+03 -0.31866542065E+03  0.36929547257E+03  0.12350817139E+03 0.  0.
         35    2    3    3    0    0  0.41344053857E+02  0.13367085155E+03 -0.15296175433E+04  0.17324413199E+04  0.80127764892E+03 0.  0.
         22    1    5    5    0    0 -0.48245063273E+02  0.46423655721E+03 -0.96765308294E+03  0.10743349832E+04  0.00000000000E+00 0.  1.
         22    1    5    5    0    0  0.89589117130E+02 -0.33056570566E+03 -0.56196446037E+03  0.65810633669E+03  0.00000000000E+00 0.  1.
          5    1    4    4  502    0 -0.53856512991E+02 -0.72939448417E+02 -0.74823432149E+02  0.11764915268E+03  0.47000000000E+01 0. -1.
         -5    1    4    4    0  502  0.12512459134E+02 -0.60731403136E+02 -0.24384198850E+03  0.25164631989E+03  0.47000000000E+01 0. -1.
<mgrwt>
<rscale>  0 0.10005737E+04</rscale>
<asrwt>0</asrwt>
<pdfrwt beam="1">  1        2 0.30384764E+00 0.10005737E+04</pdfrwt>
<pdfrwt beam="2">  1       -2 0.19496450E-01 0.10005737E+04</pdfrwt>
<totfact> 0.18101538E+02</totfact>
</mgrwt>
</event>
<event>
 9    1  0.4307774E-036  0.9992632E+03  0.7818608E-02  0.8681740E-01
         -1   -1    0    0    0  501 -0.00000000000E+00  0.00000000000E+00  0.19013397206E+03  0.19013397206E+03  0.00000000000E+00 0.  1.
          1   -1    0    0  501    0  0.00000000000E+00 -0.00000000000E+00 -0.13129255789E+04  0.13129255789E+04  0.00000000000E+00 0.  1.
         36    2    1    2    0    0 -0.14210854715E-13  0.28421709430E-13 -0.11227916068E+04  0.15030595509E+04  0.99926323926E+03 0.  0.
         25    2    3    3    0    0  0.24438287545E+02 -0.42671351339E+02 -0.40618763285E+03  0.42819719840E+03  0.12627895117E+03 0.  0.
         35    2    3    3    0    0 -0.24438287545E+02  0.42671351339E+02 -0.71660397397E+03  0.10748623525E+04  0.79961850109E+03 0.  0.
         22    1    5    5    0    0  0.69509665210E+02  0.21140913723E+03  0.93991286290E+02  0.24157768680E+03  0.00000000000E+00 0.  1.
         22    1    5    5    0    0 -0.93947952755E+02 -0.16873778589E+03 -0.81059526026E+03  0.83328466575E+03  0.00000000000E+00 0.  1.
          5    1    4    4  502    0  0.72283972471E+02 -0.23807814682E+02 -0.16827809300E+03  0.18474683028E+03  0.47000000000E+01 0.  1.
         -5    1    4    4    0  502 -0.47845684926E+02 -0.18863536657E+02 -0.23790953985E+03  0.24345036811E+03  0.47000000000E+01 0.  1.
<mgrwt>
<rscale>  0 0.99926324E+03</rscale>
<asrwt>0</asrwt>
<pdfrwt beam="1">  1        1 0.20198855E+00 0.99926324E+03</pdfrwt>
<pdfrwt beam="2">  1       -1 0.29251380E-01 0.99926324E+03</pdfrwt>
<totfact> 0.10328684E+02</totfact>
</mgrwt>
</event>
<event>
 9    1  0.4307774E-036  0.9995595E+03  0.7818608E-02  0.8681458E-01
         -2   -1    0    0    0  501 -0.00000000000E+00  0.00000000000E+00  0.14247230521E+03  0.14247230521E+03  0.00000000000E+00 0. -1.
          2   -1    0    0  501    0  0.00000000000E+00 -0.00000000000E+00 -0.17531814441E+04  0.17531814441E+04  0.00000000000E+00 0. -1.
         36    2    1    2    0    0  0.00000000000E+00 -0.71054273576E-14 -0.16107091389E+04  0.18956537493E+04  0.99955950658E+03 0.  0.
         25    2    3    3    0    0  0.99542892096E+01  0.14204544306E+02 -0.41242412485E+02  0.13391492990E+03  0.12621970888E+03 0.  0.
         35    2    3    3    0    0 -0.99542892096E+01 -0.14204544306E+02 -0.15694667264E+04  0.17617388194E+04  0.80012311903E+03 0.  0.
         22    1    5    5    0    0 -0.15877994639E+03  0.23582899782E+03 -0.16766683068E+03  0.33005840952E+03  0.00000000000E+00 0.  1.
         22    1    5    5    0    0  0.14882565718E+03 -0.25003354213E+03 -0.14017998957E+04  0.14316804099E+04  0.00000000000E+00 0.  1.
          5    1    4    4  502    0  0.32931433698E+02  0.58125599640E+02  0.33777790233E+01  0.67056424376E+02  0.47000000000E+01 0. -1.
         -5    1    4    4    0  502 -0.22977144489E+02 -0.43921055334E+02 -0.44620191509E+02  0.66858505523E+02  0.47000000000E+01 0. -1.
<mgrwt>
<rscale>  0 0.99955951E+03</rscale>
<asrwt>0</asrwt>
<pdfrwt beam="1">  1        2 0.26972023E+00 0.99955951E+03</pdfrwt>
<pdfrwt beam="2">  1       -2 0.21918816E-01 0.99955951E+03</pdfrwt>
<totfact> 0.19719644E+02</totfact>
</mgrwt>
</event>
<event>
 9    1  0.4307774E-036  0.9998823E+03  0.7818608E-02  0.8681150E-01
         -2   -1    0    0    0  501 -0.00000000000E+00  0.00000000000E+00  0.21314613044E+03  0.21314613044E+03  0.00000000000E+00 0. -1.
          2   -1    0    0  501    0  0.00000000000E+00 -0.00000000000E+00 -0.11726282011E+04  0.11726282011E+04  0.00000000000E+00 0. -1.
         36    2    1    2    0    0 -0.28421709430E-13  0.14210854715E-13 -0.95948207066E+03  0.13857743315E+04  0.99988232010E+03 0.  0.
         25    2    3    3    0    0  0.12503851747E+03  0.45137366157E+02 -0.24476161319E+03  0.30511873080E+03  0.12456797308E+03 0.  0.
         35    2    3    3    0    0 -0.12503851747E+03 -0.45137366157E+02 -0.71472045747E+03  0.10806556007E+04  0.79957437579E+03 0.  0.
         22    1    5    5    0    0  0.21809331167E+03  0.25510002903E+03 -0.42053988960E+03  0.53804694605E+03  0.00000000000E+00 0. -1.
         22    1    5    5    0    0 -0.34313182914E+03 -0.30023739519E+03 -0.29418056787E+03  0.54260865470E+03  0.00000000000E+00 0. -1.
          5    1    4    4  502    0  0.62117778028E+02 -0.13807076266E+02 -0.19563158919E+03  0.20577429963E+03  0.47000000000E+01 0. -1.
         -5    1    4    4    0  502  0.62920739447E+02  0.58944442423E+02 -0.49130024001E+02  0.99344431165E+02  0.47000000000E+01 0. -1.
<mgrwt>
<rscale>  0 0.99988232E+03</rscale>
<asrwt>0</asrwt>
<pdfrwt beam="1">  1        2 0.18040434E+00 0.99988232E+03</pdfrwt>
<pdfrwt beam="2">  1       -2 0.32791713E-01 0.99988232E+03</pdfrwt>
<totfact> 0.20560715E+02</totfact>
</mgrwt>
</event>
<event>
 9    1  0.4307774E-036  0.1000123E+04  0.7818608E-02  0.8680921E-01
         -2   -1    0    0    0  501 -0.00000000000E+00  0.00000000000E+00  0.13413692526E+03  0.13413692526E+03  0.00000000000E+00 0.  1.
          2   -1    0    0  501    0  0.00000000000E+00 -0.00000000000E+00 -0.18642254167E+04  0.18642254167E+04  0.00000000000E+00 0.  1.
         36    2    1    2    0    0  0.28421709430E-13 -0.71054273576E-14 -0.17300884914E+04  0.19983623419E+04  0.10001229232E+04 0.  0.
         25    2    3    3    0    0  0.13738384416E+03  0.23212876163E+02 -0.28599885991E+03  0.34174012483E+03  0.12481108443E+03 0.  0.
         35    2    3    3    0    0 -0.13738384416E+03 -0.23212876163E+02 -0.14440896315E+04  0.16566222171E+04  0.79974317633E+03 0.  0.
         22    1    5    5    0    0  0.11350320497E+03  0.27125629503E+02 -0.13902410532E+04  0.13951304467E+04  0.00000000000E+00 0.  1.
         22    1    5    5    0    0 -0.25088704913E+03 -0.50338505666E+02 -0.53848578251E+02  0.26149177034E+03  0.00000000000E+00 0.  1.
          5    1    4    4  502    0  0.15996369533E+03  0.11416781629E+02 -0.25581554448E+03  0.30196425206E+03  0.47000000000E+01 0. -1.
         -5    1    4    4    0  502 -0.22579851162E+02  0.11796094535E+02 -0.30183315422E+02  0.39775872771E+02  0.47000000000E+01 0. -1.
<mgrwt>
<rscale>  0 0.10001229E+04</rscale>
<asrwt>0</asrwt>
<pdfrwt beam="1">  1        2 0.28680392E+00 0.10001229E+04</pdfrwt>
<pdfrwt beam="2">  1       -2 0.20636449E-01 0.10001229E+04</pdfrwt>
<totfact> 0.18959498E+02</totfact>
</mgrwt>
</event>
<event>
 9    1  0.4307774E-036  0.9997586E+03  0.7818608E-02  0.8681268E-01
          2   -1    0    0  501    0  0.00000000000E+00  0.00000000000E+00  0.16913090647E+04  0.16913090647E+04  0.00000000000E+00 0.  1.
         -2   -1    0    0    0  501 -0.00000000000E+00 -0.00000000000E+00 -0.14774313789E+03  0.14774313789E+03  0.00000000000E+00 0.  1.
         36    2    1    2    0    0  0.28421709430E-13  0.00000000000E+00  0.15435659269E+04  0.18390522026E+04  0.99975858759E+03 0.  0.
         25    2    3    3    0    0 -0.11294740720E+03 -0.75034994563E+02  0.23385149390E+03  0.29790120884E+03  0.12518483064E+03 0.  0.
         35    2    3    3    0    0  0.11294740720E+03  0.75034994563E+02  0.13097144330E+04  0.15411509938E+04  0.80087896875E+03 0.  0.
         22    1    5    5    0    0  0.14241040064E+03  0.43116509402E+03  0.69764940148E+03  0.83240539877E+03  0.00000000000E+00 0. -1.
         22    1    5    5    0    0 -0.29462993439E+02 -0.35613009946E+03  0.61206503148E+03  0.70874559504E+03  0.00000000000E+00 0. -1.
          5    1    4    4  502    0 -0.13675081599E+03 -0.76239985004E+02  0.17867396828E+03  0.23761270573E+03  0.47000000000E+01 0.  1.
         -5    1    4    4    0  502  0.23803408788E+02  0.12049904406E+01  0.55177525627E+02  0.60288503101E+02  0.47000000000E+01 0.  1.
<mgrwt>
<rscale>  0 0.99975859E+03</rscale>
<asrwt>0</asrwt>
<pdfrwt beam="1">  1        2 0.26020138E+00 0.99975859E+03</pdfrwt>
<pdfrwt beam="2">  1       -2 0.22729715E-01 0.99975859E+03</pdfrwt>
<totfact> 0.20050289E+02</totfact>
</mgrwt>
</event>
<event>
 9    1  0.4307774E-036  0.9964071E+03  0.7818608E-02  0.8684467E-01
         -1   -1    0    0    0  501 -0.00000000000E+00  0.00000000000E+00  0.34816231015E+03  0.34816231015E+03  0.00000000000E+00 0.  1.
          1   -1    0    0  501    0  0.00000000000E+00 -0.00000000000E+00 -0.71290533929E+03  0.71290533929E+03  0.00000000000E+00 0.  1.
         36    2    1    2    0    0  0.00000000000E+00  0.14210854715E-13 -0.36474302914E+03  0.10610676494E+04  0.99640708516E+03 0.  0.
         25    2    3    3    0    0  0.11932243451E+03 -0.62373211422E+02 -0.98844319510E+02  0.20790286891E+03  0.12379475967E+03 0.  0.
         35    2    3    3    0    0 -0.11932243451E+03  0.62373211422E+02 -0.26589870963E+03  0.85316478052E+03  0.79941213279E+03 0.  0.
         22    1    5    5    0    0 -0.16017789193E+03 -0.24747164315E+03  0.15173145198E+03  0.33154427268E+03  0.00000000000E+00 0. -1.
         22    1    5    5    0    0  0.40855457424E+02  0.30984485457E+03 -0.41763016161E+03  0.52162050784E+03  0.00000000000E+00 0. -1.
          5    1    4    4  502    0  0.68676907501E+02  0.47538150992E+01  0.10593200130E+02  0.69809900952E+02  0.47000000000E+01 0. -1.
         -5    1    4    4    0  502  0.50645527009E+02 -0.67127026522E+02 -0.10943751964E+03  0.13809296796E+03  0.47000000000E+01 0. -1.
<mgrwt>
<rscale>  0 0.99640709E+03</rscale>
<asrwt>0</asrwt>
<pdfrwt beam="1">  1        1 0.10967774E+00 0.99640709E+03</pdfrwt>
<pdfrwt beam="2">  1       -1 0.53563433E-01 0.99640709E+03</pdfrwt>
<totfact> 0.10702182E+02</totfact>
</mgrwt>
</event>
<event>
 9    1  0.4307774E-036  0.9966602E+03  0.7818608E-02  0.8684225E-01
         -2   -1    0    0    0  501 -0.00000000000E+00  0.00000000000E+00  0.32393009650E+03  0.32393009650E+03  0.00000000000E+00 0.  1.
          2   -1    0    0  501    0  0.00000000000E+00 -0.00000000000E+00 -0.76662495315E+03  0.76662495315E+03  0.00000000000E+00 0.  1.
         36    2    1    2    0    0  0.00000000000E+00  0.00000000000E+00 -0.44269485665E+03  0.10905550496E+04  0.99666021301E+03 0.  0.
         25    2    3    3    0    0  0.49968847452E+02 -0.97836228173E+02 -0.17137519654E+03  0.23868890990E+03  0.12463596777E+03 0.  0.
         35    2    3    3    0    0 -0.49968847452E+02  0.97836228173E+02 -0.27131966011E+03  0.85186613975E+03  0.79999546800E+03 0.  0.
         22    1    5    5    0    0 -0.42517136560E+02 -0.35313959199E+03 -0.13819543898E+03  0.38159305246E+03  0.00000000000E+00 0. -1.
         22    1    5    5    0    0 -0.74517108921E+01  0.45097582017E+03 -0.13312422114E+03  0.47027308728E+03  0.00000000000E+00 0. -1.
          5    1    4    4  502    0  0.54090536852E+02 -0.10844381666E+03 -0.77311553260E+02  0.14382285568E+03  0.47000000000E+01 0.  1.
         -5    1    4    4    0  502 -0.41216893998E+01  0.10607588484E+02 -0.94063643279E+02  0.94866054223E+02  0.47000000000E+01 0.  1.
<mgrwt>
<rscale>  0 0.99666021E+03</rscale>
<asrwt>0</asrwt>
<pdfrwt beam="1">  1        2 0.11794230E+00 0.99666021E+03</pdfrwt>
<pdfrwt beam="2">  1       -2 0.49835401E-01 0.99666021E+03</pdfrwt>
<totfact> 0.16801514E+02</totfact>
</mgrwt>
</event>
<event>
 9    1  0.4307774E-036  0.9996478E+03  0.7818608E-02  0.8681373E-01
          2   -1    0    0  501    0  0.00000000000E+00  0.00000000000E+00  0.14940073186E+04  0.14940073186E+04  0.00000000000E+00 0.  1.
         -2   -1    0    0    0  501 -0.00000000000E+00 -0.00000000000E+00 -0.16721735471E+03  0.16721735471E+03  0.00000000000E+00 0.  1.
         36    2    1    2    0    0  0.71054273576E-14  0.00000000000E+00  0.13267899639E+04  0.16612246733E+04  0.99964784147E+03 0.  0.
         25    2    3    3    0    0 -0.93201714645E+01 -0.73877846101E+02  0.49131060378E+02  0.15196862876E+03  0.12302764443E+03 0.  0.
         35    2    3    3    0    0  0.93201714645E+01  0.73877846101E+02  0.12776589035E+04  0.15092560446E+04  0.79993545525E+03 0.  0.
         22    1    5    5    0    0  0.20156101501E+03 -0.27612785403E+03  0.30627899545E+03  0.45899919129E+03  0.00000000000E+00 0. -1.
         22    1    5    5    0    0 -0.19224084354E+03  0.35000570013E+03  0.97137990809E+03  0.10502568533E+04  0.00000000000E+00 0. -1.
          5    1    4    4  502    0 -0.42367645990E+02 -0.91871454284E+02  0.52169884142E+02  0.11392615306E+03  0.47000000000E+01 0.  1.
         -5    1    4    4    0  502  0.33047474525E+02  0.17993608183E+02 -0.30388237642E+01  0.38042475706E+02  0.47000000000E+01 0.  1.
<mgrwt>
<rscale>  0 0.99964784E+03</rscale>
<asrwt>0</asrwt>
<pdfrwt beam="1">  1        2 0.22984727E+00 0.99964784E+03</pdfrwt>
<pdfrwt beam="2">  1       -2 0.25725748E-01 0.99964784E+03</pdfrwt>
<totfact> 0.20818284E+02</totfact>
</mgrwt>
</event>
<event>
 9    1  0.4307774E-036  0.9971241E+03  0.7818608E-02  0.8683781E-01
         -1   -1    0    0    0  501 -0.00000000000E+00  0.00000000000E+00  0.13224062552E+03  0.13224062552E+03  0.00000000000E+00 0.  1.
          1   -1    0    0  501    0  0.00000000000E+00 -0.00000000000E+00 -0.18796351999E+04  0.18796351999E+04  0.00000000000E+00 0.  1.
         36    2    1    2    0    0 -0.28421709430E-13  0.00000000000E+00 -0.17473945744E+04  0.20118758254E+04  0.99712413388E+03 0.  0.
         25    2    3    3    0    0 -0.10721873884E+03 -0.33530221947E+02 -0.16919063828E+03  0.23846567619E+03  0.12498109015E+03 0.  0.
         35    2    3    3    0    0  0.10721873884E+03  0.33530221947E+02 -0.15782039361E+04  0.17734101492E+04  0.80102169744E+03 0.  0.
         22    1    5    5    0    0  0.12880992203E+03 -0.26248229569E+03 -0.17845767567E+03  0.34254356449E+03  0.00000000000E+00 0. -1.
         22    1    5    5    0    0 -0.21591183198E+02  0.29601251764E+03 -0.13997462604E+04  0.14308665847E+04  0.00000000000E+00 0. -1.
          5    1    4    4  502    0  0.24745479743E+00 -0.52950691109E+02 -0.28546416554E+02  0.60339247765E+02  0.47000000000E+01 0. -1.
         -5    1    4    4    0  502 -0.10746619363E+03  0.19420469162E+02 -0.14064422173E+03  0.17812642842E+03  0.47000000000E+01 0. -1.
<mgrwt>
<rscale>  0 0.99712413E+03</rscale>
<asrwt>0</asrwt>
<pdfrwt beam="1">  1        1 0.28917462E+00 0.99712413E+03</pdfrwt>
<pdfrwt beam="2">  1       -1 0.20344713E-01 0.99712413E+03</pdfrwt>
<totfact> 0.75213132E+01</totfact>
</mgrwt>
</event>
<event>
 9    1  0.4307774E-036  0.1000400E+04  0.7818608E-02  0.8680657E-01
         -1   -1    0    0    0  501 -0.00000000000E+00  0.00000000000E+00  0.20370472948E+03  0.20370472948E+03  0.00000000000E+00 0. -1.
          1   -1    0    0  501    0  0.00000000000E+00 -0.00000000000E+00 -0.12282488644E+04  0.12282488644E+04  0.00000000000E+00 0. -1.
         36    2    1    2    0    0  0.14210854715E-13 -0.35527136788E-13 -0.10245441350E+04  0.14319535939E+04  0.10004001253E+04 0.  0.
         25    2    3    3    0    0  0.12331976599E+03 -0.63364846337E+02 -0.14236860591E+03  0.23442006452E+03  0.12434258429E+03 0.  0.
         35    2    3    3    0    0 -0.12331976599E+03  0.63364846337E+02 -0.88217552905E+03  0.11975335294E+04  0.79789098350E+03 0.  0.
         22    1    5    5    0    0 -0.22840141625E+03  0.29737654153E+03 -0.86223330859E+03  0.94023735984E+03  0.00000000000E+00 0.  1.
         22    1    5    5    0    0  0.10508165026E+03 -0.23401169519E+03 -0.19942220452E+02  0.25729616955E+03  0.00000000000E+00 0.  1.
          5    1    4    4  502    0  0.12462254229E+03 -0.44127713966E+02 -0.16018636098E+03  0.20774935242E+03  0.47000000000E+01 0. -1.
         -5    1    4    4    0  502 -0.13027763013E+01 -0.19237132371E+02  0.17817755076E+02  0.26670712099E+02  0.47000000000E+01 0. -1.
<mgrwt>
<rscale>  0 0.10004001E+04</rscale>
<asrwt>0</asrwt>
<pdfrwt beam="1">  1        1 0.18896136E+00 0.10004001E+04</pdfrwt>
<pdfrwt beam="2">  1       -1 0.31339189E-01 0.10004001E+04</pdfrwt>
<totfact> 0.10591111E+02</totfact>
</mgrwt>
</event>
<event>
 9    1  0.4307774E-036  0.9999640E+03  0.7818608E-02  0.8681072E-01
         -2   -1    0    0    0  501 -0.00000000000E+00  0.00000000000E+00  0.15938315195E+03  0.15938315195E+03  0.00000000000E+00 0. -1.
          2   -1    0    0  501    0  0.00000000000E+00 -0.00000000000E+00 -0.15684343551E+04  0.15684343551E+04  0.00000000000E+00 0. -1.
         36    2    1    2    0    0 -0.35527136788E-14 -0.14210854715E-13 -0.14090512032E+04  0.17278175071E+04  0.99996402164E+03 0.  0.
         25    2    3    3    0    0 -0.27798773020E+01 -0.78122338548E+02 -0.67610001874E+02  0.16395901003E+03  0.12728164486E+03 0.  0.
         35    2    3    3    0    0  0.27798773020E+01  0.78122338548E+02 -0.13414412013E+04  0.15638584971E+04  0.80004879522E+03 0.  0.
         22    1    5    5    0    0  0.36338746170E+03  0.48983191718E+02 -0.34378688504E+03  0.50263229375E+03  0.00000000000E+00 0.  1.
         22    1    5    5    0    0 -0.36060758440E+03  0.29139146830E+02 -0.99765431627E+03  0.10612262033E+04  0.00000000000E+00 0.  1.
          5    1    4    4  502    0 -0.31904758309E+02 -0.76010005719E+02  0.78196527329E+01  0.82937757029E+02  0.47000000000E+01 0. -1.
         -5    1    4    4    0  502  0.29124881007E+02 -0.21123328290E+01 -0.75429654607E+02  0.81021253001E+02  0.47000000000E+01 0. -1.
<mgrwt>
<rscale>  0 0.99996402E+03</rscale>
<asrwt>0</asrwt>
<pdfrwt beam="1">  1        2 0.24129760E+00 0.99996402E+03</pdfrwt>
<pdfrwt beam="2">  1       -2 0.24520484E-01 0.99996402E+03</pdfrwt>
<totfact> 0.20575450E+02</totfact>
</mgrwt>
</event>
<event>
 9    1  0.4307774E-036  0.9979611E+03  0.7818608E-02  0.8682982E-01
         -2   -1    0    0    0  501 -0.00000000000E+00  0.00000000000E+00  0.14018632975E+03  0.14018632975E+03  0.00000000000E+00 0.  1.
          2   -1    0    0  501    0  0.00000000000E+00 -0.00000000000E+00 -0.17760760498E+04  0.17760760498E+04  0.00000000000E+00 0.  1.
         36    2    1    2    0    0 -0.14210854715E-13  0.14210854715E-13 -0.16358897201E+04  0.19162623796E+04  0.99796108697E+03 0.  0.
         25    2    3    3    0    0 -0.93824387978E+02  0.56679618245E+02 -0.47012376163E+03  0.49839761811E+03  0.12396870407E+03 0.  0.
         35    2    3    3    0    0  0.93824387978E+02 -0.56679618245E+02 -0.11657659585E+04  0.14178647615E+04  0.79957152088E+03 0.  0.
         22    1    5    5    0    0 -0.18982067377E+03  0.12289147116E+03 -0.10320057201E+04  0.10564894737E+04  0.00000000000E+00 0. -1.
         22    1    5    5    0    0  0.28364506175E+03 -0.17957108940E+03 -0.13376023839E+03  0.36137528772E+03  0.00000000000E+00 0. -1.
          5    1    4    4  502    0 -0.43437961101E+02 -0.29396608352E+02 -0.26598097676E+03  0.27114384936E+03  0.47000000000E+01 0. -1.
         -5    1    4    4    0  502 -0.50386426876E+02  0.86076226596E+02 -0.20414278486E+03  0.22725376875E+03  0.47000000000E+01 0. -1.
<mgrwt>
<rscale>  0 0.99796109E+03</rscale>
<asrwt>0</asrwt>
<pdfrwt beam="1">  1        2 0.27324248E+00 0.99796109E+03</pdfrwt>
<pdfrwt beam="2">  1       -2 0.21567127E-01 0.99796109E+03</pdfrwt>
<totfact> 0.19690289E+02</totfact>
</mgrwt>
</event>
<event>
 9    1  0.4307774E-036  0.9997480E+03  0.7818608E-02  0.8681278E-01
         -1   -1    0    0    0  501 -0.00000000000E+00  0.00000000000E+00  0.39543907360E+03  0.39543907360E+03  0.00000000000E+00 0. -1.
          1   -1    0    0  501    0  0.00000000000E+00 -0.00000000000E+00 -0.63189001904E+03  0.63189001904E+03  0.00000000000E+00 0. -1.
         36    2    1    2    0    0  0.00000000000E+00  0.00000000000E+00 -0.23645094544E+03  0.10273290926E+04  0.99974797573E+03 0.  0.
         25    2    3    3    0    0 -0.45928196812E+02 -0.88580405058E+02 -0.14335377720E+03  0.21593514696E+03  0.12697163003E+03 0.  0.
         35    2    3    3    0    0  0.45928196812E+02  0.88580405058E+02 -0.93097168240E+02  0.81139394568E+03  0.79983571121E+03 0.  0.
         22    1    5    5    0    0 -0.34484485949E+03  0.15543545164E+03 -0.15751691153E+03  0.40974349801E+03  0.00000000000E+00 0. -1.
         22    1    5    5    0    0  0.39077305630E+03 -0.66855046581E+02  0.64419743285E+02  0.40165044767E+03  0.00000000000E+00 0. -1.
          5    1    4    4  502    0 -0.57307658208E+02  0.11077645355E+02 -0.35062979913E+02  0.68252358760E+02  0.47000000000E+01 0.  1.
         -5    1    4    4    0  502  0.11379461396E+02 -0.99658050413E+02 -0.10829079729E+03  0.14768278820E+03  0.47000000000E+01 0.  1.
<mgrwt>
<rscale>  0 0.99974798E+03</rscale>
<asrwt>0</asrwt>
<pdfrwt beam="1">  1        1 0.97213849E-01 0.99974798E+03</pdfrwt>
<pdfrwt beam="2">  1       -1 0.60836781E-01 0.99974798E+03</pdfrwt>
<totfact> 0.10084429E+02</totfact>
</mgrwt>
</event>
<event>
 9    1  0.4307774E-036  0.9993101E+03  0.7818608E-02  0.8681695E-01
         -2   -1    0    0    0  501 -0.00000000000E+00  0.00000000000E+00  0.35684247076E+03  0.35684247076E+03  0.00000000000E+00 0.  1.
          2   -1    0    0  501    0  0.00000000000E+00 -0.00000000000E+00 -0.69962291042E+03  0.69962291042E+03  0.00000000000E+00 0.  1.
         36    2    1    2    0    0  0.00000000000E+00 -0.28421709430E-13 -0.34278043966E+03  0.10564653812E+04  0.99931009792E+03 0.  0.
         25    2    3    3    0    0 -0.37041218132E+02  0.11664327214E+03 -0.12753543880E+03  0.21649724067E+03  0.12501224857E+03 0.  0.
         35    2    3    3    0    0  0.37041218132E+02 -0.11664327214E+03 -0.21524500086E+03  0.83996814051E+03  0.80264460497E+03 0.  0.
         22    1    5    5    0    0  0.15627399083E+03  0.23408207747E+03 -0.34700195756E+03  0.44679563310E+03  0.00000000000E+00 0. -1.
         22    1    5    5    0    0 -0.11923277270E+03 -0.35072534961E+03  0.13175695670E+03  0.39317250741E+03  0.00000000000E+00 0. -1.
          5    1    4    4  502    0  0.23202044171E+02  0.67865103964E+02 -0.58102720847E+01  0.72110030172E+02  0.47000000000E+01 0.  1.
         -5    1    4    4    0  502 -0.60243262303E+02  0.48778168175E+02 -0.12172516671E+03  0.14438721050E+03  0.47000000000E+01 0.  1.
<mgrwt>
<rscale>  0 0.99931010E+03</rscale>
<asrwt>0</asrwt>
<pdfrwt beam="1">  1        2 0.10763429E+00 0.99931010E+03</pdfrwt>
<pdfrwt beam="2">  1       -2 0.54898842E-01 0.99931010E+03</pdfrwt>
<totfact> 0.15485745E+02</totfact>
</mgrwt>
</event>
<event>
 9    1  0.4307774E-036  0.9999398E+03  0.7818608E-02  0.8681095E-01
          1   -1    0    0  501    0  0.00000000000E+00  0.00000000000E+00  0.53868980205E+03  0.53868980205E+03  0.00000000000E+00 0.  1.
         -1   -1    0    0    0  501 -0.00000000000E+00 -0.00000000000E+00 -0.46403309430E+03  0.46403309430E+03  0.00000000000E+00 0.  1.
         36    2    1    2    0    0  0.28421709430E-13  0.71054273576E-14  0.74656707753E+02  0.10027228963E+04  0.99993978961E+03 0.  0.
         25    2    3    3    0    0 -0.56811588423E+02 -0.37492583036E+02 -0.10877687327E+03  0.17918661285E+03  0.12506871592E+03 0.  0.
         35    2    3    3    0    0  0.56811588423E+02  0.37492583036E+02  0.18343358102E+03  0.82353628350E+03  0.79995679960E+03 0.  0.
         22    1    5    5    0    0 -0.29756511685E+03 -0.12947947529E+03 -0.10049611433E+03  0.33971959361E+03  0.00000000000E+00 0. -1.
         22    1    5    5    0    0  0.35437670528E+03  0.16697205833E+03  0.28392969536E+03  0.48381668988E+03  0.00000000000E+00 0. -1.
          5    1    4    4  502    0 -0.31792712018E+02 -0.21467298716E+02  0.22355466878E+02  0.44648385760E+02  0.47000000000E+01 0.  1.
         -5    1    4    4    0  502 -0.25018876405E+02 -0.16025284320E+02 -0.13113234015E+03  0.13453822709E+03  0.47000000000E+01 0.  1.
<mgrwt>
<rscale>  0 0.99993979E+03</rscale>
<asrwt>0</asrwt>
<pdfrwt beam="1">  1        1 0.82875354E-01 0.99993979E+03</pdfrwt>
<pdfrwt beam="2">  1       -1 0.71389707E-01 0.99993979E+03</pdfrwt>
<totfact> 0.92912667E+01</totfact>
</mgrwt>
</event>
<event>
 9    1  0.4307774E-036  0.9995808E+03  0.7818608E-02  0.8681437E-01
         -3   -1    0    0    0  501 -0.00000000000E+00  0.00000000000E+00  0.14413371200E+04  0.14413371200E+04  0.00000000000E+00 0.  1.
          3   -1    0    0  501    0  0.00000000000E+00 -0.00000000000E+00 -0.17330466462E+03  0.17330466462E+03  0.00000000000E+00 0.  1.
         36    2    1    2    0    0  0.28421709430E-13  0.46185277824E-13  0.12680324554E+04  0.16146417846E+04  0.99958080449E+03 0.  0.
         25    2    3    3    0    0  0.67531740336E+02  0.15961734833E+02  0.43314684450E+03  0.45622009681E+03  0.12532068823E+03 0.  0.
         35    2    3    3    0    0 -0.67531740336E+02 -0.15961734833E+02  0.83488561085E+03  0.11584216878E+04  0.80005719207E+03 0.  0.
         22    1    5    5    0    0 -0.30196692723E+03  0.25849970985E+03  0.24522993870E+03  0.46705872004E+03  0.00000000000E+00 0. -1.
         22    1    5    5    0    0  0.23443518689E+03 -0.27446144468E+03  0.58965567215E+03  0.69136296774E+03  0.00000000000E+00 0. -1.
          5    1    4    4  502    0  0.26148244225E+02 -0.17400516638E+02  0.37853356626E+03  0.37986347474E+03  0.47000000000E+01 0.  1.
         -5    1    4    4    0  502  0.41383496111E+02  0.33362251470E+02  0.54613278241E+02  0.76356622069E+02  0.47000000000E+01 0.  1.
<mgrwt>
<rscale>  0 0.99958080E+03</rscale>
<asrwt>0</asrwt>
<pdfrwt beam="1">  1        3 0.26662257E-01 0.99958080E+03</pdfrwt>
<pdfrwt beam="2">  1       -3 0.22174416E+00 0.99958080E+03</pdfrwt>
<totfact> 0.37240701E+00</totfact>
</mgrwt>
</event>
<event>
 9    1  0.4307774E-036  0.1000611E+04  0.7818608E-02  0.8680457E-01
         -1   -1    0    0    0  501 -0.00000000000E+00  0.00000000000E+00  0.10089087453E+04  0.10089087453E+04  0.00000000000E+00 0. -1.
          1   -1    0    0  501    0  0.00000000000E+00 -0.00000000000E+00 -0.24809514831E+03  0.24809514831E+03  0.00000000000E+00 0. -1.
         36    2    1    2    0    0  0.14210854715E-13  0.14210854715E-13  0.76081359703E+03  0.12570038936E+04  0.10006105432E+04 0.  0.
         25    2    3    3    0    0  0.68567421781E+02  0.33148367253E+02  0.29243177249E+03  0.32695606787E+03  0.12483438297E+03 0.  0.
         35    2    3    3    0    0 -0.68567421781E+02 -0.33148367253E+02  0.46838182453E+03  0.93004782578E+03  0.79987944035E+03 0.  0.
         22    1    5    5    0    0 -0.14007204285E+03  0.77781148433E+02  0.67010169478E+03  0.68898937988E+03  0.00000000000E+00 0. -1.
         22    1    5    5    0    0  0.71504621071E+02 -0.11092951569E+03 -0.20171987025E+03  0.24105844590E+03  0.00000000000E+00 0. -1.
          5    1    4    4  502    0  0.84907622471E+02  0.17902084793E+02  0.97158978410E+02  0.13035239192E+03  0.47000000000E+01 0. -1.
         -5    1    4    4    0  502 -0.16340200691E+02  0.15246282461E+02  0.19527279408E+03  0.19660367595E+03  0.47000000000E+01 0. -1.
<mgrwt>
<rscale>  0 0.10006105E+04</rscale>
<asrwt>0</asrwt>
<pdfrwt beam="1">  1        1 0.38168485E-01 0.10006105E+04</pdfrwt>
<pdfrwt beam="2">  1       -1 0.15521673E+00 0.10006105E+04</pdfrwt>
<totfact> 0.41614877E+01</totfact>
</mgrwt>
</event>
<event>
 9    1  0.4307774E-036  0.9995697E+03  0.7818608E-02  0.8681448E-01
         -2   -1    0    0    0  501 -0.00000000000E+00  0.00000000000E+00  0.25157575567E+03  0.25157575567E+03  0.00000000000E+00 0. -1.
          2   -1    0    0  501    0  0.00000000000E+00 -0.00000000000E+00 -0.99288138883E+03  0.99288138883E+03  0.00000000000E+00 0. -1.
         36    2    1    2    0    0 -0.14210854715E-13  0.28421709430E-13 -0.74130563317E+03  0.12444571445E+04  0.99956967878E+03 0.  0.
         25    2    3    3    0    0 -0.96135090270E+02  0.61925197041E+02 -0.38948806958E+02  0.17352567389E+03  0.12456911466E+03 0.  0.
         35    2    3    3    0    0  0.96135090270E+02 -0.61925197041E+02 -0.70235682621E+03  0.10709314706E+04  0.80032019706E+03 0.  0.
         22    1    5    5    0    0  0.66853669189E+02  0.36215761667E+03 -0.42964340268E+03  0.56588073466E+03  0.00000000000E+00 0.  1.
         22    1    5    5    0    0  0.29281421080E+02 -0.42408281371E+03 -0.27271342353E+03  0.50505073595E+03  0.00000000000E+00 0.  1.
          5    1    4    4  502    0 -0.11797021767E+03  0.60705493451E+02 -0.57298459246E+02  0.14459368114E+03  0.47000000000E+01 0. -1.
         -5    1    4    4    0  502  0.21835127403E+02  0.12197035897E+01  0.18349652288E+02  0.28931992753E+02  0.47000000000E+01 0. -1.
<mgrwt>
<rscale>  0 0.99956968E+03</rscale>
<asrwt>0</asrwt>
<pdfrwt beam="1">  1        2 0.15275098E+00 0.99956968E+03</pdfrwt>
<pdfrwt beam="2">  1       -2 0.38703962E-01 0.99956968E+03</pdfrwt>
<totfact> 0.19407900E+02</totfact>
</mgrwt>
</event>
<event>
 9    1  0.4307774E-036  0.1001416E+04  0.7818608E-02  0.8679690E-01
         -1   -1    0    0    0  501 -0.00000000000E+00  0.00000000000E+00  0.33814293691E+03  0.33814293691E+03  0.00000000000E+00 0. -1.
          1   -1    0    0  501    0  0.00000000000E+00 -0.00000000000E+00 -0.74142798458E+03  0.74142798458E+03  0.00000000000E+00 0. -1.
         36    2    1    2    0    0  0.14210854715E-13 -0.14210854715E-13 -0.40328504767E+03  0.10795709215E+04  0.10014162695E+04 0.  0.
         25    2    3    3    0    0 -0.56716715698E+02 -0.77657583695E+02 -0.18961624042E+03  0.24674669817E+03  0.12522830464E+03 0.  0.
         35    2    3    3    0    0  0.56716715698E+02  0.77657583695E+02 -0.21366880726E+03  0.83282422332E+03  0.79918354689E+03 0.  0.
         22    1    5    5    0    0  0.19218724025E+03  0.20145437083E+03 -0.45270242535E+03  0.53146898758E+03  0.00000000000E+00 0.  1.
         22    1    5    5    0    0 -0.13547052455E+03 -0.12379678714E+03  0.23903361810E+03  0.30135523574E+03  0.00000000000E+00 0.  1.
          5    1    4    4  502    0 -0.15312629162E+02 -0.22638010078E+02  0.14488499669E+02  0.31288380188E+02  0.47000000000E+01 0.  1.
         -5    1    4    4    0  502 -0.41404086537E+02 -0.55019573617E+02 -0.20410474008E+03  0.21545831798E+03  0.47000000000E+01 0.  1.
<mgrwt>
<rscale>  0 0.10014163E+04</rscale>
<asrwt>0</asrwt>
<pdfrwt beam="1">  1        1 0.11406584E+00 0.10014163E+04</pdfrwt>
<pdfrwt beam="2">  1       -1 0.52021991E-01 0.10014163E+04</pdfrwt>
<totfact> 0.10626465E+02</totfact>
</mgrwt>
</event>
<event>
 9    1  0.4307774E-036  0.9993773E+03  0.7818608E-02  0.8681631E-01
          1   -1    0    0  501    0  0.00000000000E+00  0.00000000000E+00  0.12264916658E+04  0.12264916658E+04  0.00000000000E+00 0. -1.
         -1   -1    0    0    0  501 -0.00000000000E+00 -0.00000000000E+00 -0.20357964837E+03  0.20357964837E+03  0.00000000000E+00 0. -1.
         36    2    1    2    0    0 -0.28421709430E-13  0.00000000000E+00  0.10229120174E+04  0.14300713141E+04  0.99937729022E+03 0.  0.
         25    2    3    3    0    0 -0.13772914501E+03 -0.22454255122E+02  0.20125457166E+03  0.27492569325E+03  0.12492887271E+03 0.  0.
         35    2    3    3    0    0  0.13772914501E+03  0.22454255122E+02  0.82165744573E+03  0.11551456209E+04  0.79985432197E+03 0.  0.
         22    1    5    5    0    0  0.40496873593E+03  0.23623225950E+03  0.44831156192E+03  0.64868221346E+03  0.00000000000E+00 0.  1.
         22    1    5    5    0    0 -0.26723959092E+03 -0.21377800437E+03  0.37334588381E+03  0.50646340743E+03  0.00000000000E+00 0.  1.
          5    1    4    4  502    0 -0.13819143764E+03 -0.58879904872E+02  0.16754264504E+03  0.22506964376E+03  0.47000000000E+01 0. -1.
         -5    1    4    4    0  502  0.46229263074E+00  0.36425649750E+02  0.33711926620E+02  0.49856049489E+02  0.47000000000E+01 0. -1.
<mgrwt>
<rscale>  0 0.99937729E+03</rscale>
<asrwt>0</asrwt>
<pdfrwt beam="1">  1        1 0.18869102E+00 0.99937729E+03</pdfrwt>
<pdfrwt beam="2">  1       -1 0.31319947E-01 0.99937729E+03</pdfrwt>
<totfact> 0.10635122E+02</totfact>
</mgrwt>
</event>
<event>
 9    1  0.4307774E-036  0.9989129E+03  0.7818608E-02  0.8682074E-01
         -2   -1    0    0    0  501 -0.00000000000E+00  0.00000000000E+00  0.90608942190E+02  0.90608942190E+02  0.00000000000E+00 0. -1.
          2   -1    0    0  501    0  0.00000000000E+00 -0.00000000000E+00 -0.27531140693E+04  0.27531140693E+04  0.00000000000E+00 0. -1.
         36    2    1    2    0    0  0.71054273576E-14  0.35527136788E-14 -0.26625051271E+04  0.28437230115E+04  0.99891291622E+03 0.  0.
         25    2    3    3    0    0  0.45034186529E+02 -0.31663141453E+02 -0.12173944815E+03  0.17949676646E+03  0.11986644005E+03 0.  0.
         35    2    3    3    0    0 -0.45034186529E+02  0.31663141453E+02 -0.25407656789E+04  0.26642262450E+04  0.79973784257E+03 0.  0.
         22    1    5    5    0    0  0.36522442977E+03 -0.71040660816E+02 -0.10196820559E+04  0.10854432987E+04  0.00000000000E+00 0. -1.
         22    1    5    5    0    0 -0.41025861630E+03  0.10270380227E+03 -0.15210836231E+04  0.15787829464E+04  0.00000000000E+00 0. -1.
          5    1    4    4  502    0  0.29020312412E+01  0.93227605740E+00  0.23796596918E+02  0.24447064217E+02  0.47000000000E+01 0.  1.
         -5    1    4    4    0  502  0.42132155288E+02 -0.32595417511E+02 -0.14553604507E+03  0.15504970224E+03  0.47000000000E+01 0.  1.
<mgrwt>
<rscale>  0 0.99891292E+03</rscale>
<asrwt>0</asrwt>
<pdfrwt beam="1">  1        2 0.42355598E+00 0.99891292E+03</pdfrwt>
<pdfrwt beam="2">  1       -2 0.13939838E-01 0.99891292E+03</pdfrwt>
<totfact> 0.10953989E+02</totfact>
</mgrwt>
</event>
<event>
 9    1  0.4307774E-036  0.1000171E+04  0.7818608E-02  0.8680875E-01
         -2   -1    0    0    0  501 -0.00000000000E+00  0.00000000000E+00  0.22637989162E+03  0.22637989162E+03  0.00000000000E+00 0.  1.
          2   -1    0    0  501    0  0.00000000000E+00 -0.00000000000E+00 -0.11047171367E+04  0.11047171367E+04  0.00000000000E+00 0.  1.
         36    2    1    2    0    0 -0.14210854715E-13  0.00000000000E+00 -0.87833724506E+03  0.13310970283E+04  0.10001714766E+04 0.  0.
         25    2    3    3    0    0  0.63720811897E+02 -0.91431716535E+02 -0.54295502209E+02  0.17641234387E+03  0.12551180363E+03 0.  0.
         35    2    3    3    0    0 -0.63720811897E+02  0.91431716535E+02 -0.82404174286E+03  0.11546846844E+04  0.80114407309E+03 0.  0.
         22    1    5    5    0    0  0.14878647277E+03  0.34014339953E+03 -0.72224260102E+03  0.81207716471E+03  0.00000000000E+00 0.  1.
         22    1    5    5    0    0 -0.21250728466E+03 -0.24871168299E+03 -0.10179914183E+03  0.34260751972E+03  0.00000000000E+00 0.  1.
          5    1    4    4  502    0  0.47432506310E+02  0.49042372843E+01  0.21644472063E+02  0.52578202414E+02  0.47000000000E+01 0. -1.
         -5    1    4    4    0  502  0.16288305586E+02 -0.96335953820E+02 -0.75939974272E+02  0.12383414145E+03  0.47000000000E+01 0. -1.
<mgrwt>
<rscale>  0 0.10001715E+04</rscale>
<asrwt>0</asrwt>
<pdfrwt beam="1">  1        2 0.16995648E+00 0.10001715E+04</pdfrwt>
<pdfrwt beam="2">  1       -2 0.34827676E-01 0.10001715E+04</pdfrwt>
<totfact> 0.20194612E+02</totfact>
</mgrwt>
</event>
<event>
 9    1  0.4307774E-036  0.1000203E+04  0.7818608E-02  0.8680844E-01
          1   -1    0    0  501    0  0.00000000000E+00  0.00000000000E+00  0.89850138029E+03  0.89850138029E+03  0.00000000000E+00 0. -1.
         -1   -1    0    0    0  501 -0.00000000000E+00 -0.00000000000E+00 -0.27835426065E+03  0.27835426065E+03  0.00000000000E+00 0. -1.
         36    2    1    2    0    0  0.00000000000E+00  0.28421709430E-13  0.62014711964E+03  0.11768556409E+04  0.10002033541E+04 0.  0.
         25    2    3    3    0    0 -0.12199175199E+03 -0.73818330942E+02  0.10573945577E+03  0.21612858612E+03  0.12328665658E+03 0.  0.
         35    2    3    3    0    0  0.12199175199E+03  0.73818330942E+02  0.51440766387E+03  0.96072705483E+03  0.79878038013E+03 0.  0.
         22    1    5    5    0    0  0.77158869661E+02 -0.23866382431E+03  0.58565295044E+03  0.63710539988E+03  0.00000000000E+00 0. -1.
         22    1    5    5    0    0  0.44832882333E+02  0.31248215525E+03 -0.71245286566E+02  0.32362165494E+03  0.00000000000E+00 0. -1.
          5    1    4    4  502    0 -0.11029017849E+03  0.28973619231E+01  0.55798169872E+02  0.12372487195E+03  0.47000000000E+01 0.  1.
         -5    1    4    4    0  502 -0.11701573501E+02 -0.76715692865E+02  0.49941285902E+02  0.92403714167E+02  0.47000000000E+01 0.  1.
<mgrwt>
<rscale>  0 0.10002034E+04</rscale>
<asrwt>0</asrwt>
<pdfrwt beam="1">  1        1 0.13823098E+00 0.10002034E+04</pdfrwt>
<pdfrwt beam="2">  1       -1 0.42823733E-01 0.10002034E+04</pdfrwt>
<totfact> 0.11062867E+02</totfact>
</mgrwt>
</event>
<event>
 9    1  0.4307774E-036  0.9979538E+03  0.7818608E-02  0.8682989E-01
          2   -1    0    0  501    0  0.00000000000E+00  0.00000000000E+00  0.20262123180E+04  0.20262123180E+04  0.00000000000E+00 0.  1.
         -2   -1    0    0    0  501 -0.00000000000E+00 -0.00000000000E+00 -0.12287850887E+03  0.12287850887E+03  0.00000000000E+00 0.  1.
         36    2    1    2    0    0  0.00000000000E+00 -0.71054273576E-14  0.19033338091E+04  0.21490908269E+04  0.99795380311E+03 0.  0.
         25    2    3    3    0    0  0.27527190443E+02 -0.58105645621E+02  0.93678787512E+02  0.16903478500E+03  0.12515203172E+03 0.  0.
         35    2    3    3    0    0 -0.27527190443E+02  0.58105645621E+02  0.18096550216E+04  0.19800560418E+04  0.80102223401E+03 0.  0.
         22    1    5    5    0    0 -0.51454475420E+02  0.10921909004E+02 -0.76675509126E+02  0.92983788032E+02  0.00000000000E+00 0.  1.
         22    1    5    5    0    0  0.23927284977E+02  0.47183736617E+02  0.18863305307E+04  0.18870722538E+04  0.00000000000E+00 0.  1.
          5    1    4    4  502    0  0.18315110185E+02  0.32686048330E+02 -0.56322845698E+00  0.37765437146E+02  0.47000000000E+01 0. -1.
         -5    1    4    4    0  502  0.92120802573E+01 -0.90791693951E+02  0.94242015969E+02  0.13126934786E+03  0.47000000000E+01 0. -1.
<mgrwt>
<rscale>  0 0.99795380E+03</rscale>
<asrwt>0</asrwt>
<pdfrwt beam="1">  1        2 0.31172495E+00 0.99795380E+03</pdfrwt>
<pdfrwt beam="2">  1       -2 0.18904387E-01 0.99795380E+03</pdfrwt>
<totfact> 0.17848930E+02</totfact>
</mgrwt>
</event>
<event>
 9    1  0.4307774E-036  0.1000156E+04  0.7818608E-02  0.8680889E-01
         -1   -1    0    0    0  501 -0.00000000000E+00  0.00000000000E+00  0.54134644059E+03  0.54134644059E+03  0.00000000000E+00 0. -1.
          1   -1    0    0  501    0  0.00000000000E+00 -0.00000000000E+00 -0.46195557203E+03  0.46195557203E+03  0.00000000000E+00 0. -1.
         36    2    1    2    0    0  0.00000000000E+00  0.14210854715E-13  0.79390868553E+02  0.10033020126E+04  0.10001559971E+04 0.  0.
         25    2    3    3    0    0 -0.90264366230E+02 -0.85948364151E+02 -0.42398044368E+02  0.18469420922E+03  0.12953601678E+03 0.  0.
         35    2    3    3    0    0  0.90264366230E+02  0.85948364151E+02  0.12178891292E+03  0.81860780340E+03  0.79984462201E+03 0.  0.
         22    1    5    5    0    0 -0.27740485791E+03  0.24878681585E+03  0.17734281849E+03  0.41267276407E+03  0.00000000000E+00 0. -1.
         22    1    5    5    0    0  0.36766922414E+03 -0.16283845170E+03 -0.55553905566E+02  0.40593503933E+03  0.00000000000E+00 0. -1.
          5    1    4    4  502    0 -0.77949942999E+02  0.10428765165E+02 -0.37611682378E+02  0.87302241711E+02  0.47000000000E+01 0. -1.
         -5    1    4    4    0  502 -0.12314423231E+02 -0.96377129315E+02 -0.47863619904E+01  0.97391967511E+02  0.47000000000E+01 0. -1.
<mgrwt>
<rscale>  0 0.10001560E+04</rscale>
<asrwt>0</asrwt>
<pdfrwt beam="1">  1        1 0.71070087E-01 0.10001560E+04</pdfrwt>
<pdfrwt beam="2">  1       -1 0.83284069E-01 0.10001560E+04</pdfrwt>
<totfact> 0.83785484E+01</totfact>
</mgrwt>
</event>
<event>
 9    1  0.4307774E-036  0.1000896E+04  0.7818608E-02  0.8680185E-01
         -1   -1    0    0    0  501 -0.00000000000E+00  0.00000000000E+00  0.36887094280E+03  0.36887094280E+03  0.00000000000E+00 0.  1.
          1   -1    0    0  501    0  0.00000000000E+00 -0.00000000000E+00 -0.67895867992E+03  0.67895867992E+03  0.00000000000E+00 0.  1.
         36    2    1    2    0    0 -0.14210854715E-13  0.14210854715E-13 -0.31008773712E+03  0.10478296227E+04  0.10008958555E+04 0.  0.
         25    2    3    3    0    0  0.86692233904E+02 -0.97015401175E+02 -0.11524213001E+03  0.21471421487E+03  0.12607106748E+03 0.  0.
         35    2    3    3    0    0 -0.86692233904E+02  0.97015401175E+02 -0.19484560712E+03  0.83311540785E+03  0.79949292724E+03 0.  0.
         22    1    5    5    0    0  0.35467880164E+03  0.22682128831E+02 -0.14079984690E+03  0.38227755386E+03  0.00000000000E+00 0.  1.
         22    1    5    5    0    0 -0.44137103554E+03  0.74333272344E+02 -0.54045760221E+02  0.45083785399E+03  0.00000000000E+00 0.  1.
          5    1    4    4  502    0  0.10405188814E+03 -0.11349244440E+03 -0.85262830756E+02  0.17606581346E+03  0.47000000000E+01 0. -1.
         -5    1    4    4    0  502 -0.17359654235E+02  0.16477043221E+02 -0.29979299250E+02  0.38648401415E+02  0.47000000000E+01 0. -1.
<mgrwt>
<rscale>  0 0.10008959E+04</rscale>
<asrwt>0</asrwt>
<pdfrwt beam="1">  1        1 0.10445518E+00 0.10008959E+04</pdfrwt>
<pdfrwt beam="2">  1       -1 0.56749376E-01 0.10008959E+04</pdfrwt>
<totfact> 0.10338714E+02</totfact>
</mgrwt>
</event>
<event>
 9    1  0.4307774E-036  0.1000366E+04  0.7818608E-02  0.8680689E-01
          2   -1    0    0  501    0  0.00000000000E+00  0.00000000000E+00  0.15640884242E+04  0.15640884242E+04  0.00000000000E+00 0.  1.
         -2   -1    0    0    0  501 -0.00000000000E+00 -0.00000000000E+00 -0.15995466055E+03  0.15995466055E+03  0.00000000000E+00 0.  1.
         36    2    1    2    0    0  0.00000000000E+00  0.71054273576E-14  0.14041337636E+04  0.17240430847E+04  0.10003663988E+04 0.  0.
         25    2    3    3    0    0 -0.13767572500E+03  0.28519623637E+02  0.27074150492E+03  0.32954241949E+03  0.12461648996E+03 0.  0.
         35    2    3    3    0    0  0.13767572500E+03 -0.28519623637E+02  0.11333922587E+04  0.13945006652E+04  0.80017880444E+03 0.  0.
         22    1    5    5    0    0  0.26091504860E+03  0.15489251167E+03  0.11336245029E+04  0.11735300875E+04  0.00000000000E+00 0.  1.
         22    1    5    5    0    0 -0.12323932361E+03 -0.18341213531E+03 -0.23224423755E+00  0.22097057768E+03  0.00000000000E+00 0.  1.
          5    1    4    4  502    0 -0.62341108666E+02  0.13342781685E+02  0.19598386996E+02  0.66862773092E+02  0.47000000000E+01 0.  1.
         -5    1    4    4    0  502 -0.75334616332E+02  0.15176841952E+02  0.25114311792E+03  0.26267964639E+03  0.47000000000E+01 0.  1.
<mgrwt>
<rscale>  0 0.10003664E+04</rscale>
<asrwt>0</asrwt>
<pdfrwt beam="1">  1        2 0.24062898E+00 0.10003664E+04</pdfrwt>
<pdfrwt beam="2">  1       -2 0.24608410E-01 0.10003664E+04</pdfrwt>
<totfact> 0.20561322E+02</totfact>
</mgrwt>
</event>
<event>
 9    1  0.4307774E-036  0.1001185E+04  0.7818608E-02  0.8679911E-01
         -2   -1    0    0    0  501 -0.00000000000E+00  0.00000000000E+00  0.28173791713E+03  0.28173791713E+03  0.00000000000E+00 0. -1.
          2   -1    0    0  501    0  0.00000000000E+00 -0.00000000000E+00 -0.88945319955E+03  0.88945319955E+03  0.00000000000E+00 0. -1.
         36    2    1    2    0    0  0.00000000000E+00 -0.14210854715E-13 -0.60771528242E+03  0.11711911167E+04  0.10011846819E+04 0.  0.
         25    2    3    3    0    0 -0.72886419899E+02 -0.64803663383E+02  0.57669697428E+01  0.15814435311E+03  0.12435607540E+03 0.  0.
         35    2    3    3    0    0  0.72886419899E+02  0.64803663383E+02 -0.61348225217E+03  0.10130467636E+04  0.80024454166E+03 0.  0.
         22    1    5    5    0    0  0.23020477367E+02 -0.62532403304E+02  0.18827057168E+03  0.19971492684E+03  0.00000000000E+00 0.  1.
         22    1    5    5    0    0  0.49865942532E+02  0.12733606669E+03 -0.80175282384E+03  0.81333183673E+03  0.00000000000E+00 0.  1.
          5    1    4    4  502    0  0.32559102674E+02  0.21210675976E+01  0.34368136369E+01  0.33143563216E+02  0.47000000000E+01 0. -1.
         -5    1    4    4    0  502 -0.10544552257E+03 -0.66924730981E+02  0.23301561060E+01  0.12500078990E+03  0.47000000000E+01 0. -1.
<mgrwt>
<rscale>  0 0.10011847E+04</rscale>
<asrwt>0</asrwt>
<pdfrwt beam="1">  1        2 0.13683895E+00 0.10011847E+04</pdfrwt>
<pdfrwt beam="2">  1       -2 0.43344295E-01 0.10011847E+04</pdfrwt>
<totfact> 0.18203962E+02</totfact>
</mgrwt>
</event>
<event>
 9    1  0.4307774E-036  0.1000084E+04  0.7818608E-02  0.8680958E-01
         -4   -1    0    0    0  501 -0.00000000000E+00  0.00000000000E+00  0.43624887599E+03  0.43624887599E+03  0.00000000000E+00 0. -1.
          4   -1    0    0  501    0  0.00000000000E+00 -0.00000000000E+00 -0.57316371098E+03  0.57316371098E+03  0.00000000000E+00 0. -1.
         36    2    1    2    0    0  0.00000000000E+00 -0.14210854715E-13 -0.13691483498E+03  0.10094125870E+04  0.10000840458E+04 0.  0.
         25    2    3    3    0    0 -0.11502675917E+03  0.81450902000E+02 -0.31555688537E+02  0.19027727940E+03  0.12387201788E+03 0.  0.
         35    2    3    3    0    0  0.11502675917E+03 -0.81450902000E+02 -0.10535914645E+03  0.81913530757E+03  0.80001043594E+03 0.  0.
         22    1    5    5    0    0 -0.24382971523E+03 -0.29779638926E+03  0.82789903689E+01  0.38497293562E+03  0.00000000000E+00 0.  1.
         22    1    5    5    0    0  0.35885647440E+03  0.21634548726E+03 -0.11363813682E+03  0.43416237195E+03  0.00000000000E+00 0.  1.
          5    1    4    4  502    0 -0.88752459867E+02  0.54325051932E+02  0.38091632563E+02  0.11091110346E+03  0.47000000000E+01 0. -1.
         -5    1    4    4    0  502 -0.26274299308E+02  0.27125850068E+02 -0.69647321100E+02  0.79366175934E+02  0.47000000000E+01 0. -1.
<mgrwt>
<rscale>  0 0.10000840E+04</rscale>
<asrwt>0</asrwt>
<pdfrwt beam="1">  1        4 0.88179033E-01 0.10000840E+04</pdfrwt>
<pdfrwt beam="2">  1       -4 0.67115211E-01 0.10000840E+04</pdfrwt>
<totfact> 0.51911882E+00</totfact>
</mgrwt>
</event>
<event>
 9    1  0.4307774E-036  0.1001456E+04  0.7818608E-02  0.8679653E-01
          2   -1    0    0  501    0  0.00000000000E+00  0.00000000000E+00  0.79647953686E+03  0.79647953686E+03  0.00000000000E+00 0.  1.
         -2   -1    0    0    0  501 -0.00000000000E+00 -0.00000000000E+00 -0.31479596913E+03  0.31479596913E+03  0.00000000000E+00 0.  1.
         36    2    1    2    0    0  0.28421709430E-13  0.28421709430E-13  0.48168356773E+03  0.11112755060E+04  0.10014560354E+04 0.  0.
         25    2    3    3    0    0  0.44638185603E+02 -0.11691847240E+03  0.16305140341E+02  0.17752188765E+03  0.12484256562E+03 0.  0.
         35    2    3    3    0    0 -0.44638185603E+02  0.11691847240E+03  0.46537842739E+03  0.93375361834E+03  0.79978512257E+03 0.  0.
         22    1    5    5    0    0 -0.21041797307E+03  0.33144711290E+02  0.64262555901E+03  0.67700953049E+03  0.00000000000E+00 0. -1.
         22    1    5    5    0    0  0.16577978747E+03  0.83773761107E+02 -0.17724713162E+03  0.25674408786E+03  0.00000000000E+00 0. -1.
          5    1    4    4  502    0  0.35527415050E+02  0.13481121455E+02 -0.17981522784E+02  0.42300863082E+02  0.47000000000E+01 0.  1.
         -5    1    4    4    0  502  0.91107705527E+01 -0.13039959385E+03  0.34286663125E+02  0.13522102457E+03  0.47000000000E+01 0.  1.
<mgrwt>
<rscale>  0 0.10014560E+04</rscale>
<asrwt>0</asrwt>
<pdfrwt beam="1">  1        2 0.12253531E+00 0.10014560E+04</pdfrwt>
<pdfrwt beam="2">  1       -2 0.48430149E-01 0.10014560E+04</pdfrwt>
<totfact> 0.16936912E+02</totfact>
</mgrwt>
</event>
<event>
 9    1  0.4307774E-036  0.9999341E+03  0.7818608E-02  0.8681101E-01
         -1   -1    0    0    0  501 -0.00000000000E+00  0.00000000000E+00  0.13260675581E+03  0.13260675581E+03  0.00000000000E+00 0.  1.
          1   -1    0    0  501    0  0.00000000000E+00 -0.00000000000E+00 -0.18850249478E+04  0.18850249478E+04  0.00000000000E+00 0.  1.
         36    2    1    2    0    0  0.00000000000E+00  0.00000000000E+00 -0.17524181920E+04  0.20176317036E+04  0.99993408372E+03 0.  0.
         25    2    3    3    0    0  0.10237506677E+03  0.48931479253E+02 -0.16092449801E+03  0.23263735931E+03  0.12388907510E+03 0.  0.
         35    2    3    3    0    0 -0.10237506677E+03 -0.48931479253E+02 -0.15914936940E+04  0.17849943443E+04  0.80029849883E+03 0.  0.
         22    1    5    5    0    0 -0.20533402193E+03  0.10680531972E+03 -0.15811651906E+04  0.15980152680E+04  0.00000000000E+00 0.  1.
         22    1    5    5    0    0  0.10295895516E+03 -0.15573679898E+03 -0.10328503448E+02  0.18697907633E+03  0.00000000000E+00 0.  1.
          5    1    4    4  502    0  0.53880673289E+02 -0.67625098679E+01  0.10973657100E+01  0.54517453217E+02  0.47000000000E+01 0.  1.
         -5    1    4    4    0  502  0.48494393481E+02  0.55693989121E+02 -0.16202186372E+03  0.17811990609E+03  0.47000000000E+01 0.  1.
<mgrwt>
<rscale>  0 0.99993408E+03</rscale>
<asrwt>0</asrwt>
<pdfrwt beam="1">  1        1 0.29000384E+00 0.99993408E+03</pdfrwt>
<pdfrwt beam="2">  1       -1 0.20401039E-01 0.99993408E+03</pdfrwt>
<totfact> 0.74207812E+01</totfact>
</mgrwt>
</event>
<event>
 9    1  0.4307774E-036  0.1001037E+04  0.7818608E-02  0.8680051E-01
          2   -1    0    0  501    0  0.00000000000E+00  0.00000000000E+00  0.41881144221E+04  0.41881144221E+04  0.00000000000E+00 0.  1.
         -2   -1    0    0    0  501 -0.00000000000E+00 -0.00000000000E+00 -0.59816622146E+02  0.59816622146E+02  0.00000000000E+00 0.  1.
         36    2    1    2    0    0 -0.14210854715E-13  0.00000000000E+00  0.41282978000E+04  0.42479310443E+04  0.10010371779E+04 0.  0.
         25    2    3    3    0    0  0.18479141064E+02  0.13123694311E+03  0.91504710318E+03  0.93395804888E+03  0.13191596624E+03 0.  0.
         35    2    3    3    0    0 -0.18479141064E+02 -0.13123694311E+03  0.32132506968E+04  0.33139729954E+04  0.79992022088E+03 0.  0.
         22    1    5    5    0    0 -0.32036688253E+03 -0.20853941897E+03  0.87243670750E+03  0.95250692243E+03  0.00000000000E+00 0.  1.
         22    1    5    5    0    0  0.30188774147E+03  0.77302475856E+02  0.23408139893E+04  0.23614660730E+04  0.00000000000E+00 0.  1.
          5    1    4    4  502    0 -0.39988567136E+02  0.64421448761E+02  0.20983963179E+03  0.22316803004E+03  0.47000000000E+01 0. -1.
         -5    1    4    4    0  502  0.58467708199E+02  0.66815494351E+02  0.70520747138E+03  0.71079001884E+03  0.47000000000E+01 0. -1.
<mgrwt>
<rscale>  0 0.10010372E+04</rscale>
<asrwt>0</asrwt>
<pdfrwt beam="1">  1        2 0.64432507E+00 0.10010372E+04</pdfrwt>
<pdfrwt beam="2">  1       -2 0.92025605E-02 0.10010372E+04</pdfrwt>
<totfact> 0.17627962E+01</totfact>
</mgrwt>
</event>
<event>
 9    1  0.4307774E-036  0.1000134E+04  0.7818608E-02  0.8680911E-01
         -2   -1    0    0    0  501 -0.00000000000E+00  0.00000000000E+00  0.11951368998E+03  0.11951368998E+03  0.00000000000E+00 0.  1.
          2   -1    0    0  501    0  0.00000000000E+00 -0.00000000000E+00 -0.20923701939E+04  0.20923701939E+04  0.00000000000E+00 0.  1.
         36    2    1    2    0    0  0.71054273576E-14 -0.14210854715E-13 -0.19728565039E+04  0.22118838839E+04  0.10001337564E+04 0.  0.
         25    2    3    3    0    0 -0.62884187584E+02 -0.10386818821E+03 -0.21591436854E+03  0.27753394124E+03  0.12515211715E+03 0.  0.
         35    2    3    3    0    0  0.62884187584E+02  0.10386818821E+03 -0.17569421354E+04  0.19343499427E+04  0.80007562889E+03 0.  0.
         22    1    5    5    0    0  0.37015514771E+03  0.36928989543E+02 -0.14422836734E+04  0.14894833930E+04  0.00000000000E+00 0.  1.
         22    1    5    5    0    0 -0.30727096012E+03  0.66939198667E+02 -0.31465846205E+03  0.44486654964E+03  0.00000000000E+00 0.  1.
          5    1    4    4  502    0 -0.84408946868E+01  0.18067380138E+02 -0.95462895915E+02  0.97636742186E+02  0.47000000000E+01 0.  1.
         -5    1    4    4    0  502 -0.54443292897E+02 -0.12193556835E+03 -0.12045147262E+03  0.17989719905E+03  0.47000000000E+01 0.  1.
<mgrwt>
<rscale>  0 0.10001338E+04</rscale>
<asrwt>0</asrwt>
<pdfrwt beam="1">  1        2 0.32190307E+00 0.10001338E+04</pdfrwt>
<pdfrwt beam="2">  1       -2 0.18386724E-01 0.10001338E+04</pdfrwt>
<totfact> 0.17156773E+02</totfact>
</mgrwt>
</event>
<event>
 9    1  0.4307774E-036  0.1000879E+04  0.7818608E-02  0.8680201E-01
         -1   -1    0    0    0  501 -0.00000000000E+00  0.00000000000E+00  0.80987966946E+02  0.80987966946E+02  0.00000000000E+00 0. -1.
          1   -1    0    0  501    0  0.00000000000E+00 -0.00000000000E+00 -0.30923078533E+04  0.30923078533E+04  0.00000000000E+00 0. -1.
         36    2    1    2    0    0  0.00000000000E+00 -0.14210854715E-13 -0.30113198864E+04  0.31732958203E+04  0.10008790660E+04 0.  0.
         25    2    3    3    0    0  0.92463693029E+02 -0.11392616414E+03 -0.66388374889E+03  0.69045560650E+03  0.12024394831E+03 0.  0.
         35    2    3    3    0    0 -0.92463693029E+02  0.11392616414E+03 -0.23474361375E+04  0.24828402137E+04  0.79530522575E+03 0.  0.
         22    1    5    5    0    0  0.21676933805E+03 -0.95341642125E+02 -0.18271795543E+04  0.18424614238E+04  0.00000000000E+00 0. -1.
         22    1    5    5    0    0 -0.30923303108E+03  0.20926780627E+03 -0.52025658318E+03  0.64037878993E+03  0.00000000000E+00 0. -1.
          5    1    4    4  502    0  0.10978766455E+03 -0.46011924120E+02 -0.43683776766E+03  0.45279107070E+03  0.47000000000E+01 0.  1.
         -5    1    4    4    0  502 -0.17323971520E+02 -0.67914240023E+02 -0.22704598123E+03  0.23766453581E+03  0.47000000000E+01 0.  1.
<mgrwt>
<rscale>  0 0.10008791E+04</rscale>
<asrwt>0</asrwt>
<pdfrwt beam="1">  1        1 0.47573963E+00 0.10008791E+04</pdfrwt>
<pdfrwt beam="2">  1       -1 0.12459688E-01 0.10008791E+04</pdfrwt>
<totfact> 0.23106084E+01</totfact>
</mgrwt>
</event>
<event>
 9    1  0.4307774E-036  0.9999675E+03  0.7818608E-02  0.8681069E-01
         -2   -1    0    0    0  501 -0.00000000000E+00  0.00000000000E+00  0.26311623427E+03  0.26311623427E+03  0.00000000000E+00 0.  1.
          2   -1    0    0  501    0  0.00000000000E+00 -0.00000000000E+00 -0.95008870407E+03  0.95008870407E+03  0.00000000000E+00 0.  1.
         36    2    1    2    0    0 -0.28421709430E-13  0.00000000000E+00 -0.68697246980E+03  0.12132049383E+04  0.99996752355E+03 0.  0.
         25    2    3    3    0    0  0.10204411699E+03 -0.90369881797E+02 -0.16459028840E+03  0.24808368143E+03  0.12599933575E+03 0.  0.
         35    2    3    3    0    0 -0.10204411699E+03  0.90369881797E+02 -0.52238218139E+03  0.96512125691E+03  0.79999761234E+03 0.  0.
         22    1    5    5    0    0  0.10539012128E+03  0.16884031975E+03 -0.66984607656E+03  0.69879031012E+03  0.00000000000E+00 0.  1.
         22    1    5    5    0    0 -0.20743423826E+03 -0.78470437955E+02  0.14746389517E+03  0.26633094678E+03  0.00000000000E+00 0.  1.
          5    1    4    4  502    0  0.12813500080E+03 -0.61358775251E+02 -0.10508576664E+03  0.17677269609E+03  0.47000000000E+01 0.  1.
         -5    1    4    4    0  502 -0.26090883814E+02 -0.29011106546E+02 -0.59504521760E+02  0.71310985346E+02  0.47000000000E+01 0.  1.
<mgrwt>
<rscale>  0 0.99996752E+03</rscale>
<asrwt>0</asrwt>
<pdfrwt beam="1">  1        2 0.14616749E+00 0.99996752E+03</pdfrwt>
<pdfrwt beam="2">  1       -2 0.40479420E-01 0.99996752E+03</pdfrwt>
<totfact> 0.18966249E+02</totfact>
</mgrwt>
</event>
<event>
 9    1  0.4307774E-036  0.1000018E+04  0.7818608E-02  0.8681020E-01
          2   -1    0    0  501    0  0.00000000000E+00  0.00000000000E+00  0.68596445614E+03  0.68596445614E+03  0.00000000000E+00 0. -1.
         -2   -1    0    0    0  501 -0.00000000000E+00 -0.00000000000E+00 -0.36446380364E+03  0.36446380364E+03  0.00000000000E+00 0. -1.
         36    2    1    2    0    0 -0.56843418861E-13  0.00000000000E+00  0.32150065249E+03  0.10504282598E+04  0.10000184295E+04 0.  0.
         25    2    3    3    0    0 -0.13654893805E+03 -0.21558742070E+02  0.89823036658E+02  0.20658829218E+03  0.12449960928E+03 0.  0.
         35    2    3    3    0    0  0.13654893805E+03  0.21558742070E+02  0.23167761583E+03  0.84383996760E+03  0.79955048708E+03 0.  0.
         22    1    5    5    0    0 -0.28243703020E+03  0.11448848068E+02  0.30776993913E+03  0.41788047045E+03  0.00000000000E+00 0.  1.
         22    1    5    5    0    0  0.41898596825E+03  0.10109894001E+02 -0.76092323299E+02  0.42595949715E+03  0.00000000000E+00 0.  1.
          5    1    4    4  502    0 -0.63112186356E+02 -0.23152828711E+02  0.11112652781E+03  0.12996305909E+03  0.47000000000E+01 0.  1.
         -5    1    4    4    0  502 -0.73436751694E+02  0.15940866409E+01 -0.21303491153E+02  0.76625233095E+02  0.47000000000E+01 0.  1.
<mgrwt>
<rscale>  0 0.10000184E+04</rscale>
<asrwt>0</asrwt>
<pdfrwt beam="1">  1        2 0.10553299E+00 0.10000184E+04</pdfrwt>
<pdfrwt beam="2">  1       -2 0.56071354E-01 0.10000184E+04</pdfrwt>
<totfact> 0.15191544E+02</totfact>
</mgrwt>
</event>
<event>
 9    1  0.4307774E-036  0.9989251E+03  0.7818608E-02  0.8682062E-01
         -2   -1    0    0    0  501 -0.00000000000E+00  0.00000000000E+00  0.32845642697E+03  0.32845642697E+03  0.00000000000E+00 0.  1.
          2   -1    0    0  501    0  0.00000000000E+00 -0.00000000000E+00 -0.75950049561E+03  0.75950049561E+03  0.00000000000E+00 0.  1.
         36    2    1    2    0    0  0.00000000000E+00  0.71054273576E-14 -0.43104406864E+03  0.10879569226E+04  0.99892506039E+03 0.  0.
         25    2    3    3    0    0  0.37830741882E+02 -0.18252882818E+02  0.61635998935E+02  0.14549417998E+03  0.12492088409E+03 0.  0.
         35    2    3    3    0    0 -0.37830741882E+02  0.18252882818E+02 -0.49268006758E+03  0.94246274259E+03  0.80233287320E+03 0.  0.
         22    1    5    5    0    0 -0.58041934385E+02 -0.24607089502E+03 -0.60412498204E+03  0.65489445367E+03  0.00000000000E+00 0. -1.
         22    1    5    5    0    0  0.20211192503E+02  0.26432377784E+03  0.11144491446E+03  0.28756828892E+03  0.00000000000E+00 0. -1.
          5    1    4    4  502    0 -0.45486870788E+02  0.10524309158E+01  0.16126021380E+02  0.48500531857E+02  0.47000000000E+01 0. -1.
         -5    1    4    4    0  502  0.83317612670E+02 -0.19305313733E+02  0.45509977555E+02  0.96993648124E+02  0.47000000000E+01 0. -1.
<mgrwt>
<rscale>  0 0.99892506E+03</rscale>
<asrwt>0</asrwt>
<pdfrwt beam="1">  1        2 0.11684623E+00 0.99892506E+03</pdfrwt>
<pdfrwt beam="2">  1       -2 0.50531759E-01 0.99892506E+03</pdfrwt>
<totfact> 0.16534675E+02</totfact>
</mgrwt>
</event>
<event>
 9    1  0.4307774E-036  0.9997291E+03  0.7818608E-02  0.8681296E-01
          1   -1    0    0  501    0  0.00000000000E+00  0.00000000000E+00  0.16476550102E+04  0.16476550102E+04  0.00000000000E+00 0. -1.
         -1   -1    0    0    0  501 -0.00000000000E+00 -0.00000000000E+00 -0.15164858305E+03  0.15164858305E+03  0.00000000000E+00 0. -1.
         36    2    1    2    0    0  0.71054273576E-14 -0.28421709430E-13  0.14960064271E+04  0.17993035932E+04  0.99972905859E+03 0.  0.
         25    2    3    3    0    0 -0.47041780038E+02  0.12410923346E+03  0.36358011378E+03  0.40679820082E+03  0.12521280347E+03 0.  0.
         35    2    3    3    0    0  0.47041780038E+02 -0.12410923346E+03  0.11324263134E+04  0.13925053924E+04  0.79941596296E+03 0.  0.
         22    1    5    5    0    0 -0.20308882276E+03  0.17481181820E+03  0.95047977335E+02  0.28432087456E+03  0.00000000000E+00 0.  1.
         22    1    5    5    0    0  0.25013060280E+03 -0.29892105166E+03  0.10373783360E+04  0.11081845179E+04  0.00000000000E+00 0.  1.
          5    1    4    4  502    0 -0.99650989301E+01  0.79470686763E+02  0.32995044943E+03  0.33956484260E+03  0.47000000000E+01 0. -1.
         -5    1    4    4    0  502 -0.37076681108E+02  0.44638546695E+02  0.33629664357E+02  0.67233358222E+02  0.47000000000E+01 0. -1.
<mgrwt>
<rscale>  0 0.99972906E+03</rscale>
<asrwt>0</asrwt>
<pdfrwt beam="1">  1        1 0.25348537E+00 0.99972906E+03</pdfrwt>
<pdfrwt beam="2">  1       -1 0.23330552E-01 0.99972906E+03</pdfrwt>
<totfact> 0.87196394E+01</totfact>
</mgrwt>
</event>
<event>
 9    1  0.4307774E-036  0.1000626E+04  0.7818608E-02  0.8680442E-01
          1   -1    0    0  501    0  0.00000000000E+00  0.00000000000E+00  0.12451145277E+04  0.12451145277E+04  0.00000000000E+00 0. -1.
         -1   -1    0    0    0  501 -0.00000000000E+00 -0.00000000000E+00 -0.20103611393E+03  0.20103611393E+03  0.00000000000E+00 0. -1.
         36    2    1    2    0    0  0.00000000000E+00  0.00000000000E+00  0.10440784137E+04  0.14461506416E+04  0.10006257763E+04 0.  0.
         25    2    3    3    0    0  0.94207023347E+02 -0.97961976604E+02  0.26656827567E+03  0.32464219388E+03  0.12594600569E+03 0.  0.
         35    2    3    3    0    0 -0.94207023347E+02  0.97961976604E+02  0.77751013806E+03  0.11215084477E+04  0.79673563457E+03 0.  0.
         22    1    5    5    0    0  0.11558099301E+03  0.21091958039E+03  0.84117523261E+03  0.87488388218E+03  0.00000000000E+00 0. -1.
         22    1    5    5    0    0 -0.20978801636E+03 -0.11295760379E+03 -0.63665094546E+02  0.24662456553E+03  0.00000000000E+00 0. -1.
          5    1    4    4  502    0  0.12345784901E+03 -0.92797253281E+02  0.23293868823E+03  0.27952762506E+03  0.47000000000E+01 0. -1.
         -5    1    4    4    0  502 -0.29250825659E+02 -0.51647233225E+01  0.33629587432E+02  0.45114568817E+02  0.47000000000E+01 0. -1.
<mgrwt>
<rscale>  0 0.10006258E+04</rscale>
<asrwt>0</asrwt>
<pdfrwt beam="1">  1        1 0.19155608E+00 0.10006258E+04</pdfrwt>
<pdfrwt beam="2">  1       -1 0.30928634E-01 0.10006258E+04</pdfrwt>
<totfact> 0.10526828E+02</totfact>
</mgrwt>
</event>
<event>
 9    1  0.4307774E-036  0.9978239E+03  0.7818608E-02  0.8683113E-01
          2   -1    0    0  501    0  0.00000000000E+00  0.00000000000E+00  0.80286232241E+03  0.80286232241E+03  0.00000000000E+00 0. -1.
         -2   -1    0    0    0  501 -0.00000000000E+00 -0.00000000000E+00 -0.31003212843E+03  0.31003212843E+03  0.00000000000E+00 0. -1.
         36    2    1    2    0    0  0.17763568394E-14  0.28421709430E-13  0.49283019398E+03  0.11128944508E+04  0.99782386151E+03 0.  0.
         25    2    3    3    0    0 -0.15294551917E+02  0.59288661844E+02  0.22856175596E+03  0.26864351892E+03  0.12719982401E+03 0.  0.
         35    2    3    3    0    0  0.15294551917E+02 -0.59288661844E+02  0.26426843802E+03  0.84425093192E+03  0.79948280780E+03 0.  0.
         22    1    5    5    0    0  0.21817934998E+02  0.35924775022E+03  0.21936787335E+02  0.36057757967E+03  0.00000000000E+00 0.  1.
         22    1    5    5    0    0 -0.65233830808E+01 -0.41853641206E+03  0.24233165069E+03  0.48367335225E+03  0.00000000000E+00 0.  1.
          5    1    4    4  502    0 -0.21800680463E+02 -0.23123854531E+02  0.80804182855E+01  0.33126507162E+02  0.47000000000E+01 0.  1.
         -5    1    4    4    0  502  0.65061285461E+01  0.82412516375E+02  0.22048133768E+03  0.23551701176E+03  0.47000000000E+01 0.  1.
<mgrwt>
<rscale>  0 0.99782386E+03</rscale>
<asrwt>0</asrwt>
<pdfrwt beam="1">  1        2 0.12351728E+00 0.99782386E+03</pdfrwt>
<pdfrwt beam="2">  1       -2 0.47697251E-01 0.99782386E+03</pdfrwt>
<totfact> 0.17279540E+02</totfact>
</mgrwt>
</event>
<event>
 9    1  0.4307774E-036  0.9995280E+03  0.7818608E-02  0.8681488E-01
         -1   -1    0    0    0  501 -0.00000000000E+00  0.00000000000E+00  0.31507750920E+03  0.31507750920E+03  0.00000000000E+00 0. -1.
          1   -1    0    0  501    0  0.00000000000E+00 -0.00000000000E+00 -0.79270670699E+03  0.79270670699E+03  0.00000000000E+00 0. -1.
         36    2    1    2    0    0 -0.71054273576E-14  0.00000000000E+00 -0.47762919779E+03  0.11077842162E+04  0.99952799813E+03 0.  0.
         25    2    3    3    0    0 -0.70629210934E+00  0.13773762709E+03 -0.11373742815E+03  0.21799566345E+03  0.12495500772E+03 0.  0.
         35    2    3    3    0    0  0.70629210934E+00 -0.13773762709E+03 -0.36389176964E+03  0.88978855274E+03  0.80020890760E+03 0.  0.
         22    1    5    5    0    0  0.16540715595E+03  0.98147622820E+02 -0.52565327111E+03  0.55973551301E+03  0.00000000000E+00 0.  1.
         22    1    5    5    0    0 -0.16470086384E+03 -0.23588524991E+03  0.16176150146E+03  0.33005303972E+03  0.00000000000E+00 0.  1.
          5    1    4    4  502    0  0.53201613133E+02  0.97904494257E+02 -0.40616921414E+02  0.11869088398E+03  0.47000000000E+01 0.  1.
         -5    1    4    4    0  502 -0.53907905242E+02  0.39833132832E+02 -0.73120506740E+02  0.99304779465E+02  0.47000000000E+01 0.  1.
<mgrwt>
<rscale>  0 0.99952800E+03</rscale>
<asrwt>0</asrwt>
<pdfrwt beam="1">  1        1 0.12195488E+00 0.99952800E+03</pdfrwt>
<pdfrwt beam="2">  1       -1 0.48473463E-01 0.99952800E+03</pdfrwt>
<totfact> 0.10886558E+02</totfact>
</mgrwt>
</event>
<event>
 9    1  0.4307774E-036  0.1000303E+04  0.7818608E-02  0.8680750E-01
         -2   -1    0    0    0  501 -0.00000000000E+00  0.00000000000E+00  0.11223013881E+03  0.11223013881E+03  0.00000000000E+00 0. -1.
          2   -1    0    0  501    0  0.00000000000E+00 -0.00000000000E+00 -0.22289152785E+04  0.22289152785E+04  0.00000000000E+00 0. -1.
         36    2    1    2    0    0  0.00000000000E+00  0.14210854715E-13 -0.21166851397E+04  0.23411454173E+04  0.10003028963E+04 0.  0.
         25    2    3    3    0    0  0.10422375885E+03  0.89823010863E+02 -0.46669918588E+03  0.50253310449E+03  0.12570054021E+03 0.  0.
         35    2    3    3    0    0 -0.10422375885E+03 -0.89823010863E+02 -0.16499859538E+04  0.18386123128E+04  0.79944407179E+03 0.  0.
         22    1    5    5    0    0  0.27571525971E+03  0.95745794664E+02 -0.27848520008E+03  0.40341066954E+03  0.00000000000E+00 0.  1.
         22    1    5    5    0    0 -0.37993901856E+03 -0.18556880553E+03 -0.13715007537E+04  0.14352016433E+04  0.00000000000E+00 0.  1.
          5    1    4    4  502    0  0.37601583533E+02 -0.22584008716E+02 -0.54628961237E+02  0.70216308218E+02  0.47000000000E+01 0.  1.
         -5    1    4    4    0  502  0.66622175317E+02  0.11240701958E+03 -0.41207022465E+03  0.43231679627E+03  0.47000000000E+01 0.  1.
<mgrwt>
<rscale>  0 0.10003029E+04</rscale>
<asrwt>0</asrwt>
<pdfrwt beam="1">  1        2 0.34291003E+00 0.10003029E+04</pdfrwt>
<pdfrwt beam="2">  1       -2 0.17266176E-01 0.10003029E+04</pdfrwt>
<totfact> 0.15923387E+02</totfact>
</mgrwt>
</event>
<event>
 9    1  0.4307774E-036  0.9993543E+03  0.7818608E-02  0.8681653E-01
          2   -1    0    0  501    0  0.00000000000E+00  0.00000000000E+00  0.11530063469E+04  0.11530063469E+04  0.00000000000E+00 0.  1.
         -2   -1    0    0    0  501 -0.00000000000E+00 -0.00000000000E+00 -0.21654456058E+03  0.21654456058E+03  0.00000000000E+00 0.  1.
         36    2    1    2    0    0  0.28421709430E-13  0.00000000000E+00  0.93646178633E+03  0.13695509075E+04  0.99935429701E+03 0.  0.
         25    2    3    3    0    0  0.31889639514E+02  0.98559922081E+02  0.42788221193E+02  0.16613053898E+03  0.12262755302E+03 0.  0.
         35    2    3    3    0    0 -0.31889639514E+02 -0.98559922081E+02  0.89367356513E+03  0.12034203685E+04  0.79927287892E+03 0.  0.
         22    1    5    5    0    0 -0.36370021517E+03 -0.78947363878E+02  0.75794248493E+03  0.84438577868E+03  0.00000000000E+00 0.  1.
         22    1    5    5    0    0  0.33181057566E+03 -0.19612558203E+02  0.13573108020E+03  0.35903458982E+03  0.00000000000E+00 0.  1.
          5    1    4    4  502    0  0.60647771791E+02  0.89472162193E+02  0.66923654191E+02  0.12721747333E+03  0.47000000000E+01 0. -1.
         -5    1    4    4    0  502 -0.28758132277E+02  0.90877598879E+01 -0.24135432998E+02  0.38913065644E+02  0.47000000000E+01 0. -1.
<mgrwt>
<rscale>  0 0.99935430E+03</rscale>
<asrwt>0</asrwt>
<pdfrwt beam="1">  1        2 0.17738559E+00 0.99935430E+03</pdfrwt>
<pdfrwt beam="2">  1       -2 0.33314548E-01 0.99935430E+03</pdfrwt>
<totfact> 0.20513535E+02</totfact>
</mgrwt>
</event>
<event>
 9    1  0.4307774E-036  0.9970558E+03  0.7818608E-02  0.8683847E-01
          2   -1    0    0  501    0  0.00000000000E+00  0.00000000000E+00  0.33207068761E+03  0.33207068761E+03  0.00000000000E+00 0. -1.
         -2   -1    0    0    0  501 -0.00000000000E+00 -0.00000000000E+00 -0.74842526041E+03  0.74842526041E+03  0.00000000000E+00 0. -1.
         36    2    1    2    0    0  0.00000000000E+00  0.00000000000E+00 -0.41635457280E+03  0.10804959480E+04  0.99705584769E+03 0.  0.
         25    2    3    3    0    0  0.88220835152E+02  0.10161041231E+03 -0.37149954464E+02  0.18588235541E+03  0.12273768489E+03 0.  0.
         35    2    3    3    0    0 -0.88220835152E+02 -0.10161041231E+03 -0.37920461834E+03  0.89461359261E+03  0.79901798845E+03 0.  0.
         22    1    5    5    0    0 -0.14095006849E+03  0.37385583300E+02 -0.60607710887E+03  0.62337313508E+03  0.00000000000E+00 0.  1.
         22    1    5    5    0    0  0.52729233341E+02 -0.13899599561E+03  0.22687249053E+03  0.27124045753E+03  0.00000000000E+00 0.  1.
          5    1    4    4  502    0 -0.29683421642E+02  0.15781021174E+02  0.42539155573E+01  0.34210114692E+02  0.47000000000E+01 0.  1.
         -5    1    4    4    0  502  0.11790425679E+03  0.85829391133E+02 -0.41403870021E+02  0.15167224072E+03  0.47000000000E+01 0.  1.
<mgrwt>
<rscale>  0 0.99705585E+03</rscale>
<asrwt>0</asrwt>
<pdfrwt beam="1">  1        2 0.51087798E-01 0.99705585E+03</pdfrwt>
<pdfrwt beam="2">  1       -2 0.11514235E+00 0.99705585E+03</pdfrwt>
<totfact> 0.67562050E+01</totfact>
</mgrwt>
</event>
<event>
 9    1  0.4307774E-036  0.9998868E+03  0.7818608E-02  0.8681146E-01
         -2   -1    0    0    0  501 -0.00000000000E+00  0.00000000000E+00  0.51133770667E+03  0.51133770667E+03  0.00000000000E+00 0. -1.
          2   -1    0    0  501    0  0.00000000000E+00 -0.00000000000E+00 -0.48880294797E+03  0.48880294797E+03  0.00000000000E+00 0. -1.
         36    2    1    2    0    0  0.14210854715E-13  0.35527136788E-14  0.22534758696E+02  0.10001406546E+04  0.99988675044E+03 0.  0.
         25    2    3    3    0    0  0.12452973345E+02  0.78647336466E+01 -0.13657249110E+03  0.18559230467E+03  0.12480195370E+03 0.  0.
         35    2    3    3    0    0 -0.12452973345E+02 -0.78647336466E+01  0.15910724979E+03  0.81454834997E+03  0.79872208366E+03 0.  0.
         22    1    5    5    0    0  0.29936374057E+03  0.11035987946E+02 -0.18318431772E+03  0.35113663503E+03  0.00000000000E+00 0. -1.
         22    1    5    5    0    0 -0.31181671392E+03 -0.18900721593E+02  0.34229156752E+03  0.46341171494E+03  0.00000000000E+00 0. -1.
          5    1    4    4  502    0  0.13779769283E+02 -0.57627598441E+02 -0.73618151910E+02  0.94617886440E+02  0.47000000000E+01 0. -1.
         -5    1    4    4    0  502 -0.13267959388E+01  0.65492332088E+02 -0.62954339185E+02  0.90974418228E+02  0.47000000000E+01 0. -1.
<mgrwt>
<rscale>  0 0.99988675E+03</rscale>
<asrwt>0</asrwt>
<pdfrwt beam="1">  1        2 0.75200453E-01 0.99988675E+03</pdfrwt>
<pdfrwt beam="2">  1       -2 0.78667340E-01 0.99988675E+03</pdfrwt>
<totfact> 0.10943676E+02</totfact>
</mgrwt>
</event>
<event>
 9    1  0.4307774E-036  0.1000450E+04  0.7818608E-02  0.8680610E-01
          1   -1    0    0  501    0  0.00000000000E+00  0.00000000000E+00  0.14967675947E+04  0.14967675947E+04  0.00000000000E+00 0.  1.
         -1   -1    0    0    0  501 -0.00000000000E+00 -0.00000000000E+00 -0.16717678928E+03  0.16717678928E+03  0.00000000000E+00 0.  1.
         36    2    1    2    0    0  0.00000000000E+00  0.35527136788E-14  0.13295908054E+04  0.16639443840E+04  0.10004495005E+04 0.  0.
         25    2    3    3    0    0  0.10310056815E+03 -0.28907032447E+02  0.97634747177E+02  0.19215954619E+03  0.12620381791E+03 0.  0.
         35    2    3    3    0    0 -0.10310056815E+03  0.28907032447E+02  0.12319560582E+04  0.14717848378E+04  0.79810371233E+03 0.  0.
         22    1    5    5    0    0  0.25957711790E+03  0.35295400338E+02  0.10168803882E+04  0.10500817917E+04  0.00000000000E+00 0.  1.
         22    1    5    5    0    0 -0.36267768605E+03 -0.63883678910E+01  0.21507567001E+03  0.42170304603E+03  0.00000000000E+00 0.  1.
          5    1    4    4  502    0 -0.18062517763E+02 -0.24287969126E+02  0.56078466438E+02  0.63898704136E+02  0.47000000000E+01 0.  1.
         -5    1    4    4    0  502  0.12116308592E+03 -0.46190633203E+01  0.41556280739E+02  0.12826084205E+03  0.47000000000E+01 0.  1.
<mgrwt>
<rscale>  0 0.10004495E+04</rscale>
<asrwt>0</asrwt>
<pdfrwt beam="1">  1        1 0.23027193E+00 0.10004495E+04</pdfrwt>
<pdfrwt beam="2">  1       -1 0.25719507E-01 0.10004495E+04</pdfrwt>
<totfact> 0.94723686E+01</totfact>
</mgrwt>
</event>
<event>
 9    1  0.4307774E-036  0.1000569E+04  0.7818608E-02  0.8680496E-01
          2   -1    0    0  501    0  0.00000000000E+00  0.00000000000E+00  0.22852558352E+04  0.22852558352E+04  0.00000000000E+00 0.  1.
         -2   -1    0    0    0  501 -0.00000000000E+00 -0.00000000000E+00 -0.10952144529E+03  0.10952144529E+03  0.00000000000E+00 0.  1.
         36    2    1    2    0    0  0.28421709430E-13  0.00000000000E+00  0.21757343900E+04  0.23947772805E+04  0.10005688820E+04 0.  0.
         25    2    3    3    0    0 -0.10456744151E+03  0.66667834331E+02  0.24570751605E+03  0.30241130178E+03  0.12530547490E+03 0.  0.
         35    2    3    3    0    0  0.10456744151E+03 -0.66667834331E+02  0.19300268739E+04  0.20923659788E+04  0.79850654668E+03 0.  0.
         22    1    5    5    0    0 -0.15160539173E+03 -0.10454850086E+03  0.17871378461E+04  0.17966013094E+04  0.00000000000E+00 0. -1.
         22    1    5    5    0    0  0.25617283324E+03  0.37880666534E+02  0.14288902778E+03  0.29576466937E+03  0.00000000000E+00 0. -1.
          5    1    4    4  502    0 -0.75758781381E+02  0.99814917912E+02  0.14056861281E+03  0.18837206720E+03  0.47000000000E+01 0. -1.
         -5    1    4    4    0  502 -0.28808660129E+02 -0.33147083582E+02  0.10513890324E+03  0.11403923457E+03  0.47000000000E+01 0. -1.
<mgrwt>
<rscale>  0 0.10005689E+04</rscale>
<asrwt>0</asrwt>
<pdfrwt beam="1">  1        2 0.35157778E+00 0.10005689E+04</pdfrwt>
<pdfrwt beam="2">  1       -2 0.16849455E-01 0.10005689E+04</pdfrwt>
<totfact> 0.15383004E+02</totfact>
</mgrwt>
</event>
<event>
 9    1  0.4307774E-036  0.9998537E+03  0.7818608E-02  0.8681177E-01
          1   -1    0    0  501    0  0.00000000000E+00  0.00000000000E+00  0.14310753795E+04  0.14310753795E+04  0.00000000000E+00 0.  1.
         -1   -1    0    0    0  501 -0.00000000000E+00 -0.00000000000E+00 -0.17464269988E+03  0.17464269988E+03  0.00000000000E+00 0.  1.
         36    2    1    2    0    0  0.14210854715E-13  0.14210854715E-13  0.12564326796E+04  0.16057180794E+04  0.99985372533E+03 0.  0.
         25    2    3    3    0    0  0.12659979922E+03 -0.56989041902E+02  0.24849548852E+03  0.31071163123E+03  0.12456504288E+03 0.  0.
         35    2    3    3    0    0 -0.12659979922E+03  0.56989041902E+02  0.10079371911E+04  0.12950064482E+04  0.80114234659E+03 0.  0.
         22    1    5    5    0    0 -0.86346638252E+02  0.42879526439E+03  0.50145590243E+03  0.66541651827E+03  0.00000000000E+00 0. -1.
         22    1    5    5    0    0 -0.40253160967E+02 -0.37180622249E+03  0.50648128867E+03  0.62958992989E+03  0.00000000000E+00 0. -1.
          5    1    4    4  502    0 -0.22939381069E+02 -0.55013463767E+01  0.14009642740E+02  0.27835949876E+02  0.47000000000E+01 0. -1.
         -5    1    4    4    0  502  0.14953918029E+03 -0.51487695525E+02  0.23448584578E+03  0.28287568135E+03  0.47000000000E+01 0. -1.
<mgrwt>
<rscale>  0 0.99985373E+03</rscale>
<asrwt>0</asrwt>
<pdfrwt beam="1">  1        1 0.22016544E+00 0.99985373E+03</pdfrwt>
<pdfrwt beam="2">  1       -1 0.26868109E-01 0.99985373E+03</pdfrwt>
<totfact> 0.98035539E+01</totfact>
</mgrwt>
</event>
<event>
 9    1  0.4307774E-036  0.9994487E+03  0.7818608E-02  0.8681563E-01
         -1   -1    0    0    0  501 -0.00000000000E+00  0.00000000000E+00  0.26503833234E+03  0.26503833234E+03  0.00000000000E+00 0. -1.
          1   -1    0    0  501    0  0.00000000000E+00 -0.00000000000E+00 -0.94222009134E+03  0.94222009134E+03  0.00000000000E+00 0. -1.
         36    2    1    2    0    0  0.14210854715E-13  0.71054273576E-14 -0.67718175900E+03  0.12072584237E+04  0.99944873145E+03 0.  0.
         25    2    3    3    0    0  0.11874677045E+03  0.58520362035E+02 -0.62884482454E+02  0.18993575240E+03  0.12081267997E+03 0.  0.
         35    2    3    3    0    0 -0.11874677045E+03 -0.58520362035E+02 -0.61429727655E+03  0.10173226713E+04  0.80003677744E+03 0.  0.
         22    1    5    5    0    0 -0.18424789844E+03  0.32954164366E+03 -0.45877986511E+03  0.59415818400E+03  0.00000000000E+00 0.  1.
         22    1    5    5    0    0  0.65501127993E+02 -0.38806200569E+03 -0.15551741143E+03  0.42316448727E+03  0.00000000000E+00 0.  1.
          5    1    4    4  502    0  0.29067411176E+02  0.77766271565E+02 -0.50436213966E+02  0.97254352421E+02  0.47000000000E+01 0. -1.
         -5    1    4    4    0  502  0.89679359273E+02 -0.19245909530E+02 -0.12448268488E+02  0.92681399976E+02  0.47000000000E+01 0. -1.
<mgrwt>
<rscale>  0 0.99944873E+03</rscale>
<asrwt>0</asrwt>
<pdfrwt beam="1">  1        1 0.14495694E+00 0.99944873E+03</pdfrwt>
<pdfrwt beam="2">  1       -1 0.40775128E-01 0.99944873E+03</pdfrwt>
<totfact> 0.11118217E+02</totfact>
</mgrwt>
</event>
<event>
 9    1  0.4307774E-036  0.9997646E+03  0.7818608E-02  0.8681262E-01
         -2   -1    0    0    0  501 -0.00000000000E+00  0.00000000000E+00  0.67523310053E+03  0.67523310053E+03  0.00000000000E+00 0.  1.
          2   -1    0    0  501    0  0.00000000000E+00 -0.00000000000E+00 -0.37006822851E+03  0.37006822851E+03  0.00000000000E+00 0.  1.
         36    2    1    2    0    0  0.14210854715E-13 -0.49737991503E-13  0.30516487202E+03  0.10453013290E+04  0.99976460698E+03 0.  0.
         25    2    3    3    0    0  0.11178065718E+03 -0.61437168441E+02  0.64956718933E+01  0.17858485494E+03  0.12482353815E+03 0.  0.
         35    2    3    3    0    0 -0.11178065718E+03  0.61437168441E+02  0.29866920013E+03  0.86671647409E+03  0.80356998100E+03 0.  0.
         22    1    5    5    0    0  0.41921262938E+02  0.39818254682E+03  0.15536707468E+02  0.40068456691E+03  0.00000000000E+00 0. -1.
         22    1    5    5    0    0 -0.15370192012E+03 -0.33674537838E+03  0.28313249266E+03  0.46603190718E+03  0.00000000000E+00 0. -1.
          5    1    4    4  502    0 -0.20935564691E+02 -0.22899505049E+01  0.23866385844E+02  0.32175085322E+02  0.47000000000E+01 0. -1.
         -5    1    4    4    0  502  0.13271622187E+03 -0.59147217936E+02 -0.17370713951E+02  0.14640976962E+03  0.47000000000E+01 0. -1.
<mgrwt>
<rscale>  0 0.99976461E+03</rscale>
<asrwt>0</asrwt>
<pdfrwt beam="1">  1        2 0.56933574E-01 0.99976461E+03</pdfrwt>
<pdfrwt beam="2">  1       -2 0.10388202E+00 0.99976461E+03</pdfrwt>
<totfact> 0.77551124E+01</totfact>
</mgrwt>
</event>
<event>
 9    1  0.4307774E-036  0.9998572E+03  0.7818608E-02  0.8681174E-01
         -2   -1    0    0    0  501 -0.00000000000E+00  0.00000000000E+00  0.12047017067E+03  0.12047017067E+03  0.00000000000E+00 0.  1.
          2   -1    0    0  501    0  0.00000000000E+00 -0.00000000000E+00 -0.20746098670E+04  0.20746098670E+04  0.00000000000E+00 0.  1.
         36    2    1    2    0    0 -0.14210854715E-13  0.14210854715E-13 -0.19541396963E+04  0.21950800376E+04  0.99985719928E+03 0.  0.
         25    2    3    3    0    0 -0.80035572582E+02  0.10510486447E+03 -0.27058426141E+03  0.32635708674E+03  0.12585857194E+03 0.  0.
         35    2    3    3    0    0  0.80035572582E+02 -0.10510486447E+03 -0.16835554349E+04  0.18687229509E+04  0.80019612560E+03 0.  0.
         22    1    5    5    0    0  0.39916949131E+03  0.48059767340E+02 -0.12258830036E+04  0.12901299015E+04  0.00000000000E+00 0. -1.
         22    1    5    5    0    0 -0.31913391873E+03 -0.15316463181E+03 -0.45767243124E+03  0.57859304942E+03  0.00000000000E+00 0. -1.
          5    1    4    4  502    0 -0.52543765933E+02  0.17044817925E+02 -0.20680327039E+03  0.21410524469E+03  0.47000000000E+01 0. -1.
         -5    1    4    4    0  502 -0.27491806649E+02  0.88060046545E+02 -0.63780991016E+02  0.11225184206E+03  0.47000000000E+01 0. -1.
<mgrwt>
<rscale>  0 0.99985720E+03</rscale>
<asrwt>0</asrwt>
<pdfrwt beam="1">  1        2 0.31917074E+00 0.99985720E+03</pdfrwt>
<pdfrwt beam="2">  1       -2 0.18533873E-01 0.99985720E+03</pdfrwt>
<totfact> 0.17325416E+02</totfact>
</mgrwt>
</event>
<event>
 9    1  0.4307774E-036  0.9993203E+03  0.7818608E-02  0.8681685E-01
          4   -1    0    0  501    0  0.00000000000E+00  0.00000000000E+00  0.76647712717E+03  0.76647712717E+03  0.00000000000E+00 0.  1.
         -4   -1    0    0    0  501 -0.00000000000E+00 -0.00000000000E+00 -0.32572436725E+03  0.32572436725E+03  0.00000000000E+00 0.  1.
         36    2    1    2    0    0  0.28421709430E-13  0.10658141036E-13  0.44075275992E+03  0.10922014944E+04  0.99932032353E+03 0.  0.
         25    2    3    3    0    0 -0.81098226667E+02  0.89012069791E+01 -0.39161113039E+02  0.15565961690E+03  0.12664979157E+03 0.  0.
         35    2    3    3    0    0  0.81098226667E+02 -0.89012069791E+01  0.47991387296E+03  0.93654187751E+03  0.80008575104E+03 0.  0.
         22    1    5    5    0    0 -0.25619163628E+03  0.60087269587E+02 -0.83669424184E+02  0.27612534655E+03  0.00000000000E+00 0.  1.
         22    1    5    5    0    0  0.33728986295E+03 -0.68988476566E+02  0.56358329714E+03  0.66041653096E+03  0.00000000000E+00 0.  1.
          5    1    4    4  502    0 -0.38924493541E+02 -0.57628113276E+01 -0.83582467926E+02  0.92501054785E+02  0.47000000000E+01 0. -1.
         -5    1    4    4    0  502 -0.42173733126E+02  0.14664018307E+02  0.44421354887E+02  0.63158562117E+02  0.47000000000E+01 0. -1.
<mgrwt>
<rscale>  0 0.99932032E+03</rscale>
<asrwt>0</asrwt>
<pdfrwt beam="1">  1        4 0.11791956E+00 0.99932032E+03</pdfrwt>
<pdfrwt beam="2">  1       -4 0.50111441E-01 0.99932032E+03</pdfrwt>
<totfact> 0.45897402E+00</totfact>
</mgrwt>
</event>
<event>
 9    1  0.4307774E-036  0.1000218E+04  0.7818608E-02  0.8680831E-01
         -1   -1    0    0    0  501 -0.00000000000E+00  0.00000000000E+00  0.33732485654E+03  0.33732485654E+03  0.00000000000E+00 0.  1.
          1   -1    0    0  501    0  0.00000000000E+00 -0.00000000000E+00 -0.74144801414E+03  0.74144801414E+03  0.00000000000E+00 0.  1.
         36    2    1    2    0    0  0.00000000000E+00  0.00000000000E+00 -0.40412315759E+03  0.10787728707E+04  0.10002176663E+04 0.  0.
         25    2    3    3    0    0  0.93662176185E+02  0.10536582677E+03 -0.69014666581E+02  0.20074703912E+03  0.12514706873E+03 0.  0.
         35    2    3    3    0    0 -0.93662176185E+02 -0.10536582677E+03 -0.33510849101E+03  0.87802583157E+03  0.79922280964E+03 0.  0.
         22    1    5    5    0    0 -0.26778390766E+02 -0.32224006689E+03  0.13933506358E+03  0.35209374159E+03  0.00000000000E+00 0.  1.
         22    1    5    5    0    0 -0.66883785419E+02  0.21687424012E+03 -0.47444355459E+03  0.52593208998E+03  0.00000000000E+00 0.  1.
          5    1    4    4  502    0  0.12092811544E+03  0.10584584657E+03 -0.57037409940E+02  0.17059398721E+03  0.47000000000E+01 0.  1.
         -5    1    4    4    0  502 -0.27265939257E+02 -0.48001979167E+00 -0.11977256642E+02  0.30153051905E+02  0.47000000000E+01 0.  1.
<mgrwt>
<rscale>  0 0.10002177E+04</rscale>
<asrwt>0</asrwt>
<pdfrwt beam="1">  1        1 0.11406892E+00 0.10002177E+04</pdfrwt>
<pdfrwt beam="2">  1       -1 0.51896132E-01 0.10002177E+04</pdfrwt>
<totfact> 0.10675212E+02</totfact>
</mgrwt>
</event>
<event>
 9    1  0.4307774E-036  0.9985542E+03  0.7818608E-02  0.8682416E-01
          2   -1    0    0  501    0  0.00000000000E+00  0.00000000000E+00  0.27211556483E+03  0.27211556483E+03  0.00000000000E+00 0. -1.
         -2   -1    0    0    0  501 -0.00000000000E+00 -0.00000000000E+00 -0.91607270868E+03  0.91607270868E+03  0.00000000000E+00 0. -1.
         36    2    1    2    0    0  0.28421709430E-13  0.00000000000E+00 -0.64395714385E+03  0.11881882735E+04  0.99855423999E+03 0.  0.
         25    2    3    3    0    0  0.66800205196E+02 -0.68496579377E+02 -0.10703281344E+02  0.16369802241E+03  0.13239499050E+03 0.  0.
         35    2    3    3    0    0 -0.66800205196E+02  0.68496579377E+02 -0.63325386250E+03  0.10244902511E+04  0.79963477377E+03 0.  0.
         22    1    5    5    0    0 -0.31695404459E+03  0.97372810592E+02 -0.69073690458E+03  0.76619762592E+03  0.00000000000E+00 0. -1.
         22    1    5    5    0    0  0.25015383940E+03 -0.28876231215E+02  0.57483042074E+02  0.25829262518E+03  0.00000000000E+00 0. -1.
          5    1    4    4  502    0  0.96992435459E+02 -0.19391060489E+02  0.15453740206E+02  0.10022202278E+03  0.47000000000E+01 0.  1.
         -5    1    4    4    0  502 -0.30192230262E+02 -0.49105518888E+02 -0.26157021550E+02  0.63475999637E+02  0.47000000000E+01 0.  1.
<mgrwt>
<rscale>  0 0.99855424E+03</rscale>
<asrwt>0</asrwt>
<pdfrwt beam="1">  1        2 0.41863933E-01 0.99855424E+03</pdfrwt>
<pdfrwt beam="2">  1       -2 0.14093426E+00 0.99855424E+03</pdfrwt>
<totfact> 0.49344638E+01</totfact>
</mgrwt>
</event>
<event>
 9    1  0.4307774E-036  0.1000136E+04  0.7818608E-02  0.8680909E-01
          2   -1    0    0  501    0  0.00000000000E+00  0.00000000000E+00  0.85084844275E+03  0.85084844275E+03  0.00000000000E+00 0.  1.
         -2   -1    0    0    0  501 -0.00000000000E+00 -0.00000000000E+00 -0.29390416779E+03  0.29390416779E+03  0.00000000000E+00 0.  1.
         36    2    1    2    0    0  0.14210854715E-13 -0.14210854715E-13  0.55694427496E+03  0.11447526105E+04  0.10001357978E+04 0.  0.
         25    2    3    3    0    0 -0.28164382196E+02  0.12006554306E+03  0.26439660549E+02  0.17771831440E+03  0.12520294152E+03 0.  0.
         35    2    3    3    0    0  0.28164382196E+02 -0.12006554306E+03  0.53050461441E+03  0.96703429615E+03  0.79906896884E+03 0.  0.
         22    1    5    5    0    0  0.27121728499E+03  0.69911033310E+02 -0.72839008997E+02  0.28939918709E+03  0.00000000000E+00 0. -1.
         22    1    5    5    0    0 -0.24305290279E+03 -0.18997657637E+03  0.60334362341E+03  0.67763510906E+03  0.00000000000E+00 0. -1.
          5    1    4    4  502    0 -0.85456637675E+01  0.66092028864E+02  0.76374775594E+02  0.10147108453E+03  0.47000000000E+01 0.  1.
         -5    1    4    4    0  502 -0.19618718428E+02  0.53973514199E+02 -0.49935115045E+02  0.76247229867E+02  0.47000000000E+01 0.  1.
<mgrwt>
<rscale>  0 0.10001358E+04</rscale>
<asrwt>0</asrwt>
<pdfrwt beam="1">  1        2 0.13089976E+00 0.10001358E+04</pdfrwt>
<pdfrwt beam="2">  1       -2 0.45216026E-01 0.10001358E+04</pdfrwt>
<totfact> 0.17790889E+02</totfact>
</mgrwt>
</event>
<event>
 9    1  0.4307774E-036  0.9994803E+03  0.7818608E-02  0.8681533E-01
          1   -1    0    0  501    0  0.00000000000E+00  0.00000000000E+00  0.24691881343E+04  0.24691881343E+04  0.00000000000E+00 0. -1.
         -1   -1    0    0    0  501 -0.00000000000E+00 -0.00000000000E+00 -0.10114264669E+03  0.10114264669E+03  0.00000000000E+00 0. -1.
         36    2    1    2    0    0 -0.14210854715E-13  0.71054273576E-14  0.23680454876E+04  0.25703307810E+04  0.99948031112E+03 0.  0.
         25    2    3    3    0    0 -0.12599653945E+03 -0.31384786975E+02  0.31238931225E+03  0.36069298548E+03  0.12510881087E+03 0.  0.
         35    2    3    3    0    0  0.12599653945E+03  0.31384786975E+02  0.20556561753E+04  0.22096377955E+04  0.79994796283E+03 0.  0.
         22    1    5    5    0    0  0.26968508424E+03 -0.50416901539E+02  0.20224754823E+04  0.20409995064E+04  0.00000000000E+00 0. -1.
         22    1    5    5    0    0 -0.14368854479E+03  0.81801688515E+02  0.33180693003E+02  0.16863828906E+03  0.00000000000E+00 0. -1.
          5    1    4    4  502    0 -0.49902653670E+02  0.46761282688E+02  0.91846330850E+02  0.11460685360E+03  0.47000000000E+01 0. -1.
         -5    1    4    4    0  502 -0.76093885784E+02 -0.78146069663E+02  0.22054298140E+03  0.24608613188E+03  0.47000000000E+01 0. -1.
<mgrwt>
<rscale>  0 0.99948031E+03</rscale>
<asrwt>0</asrwt>
<pdfrwt beam="1">  1        1 0.37987505E+00 0.99948031E+03</pdfrwt>
<pdfrwt beam="2">  1       -1 0.15560409E-01 0.99948031E+03</pdfrwt>
<totfact> 0.44975527E+01</totfact>
</mgrwt>
</event>
<event>
 9    1  0.4307774E-036  0.9994564E+03  0.7818608E-02  0.8681556E-01
          2   -1    0    0  501    0  0.00000000000E+00  0.00000000000E+00  0.40977285033E+03  0.40977285033E+03  0.00000000000E+00 0. -1.
         -2   -1    0    0    0  501 -0.00000000000E+00 -0.00000000000E+00 -0.60943093951E+03  0.60943093951E+03  0.00000000000E+00 0. -1.
         36    2    1    2    0    0 -0.14210854715E-13  0.00000000000E+00 -0.19965808919E+03  0.10192037898E+04  0.99945635855E+03 0.  0.
         25    2    3    3    0    0 -0.10685984044E+03 -0.86817365119E+02 -0.33516978882E+02  0.19135586011E+03  0.12859781079E+03 0.  0.
         35    2    3    3    0    0  0.10685984044E+03  0.86817365119E+02 -0.16614111030E+03  0.82784792973E+03  0.79923278576E+03 0.  0.
         22    1    5    5    0    0  0.15336184345E+03 -0.34402537549E+03 -0.56779280678E+02  0.38091626471E+03  0.00000000000E+00 0.  1.
         22    1    5    5    0    0 -0.46502003013E+02  0.43084274061E+03 -0.10936182962E+03  0.44693166502E+03  0.00000000000E+00 0.  1.
          5    1    4    4  502    0  0.11256528249E+02 -0.61135709216E+02 -0.32676422663E+02  0.70385530954E+02  0.47000000000E+01 0.  1.
         -5    1    4    4    0  502 -0.11811636869E+03 -0.25681655903E+02 -0.84055621896E+00  0.12097032916E+03  0.47000000000E+01 0.  1.
<mgrwt>
<rscale>  0 0.99945636E+03</rscale>
<asrwt>0</asrwt>
<pdfrwt beam="1">  1        2 0.63041977E-01 0.99945636E+03</pdfrwt>
<pdfrwt beam="2">  1       -2 0.93758606E-01 0.99945636E+03</pdfrwt>
<totfact> 0.88698048E+01</totfact>
</mgrwt>
</event>
<event>
 9    1  0.4307774E-036  0.1000176E+04  0.7818608E-02  0.8680871E-01
         -2   -1    0    0    0  501 -0.00000000000E+00  0.00000000000E+00  0.12200830790E+03  0.12200830790E+03  0.00000000000E+00 0.  1.
          2   -1    0    0  501    0  0.00000000000E+00 -0.00000000000E+00 -0.20497615055E+04  0.20497615055E+04  0.00000000000E+00 0.  1.
         36    2    1    2    0    0  0.71054273576E-14 -0.14210854715E-13 -0.19277531976E+04  0.21717698135E+04  0.10001758503E+04 0.  0.
         25    2    3    3    0    0 -0.59187434389E+02  0.92994016290E+02 -0.16355283785E+03  0.23162827010E+03  0.12145404597E+03 0.  0.
         35    2    3    3    0    0  0.59187434389E+02 -0.92994016290E+02 -0.17642003598E+04  0.19401415434E+04  0.79974699706E+03 0.  0.
         22    1    5    5    0    0 -0.14665643905E+03  0.30916186595E+03 -0.93839197081E+03  0.99883365049E+03  0.00000000000E+00 0.  1.
         22    1    5    5    0    0  0.20584387344E+03 -0.40215588224E+03 -0.82580838898E+03  0.94130789286E+03  0.00000000000E+00 0.  1.
          5    1    4    4  502    0 -0.83276418559E+02  0.22067119421E+02 -0.66454049162E+02  0.10890431717E+03  0.47000000000E+01 0.  1.
         -5    1    4    4    0  502  0.24088984170E+02  0.70926896870E+02 -0.97098788691E+02  0.12272395293E+03  0.47000000000E+01 0.  1.
<mgrwt>
<rscale>  0 0.10001759E+04</rscale>
<asrwt>0</asrwt>
<pdfrwt beam="1">  1        2 0.31534791E+00 0.10001759E+04</pdfrwt>
<pdfrwt beam="2">  1       -2 0.18770510E-01 0.10001759E+04</pdfrwt>
<totfact> 0.17516539E+02</totfact>
</mgrwt>
</event>
<event>
 9    1  0.4307774E-036  0.1000099E+04  0.7818608E-02  0.8680944E-01
         -2   -1    0    0    0  501 -0.00000000000E+00  0.00000000000E+00  0.12413366710E+03  0.12413366710E+03  0.00000000000E+00 0.  1.
          2   -1    0    0  501    0  0.00000000000E+00 -0.00000000000E+00 -0.20143569405E+04  0.20143569405E+04  0.00000000000E+00 0.  1.
         36    2    1    2    0    0 -0.14210854715E-13  0.00000000000E+00 -0.18902232734E+04  0.21384906076E+04  0.10000990228E+04 0.  0.
         25    2    3    3    0    0 -0.97162471416E+02  0.10147352121E+03 -0.35634915326E+03  0.40333589835E+03  0.12632381611E+03 0.  0.
         35    2    3    3    0    0  0.97162471416E+02 -0.10147352121E+03 -0.15338741201E+04  0.17351547092E+04  0.79890839725E+03 0.  0.
         22    1    5    5    0    0  0.40779474271E+03 -0.23106208379E+03 -0.99384151145E+03  0.10988208173E+04  0.00000000000E+00 0. -1.
         22    1    5    5    0    0 -0.31063227130E+03  0.12958856258E+03 -0.54003260869E+03  0.63633389189E+03  0.00000000000E+00 0. -1.
          5    1    4    4  502    0 -0.88097301870E+02  0.43999591562E+02 -0.10000204581E+03  0.14042648547E+03  0.47000000000E+01 0. -1.
         -5    1    4    4    0  502 -0.90651695459E+01  0.57473929645E+02 -0.25634710745E+03  0.26290941289E+03  0.47000000000E+01 0. -1.
<mgrwt>
<rscale>  0 0.10000990E+04</rscale>
<asrwt>0</asrwt>
<pdfrwt beam="1">  1        2 0.30990107E+00 0.10000990E+04</pdfrwt>
<pdfrwt beam="2">  1       -2 0.19097487E-01 0.10000990E+04</pdfrwt>
<totfact> 0.17814713E+02</totfact>
</mgrwt>
</event>
<event>
 9    1  0.4307774E-036  0.1000013E+04  0.7818608E-02  0.8681026E-01
          2   -1    0    0  501    0  0.00000000000E+00  0.00000000000E+00  0.18512423256E+04  0.18512423256E+04  0.00000000000E+00 0. -1.
         -2   -1    0    0    0  501 -0.00000000000E+00 -0.00000000000E+00 -0.13504792059E+03  0.13504792059E+03  0.00000000000E+00 0. -1.
         36    2    1    2    0    0  0.71054273576E-14  0.00000000000E+00  0.17161944051E+04  0.19862902462E+04  0.10000128531E+04 0.  0.
         25    2    3    3    0    0  0.41924587549E+02  0.13085622383E+03  0.33183718586E+03  0.38073332749E+03  0.12633655996E+03 0.  0.
         35    2    3    3    0    0 -0.41924587549E+02 -0.13085622383E+03  0.13843572192E+04  0.16055569187E+04  0.80155292192E+03 0.  0.
         22    1    5    5    0    0 -0.97226167645E+02  0.12439317646E+03 -0.35546403323E+02  0.16183367021E+03  0.00000000000E+00 0.  1.
         22    1    5    5    0    0  0.55301580096E+02 -0.25524940029E+03  0.14199036225E+04  0.14437232485E+04  0.00000000000E+00 0.  1.
          5    1    4    4  502    0 -0.41525714473E+01  0.23211560897E+02 -0.45924194144E+01  0.24478576858E+02  0.47000000000E+01 0. -1.
         -5    1    4    4    0  502  0.46077158996E+02  0.10764466293E+03  0.33642960528E+03  0.35625475063E+03  0.47000000000E+01 0. -1.
<mgrwt>
<rscale>  0 0.10000129E+04</rscale>
<asrwt>0</asrwt>
<pdfrwt beam="1">  1        2 0.28480649E+00 0.10000129E+04</pdfrwt>
<pdfrwt beam="2">  1       -2 0.20776604E-01 0.10000129E+04</pdfrwt>
<totfact> 0.19057171E+02</totfact>
</mgrwt>
</event>
<event>
 9    1  0.4307774E-036  0.1000102E+04  0.7818608E-02  0.8680940E-01
         -2   -1    0    0    0  501 -0.00000000000E+00  0.00000000000E+00  0.16599018576E+03  0.16599018576E+03  0.00000000000E+00 0.  1.
          2   -1    0    0  501    0  0.00000000000E+00 -0.00000000000E+00 -0.15064218340E+04  0.15064218340E+04  0.00000000000E+00 0.  1.
         36    2    1    2    0    0 -0.14210854715E-13  0.00000000000E+00 -0.13404316482E+04  0.16724120198E+04  0.10001024749E+04 0.  0.
         25    2    3    3    0    0  0.78547283041E+02 -0.76056906086E+02 -0.39523900786E+03  0.42874345066E+03  0.12511092881E+03 0.  0.
         35    2    3    3    0    0 -0.78547283041E+02  0.76056906086E+02 -0.94519264037E+03  0.12436685691E+04  0.80085457713E+03 0.  0.
         22    1    5    5    0    0 -0.42512825480E+02  0.44189109205E+00  0.14456987817E+03  0.15069168946E+03  0.00000000000E+00 0.  1.
         22    1    5    5    0    0 -0.36034457561E+02  0.75615014994E+02 -0.10897625185E+04  0.10929768796E+04  0.00000000000E+00 0.  1.
          5    1    4    4  502    0  0.64171951541E+02 -0.51123814320E+02 -0.39067705616E+03  0.39922717338E+03  0.47000000000E+01 0. -1.
         -5    1    4    4    0  502  0.14375331500E+02 -0.24933091766E+02 -0.45619516988E+01  0.29516277273E+02  0.47000000000E+01 0. -1.
<mgrwt>
<rscale>  0 0.10001025E+04</rscale>
<asrwt>0</asrwt>
<pdfrwt beam="1">  1        2 0.23175721E+00 0.10001025E+04</pdfrwt>
<pdfrwt beam="2">  1       -2 0.25536951E-01 0.10001025E+04</pdfrwt>
<totfact> 0.20754422E+02</totfact>
</mgrwt>
</event>
<event>
 9    1  0.4307774E-036  0.9999425E+03  0.7818608E-02  0.8681093E-01
         -2   -1    0    0    0  501 -0.00000000000E+00  0.00000000000E+00  0.17285759707E+03  0.17285759707E+03  0.00000000000E+00 0. -1.
          2   -1    0    0  501    0  0.00000000000E+00 -0.00000000000E+00 -0.14461108165E+04  0.14461108165E+04  0.00000000000E+00 0. -1.
         36    2    1    2    0    0  0.00000000000E+00 -0.35527136788E-14 -0.12732532194E+04  0.16189684135E+04  0.99994248002E+03 0.  0.
         25    2    3    3    0    0 -0.86458197061E+02 -0.10575808090E+02 -0.65718839974E+02  0.16702784039E+03  0.12646132208E+03 0.  0.
         35    2    3    3    0    0  0.86458197061E+02  0.10575808090E+02 -0.12075343794E+04  0.14519405732E+04  0.80150189202E+03 0.  0.
         22    1    5    5    0    0  0.61153678421E+02  0.18543763318E+03  0.33740004568E+02  0.19815467719E+03  0.00000000000E+00 0. -1.
         22    1    5    5    0    0  0.25304518640E+02 -0.17486182509E+03 -0.12412743840E+04  0.12537858960E+04  0.00000000000E+00 0. -1.
          5    1    4    4  502    0  0.31831844748E+02 -0.13446241932E+02 -0.10905168576E+02  0.36538752905E+02  0.47000000000E+01 0. -1.
         -5    1    4    4    0  502 -0.11829004181E+03  0.28704338414E+01 -0.54813671398E+02  0.13048908749E+03  0.47000000000E+01 0. -1.
<mgrwt>
<rscale>  0 0.99994248E+03</rscale>
<asrwt>0</asrwt>
<pdfrwt beam="1">  1        2 0.22247859E+00 0.99994248E+03</pdfrwt>
<pdfrwt beam="2">  1       -2 0.26593476E-01 0.99994248E+03</pdfrwt>
<totfact> 0.20888050E+02</totfact>
</mgrwt>
</event>
<event>
 9    1  0.4307774E-036  0.9994900E+03  0.7818608E-02  0.8681524E-01
         -1   -1    0    0    0  501 -0.00000000000E+00  0.00000000000E+00  0.55618408820E+03  0.55618408820E+03  0.00000000000E+00 0. -1.
          1   -1    0    0  501    0  0.00000000000E+00 -0.00000000000E+00 -0.44903306083E+03  0.44903306083E+03  0.00000000000E+00 0. -1.
         36    2    1    2    0    0 -0.14210854715E-13  0.14210854715E-13  0.10715102737E+03  0.10052171490E+04  0.99948995695E+03 0.  0.
         25    2    3    3    0    0 -0.59198358537E+02 -0.10770251047E+03 -0.46720250978E+02  0.18162232070E+03  0.12529808104E+03 0.  0.
         35    2    3    3    0    0  0.59198358537E+02  0.10770251047E+03  0.15387127835E+03  0.82359482833E+03  0.79970481713E+03 0.  0.
         22    1    5    5    0    0 -0.24704224134E+03 -0.12537130526E+03  0.30328010195E+03  0.41076350060E+03  0.00000000000E+00 0. -1.
         22    1    5    5    0    0  0.30624059987E+03  0.23307381573E+03 -0.14940882360E+03  0.41283132773E+03  0.00000000000E+00 0. -1.
          5    1    4    4  502    0  0.36233836980E+02 -0.55936027033E+02 -0.19380699546E+02  0.69566023154E+02  0.47000000000E+01 0. -1.
         -5    1    4    4    0  502 -0.95432195517E+02 -0.51766483432E+02 -0.27339551432E+02  0.11205629755E+03  0.47000000000E+01 0. -1.
<mgrwt>
<rscale>  0 0.99948996E+03</rscale>
<asrwt>0</asrwt>
<pdfrwt beam="1">  1        1 0.69082009E-01 0.99948996E+03</pdfrwt>
<pdfrwt beam="2">  1       -1 0.85566783E-01 0.99948996E+03</pdfrwt>
<totfact> 0.82232379E+01</totfact>
</mgrwt>
</event>
<event>
 9    1  0.4307774E-036  0.9998827E+03  0.7818608E-02  0.8681150E-01
         -1   -1    0    0    0  501 -0.00000000000E+00  0.00000000000E+00  0.27787173480E+03  0.27787173480E+03  0.00000000000E+00 0. -1.
          1   -1    0    0  501    0  0.00000000000E+00 -0.00000000000E+00 -0.89948458829E+03  0.89948458829E+03  0.00000000000E+00 0. -1.
         36    2    1    2    0    0  0.00000000000E+00  0.35527136788E-14 -0.62161285349E+03  0.11773563231E+04  0.99988267907E+03 0.  0.
         25    2    3    3    0    0  0.13278324661E+03  0.23756053760E+02 -0.66428578643E+02  0.19545614097E+03  0.12487836606E+03 0.  0.
         35    2    3    3    0    0 -0.13278324661E+03 -0.23756053760E+02 -0.55518427485E+03  0.98190018212E+03  0.79856286411E+03 0.  0.
         22    1    5    5    0    0 -0.37760460652E+03 -0.68227904913E+02 -0.61600905853E+03  0.72574613058E+03  0.00000000000E+00 0. -1.
         22    1    5    5    0    0  0.24482135990E+03  0.44471851153E+02  0.60824783681E+02  0.25615405154E+03  0.00000000000E+00 0. -1.
          5    1    4    4  502    0  0.79157615920E+02  0.25854505487E+02  0.26950361135E+02  0.87651557759E+02  0.47000000000E+01 0. -1.
         -5    1    4    4    0  502  0.53625630693E+02 -0.20984517277E+01 -0.93378939778E+02  0.10780458321E+03  0.47000000000E+01 0. -1.
<mgrwt>
<rscale>  0 0.99988268E+03</rscale>
<asrwt>0</asrwt>
<pdfrwt beam="1">  1        1 0.13838225E+00 0.99988268E+03</pdfrwt>
<pdfrwt beam="2">  1       -1 0.42749497E-01 0.99988268E+03</pdfrwt>
<totfact> 0.11076881E+02</totfact>
</mgrwt>
</event>
<event>
 9    1  0.4307774E-036  0.9996891E+03  0.7818608E-02  0.8681334E-01
         -2   -1    0    0    0  501 -0.00000000000E+00  0.00000000000E+00  0.11072152148E+03  0.11072152148E+03  0.00000000000E+00 0.  1.
          2   -1    0    0  501    0  0.00000000000E+00 -0.00000000000E+00 -0.22565133380E+04  0.22565133380E+04  0.00000000000E+00 0.  1.
         36    2    1    2    0    0  0.71054273576E-14  0.14210854715E-13 -0.21457918165E+04  0.23672348595E+04  0.99968913174E+03 0.  0.
         25    2    3    3    0    0  0.61287305715E+02 -0.10302845677E+03 -0.59948713699E+03  0.62247956138E+03  0.11715366053E+03 0.  0.
         35    2    3    3    0    0 -0.61287305715E+02  0.10302845677E+03 -0.15463046795E+04  0.17447552981E+04  0.79921329542E+03 0.  0.
         22    1    5    5    0    0  0.29651108076E+02 -0.19473778049E+03 -0.13757047278E+04  0.13897357625E+04  0.00000000000E+00 0.  1.
         22    1    5    5    0    0 -0.90938413790E+02  0.29776623726E+03 -0.17059995171E+03  0.35501953563E+03  0.00000000000E+00 0.  1.
          5    1    4    4  502    0  0.44793814447E+02 -0.63015761930E+02 -0.13258563165E+03  0.15355296085E+03  0.47000000000E+01 0.  1.
         -5    1    4    4    0  502  0.16493491267E+02 -0.40012694842E+02 -0.46690150534E+03  0.46892660054E+03  0.47000000000E+01 0.  1.
<mgrwt>
<rscale>  0 0.99968913E+03</rscale>
<asrwt>0</asrwt>
<pdfrwt beam="1">  1        2 0.34715590E+00 0.99968913E+03</pdfrwt>
<pdfrwt beam="2">  1       -2 0.17034080E-01 0.99968913E+03</pdfrwt>
<totfact> 0.15699596E+02</totfact>
</mgrwt>
</event>
<event>
 9    1  0.4307774E-036  0.1000720E+04  0.7818608E-02  0.8680352E-01
         -2   -1    0    0    0  501 -0.00000000000E+00  0.00000000000E+00  0.97733365485E+02  0.97733365485E+02  0.00000000000E+00 0.  1.
          2   -1    0    0  501    0  0.00000000000E+00 -0.00000000000E+00 -0.25616668237E+04  0.25616668237E+04  0.00000000000E+00 0.  1.
         36    2    1    2    0    0  0.00000000000E+00  0.22204460493E-14 -0.24639334582E+04  0.26594001892E+04  0.10007203804E+04 0.  0.
         25    2    3    3    0    0 -0.37652102290E+02 -0.93400908905E+00 -0.10327289627E+03  0.16651533221E+03  0.12507402439E+03 0.  0.
         35    2    3    3    0    0  0.37652102290E+02  0.93400908905E+00 -0.23606605620E+04  0.24928848570E+04  0.80021126474E+03 0.  0.
         22    1    5    5    0    0  0.34162842701E+03  0.43468065336E+02 -0.19500895889E+04  0.19802648458E+04  0.00000000000E+00 0. -1.
         22    1    5    5    0    0 -0.30397632472E+03 -0.42534056247E+02 -0.41057097305E+03  0.51262001116E+03  0.00000000000E+00 0. -1.
          5    1    4    4  502    0 -0.46073491927E+02 -0.21938647039E+01 -0.13002817002E+03  0.13804707422E+03  0.47000000000E+01 0. -1.
         -5    1    4    4    0  502  0.84213896367E+01  0.12598556149E+01  0.26755273754E+02  0.28468257994E+02  0.47000000000E+01 0. -1.
<mgrwt>
<rscale>  0 0.10007204E+04</rscale>
<asrwt>0</asrwt>
<pdfrwt beam="1">  1        2 0.39410252E+00 0.10007204E+04</pdfrwt>
<pdfrwt beam="2">  1       -2 0.15035905E-01 0.10007204E+04</pdfrwt>
<totfact> 0.12715937E+02</totfact>
</mgrwt>
</event>
<event>
 9    1  0.4307774E-036  0.9924026E+03  0.7818608E-02  0.8688307E-01
         -1   -1    0    0    0  501 -0.00000000000E+00  0.00000000000E+00  0.17606775593E+03  0.17606775593E+03  0.00000000000E+00 0. -1.
          1   -1    0    0  501    0  0.00000000000E+00 -0.00000000000E+00 -0.13984145396E+04  0.13984145396E+04  0.00000000000E+00 0. -1.
         36    2    1    2    0    0  0.00000000000E+00  0.00000000000E+00 -0.12223467837E+04  0.15744822956E+04  0.99240255916E+03 0.  0.
         25    2    3    3    0    0  0.71207701589E+02 -0.43054638176E+02 -0.69845964037E+02  0.16627968828E+03  0.12588183908E+03 0.  0.
         35    2    3    3    0    0 -0.71207701589E+02  0.43054638176E+02 -0.11525008196E+04  0.14082026073E+04  0.80489266688E+03 0.  0.
         22    1    5    5    0    0 -0.14755879326E+03  0.32672254087E+03 -0.19804999356E+03  0.40956686405E+03  0.00000000000E+00 0.  1.
         22    1    5    5    0    0  0.76351091670E+02 -0.28366790269E+03 -0.95445082609E+03  0.99863574322E+03  0.00000000000E+00 0.  1.
          5    1    4    4  502    0  0.62863734818E+01  0.38146474824E+02  0.32858022234E+01  0.39083993262E+02  0.47000000000E+01 0.  1.
         -5    1    4    4    0  502  0.64921328108E+02 -0.81201113000E+02 -0.73131766260E+02  0.12719569502E+03  0.47000000000E+01 0.  1.
<mgrwt>
<rscale>  0 0.99240256E+03</rscale>
<asrwt>0</asrwt>
<pdfrwt beam="1">  1        1 0.21514071E+00 0.99240256E+03</pdfrwt>
<pdfrwt beam="2">  1       -1 0.27087346E-01 0.99240256E+03</pdfrwt>
<totfact> 0.10212924E+02</totfact>
</mgrwt>
</event>
<event>
 9    1  0.4307774E-036  0.1000256E+04  0.7818608E-02  0.8680794E-01
         -1   -1    0    0    0  501 -0.00000000000E+00  0.00000000000E+00  0.24703663323E+03  0.24703663323E+03  0.00000000000E+00 0.  1.
          1   -1    0    0  501    0  0.00000000000E+00 -0.00000000000E+00 -0.10125143800E+04  0.10125143800E+04  0.00000000000E+00 0.  1.
         36    2    1    2    0    0  0.00000000000E+00  0.17763568394E-14 -0.76547774681E+03  0.12595510133E+04  0.10002562543E+04 0.  0.
         25    2    3    3    0    0  0.48977099879E+02  0.45168167862E+01  0.20920649123E+02  0.13699836046E+03  0.12614166347E+03 0.  0.
         35    2    3    3    0    0 -0.48977099879E+02 -0.45168167862E+01 -0.78639839593E+03  0.11225526528E+04  0.79955166393E+03 0.  0.
         22    1    5    5    0    0 -0.81478259216E+01 -0.23818156942E+02 -0.95127232360E+03  0.95160534115E+03  0.00000000000E+00 0.  1.
         22    1    5    5    0    0 -0.40829273958E+02  0.19301340155E+02  0.16487392766E+03  0.17094731167E+03  0.00000000000E+00 0.  1.
          5    1    4    4  502    0  0.19544028082E+02  0.15629493048E+02  0.72253269396E+02  0.76608583233E+02  0.47000000000E+01 0. -1.
         -5    1    4    4    0  502  0.29433071797E+02 -0.11112676262E+02 -0.51332620273E+02  0.60389777224E+02  0.47000000000E+01 0. -1.
<mgrwt>
<rscale>  0 0.10002563E+04</rscale>
<asrwt>0</asrwt>
<pdfrwt beam="1">  1        1 0.15577144E+00 0.10002563E+04</pdfrwt>
<pdfrwt beam="2">  1       -1 0.38005636E-01 0.10002563E+04</pdfrwt>
<totfact> 0.11062570E+02</totfact>
</mgrwt>
</event>
<event>
 9    1  0.4307774E-036  0.1000991E+04  0.7818608E-02  0.8680094E-01
          2   -1    0    0  501    0  0.00000000000E+00  0.00000000000E+00  0.78557198625E+03  0.78557198625E+03  0.00000000000E+00 0. -1.
         -2   -1    0    0    0  501 -0.00000000000E+00 -0.00000000000E+00 -0.31887071711E+03  0.31887071711E+03  0.00000000000E+00 0. -1.
         36    2    1    2    0    0  0.14210854715E-13 -0.42632564146E-13  0.46670126914E+03  0.11044427034E+04  0.10009913138E+04 0.  0.
         25    2    3    3    0    0  0.11289545141E+03 -0.21794271671E+02  0.17667597689E+03  0.24555030168E+03  0.12593719316E+03 0.  0.
         35    2    3    3    0    0 -0.11289545141E+03  0.21794271671E+02  0.29002529225E+03  0.85889240168E+03  0.80022566460E+03 0.  0.
         22    1    5    5    0    0  0.93411208055E+02 -0.34696742171E+03  0.24290975192E+03  0.43372478958E+03  0.00000000000E+00 0.  1.
         22    1    5    5    0    0 -0.20630665946E+03  0.36876169338E+03  0.47115540335E+02  0.42516761210E+03  0.00000000000E+00 0.  1.
          5    1    4    4  502    0 -0.20138881606E+01  0.38165348730E+02  0.24665155196E+02  0.45728650428E+02  0.47000000000E+01 0.  1.
         -5    1    4    4    0  502  0.11490933957E+03 -0.59959620400E+02  0.15201082169E+03  0.19982165125E+03  0.47000000000E+01 0.  1.
<mgrwt>
<rscale>  0 0.10009913E+04</rscale>
<asrwt>0</asrwt>
<pdfrwt beam="1">  1        2 0.12085723E+00 0.10009913E+04</pdfrwt>
<pdfrwt beam="2">  1       -2 0.49057034E-01 0.10009913E+04</pdfrwt>
<totfact> 0.16804351E+02</totfact>
</mgrwt>
</event>
<event>
 9    1  0.4307774E-036  0.1000260E+04  0.7818608E-02  0.8680790E-01
         -1   -1    0    0    0  501 -0.00000000000E+00  0.00000000000E+00  0.54202115147E+02  0.54202115147E+02  0.00000000000E+00 0.  1.
          1   -1    0    0  501    0  0.00000000000E+00 -0.00000000000E+00 -0.46147693589E+04  0.46147693589E+04  0.00000000000E+00 0.  1.
         36    2    1    2    0    0  0.00000000000E+00  0.00000000000E+00 -0.45605672437E+04  0.46689714740E+04  0.10002604864E+04 0.  0.
         25    2    3    3    0    0 -0.86187169029E+01 -0.14154313571E+03 -0.72359907203E+03  0.74691576756E+03  0.11907478842E+03 0.  0.
         35    2    3    3    0    0  0.86187169029E+01  0.14154313571E+03 -0.38369681717E+04  0.39220557065E+04  0.80005466840E+03 0.  0.
         22    1    5    5    0    0 -0.27547340307E+03 -0.26231195551E+02 -0.52291557129E+03  0.59162011977E+03  0.00000000000E+00 0. -1.
         22    1    5    5    0    0  0.28409211997E+03  0.16777433127E+03 -0.33140526004E+04  0.33304355867E+04  0.00000000000E+00 0. -1.
          5    1    4    4  502    0 -0.46141537516E+02 -0.55123380172E+02 -0.15990682050E+03  0.17538503291E+03  0.47000000000E+01 0. -1.
         -5    1    4    4    0  502  0.37522820613E+02 -0.86419755542E+02 -0.56369225153E+03  0.57153073465E+03  0.47000000000E+01 0. -1.
<mgrwt>
<rscale>  0 0.10002605E+04</rscale>
<asrwt>0</asrwt>
<pdfrwt beam="1">  1        1 0.70996442E+00 0.10002605E+04</pdfrwt>
<pdfrwt beam="2">  1       -1 0.83387881E-02 0.10002605E+04</pdfrwt>
<totfact> 0.28802365E+00</totfact>
</mgrwt>
</event>
<event>
 9    1  0.4307774E-036  0.9996432E+03  0.7818608E-02  0.8681378E-01
         -2   -1    0    0    0  501 -0.00000000000E+00  0.00000000000E+00  0.24433986832E+03  0.24433986832E+03  0.00000000000E+00 0. -1.
          2   -1    0    0  501    0  0.00000000000E+00 -0.00000000000E+00 -0.10224349157E+04  0.10224349157E+04  0.00000000000E+00 0. -1.
         36    2    1    2    0    0  0.00000000000E+00 -0.17763568394E-13 -0.77809504737E+03  0.12667747840E+04  0.99964316166E+03 0.  0.
         25    2    3    3    0    0  0.57349808969E+02 -0.18479008492E+02  0.11163173017E+02  0.14095091124E+03  0.12693332346E+03 0.  0.
         35    2    3    3    0    0 -0.57349808969E+02  0.18479008492E+02 -0.78925822039E+03  0.11258238728E+04  0.80057503064E+03 0.  0.
         22    1    5    5    0    0  0.11881114682E+03 -0.33649454490E+03 -0.18169546245E+03  0.40044713563E+03  0.00000000000E+00 0. -1.
         22    1    5    5    0    0 -0.17616095579E+03  0.35497355339E+03 -0.60756275794E+03  0.72537673714E+03  0.00000000000E+00 0. -1.
          5    1    4    4  502    0  0.22670126474E+02 -0.23847508354E+02 -0.55946022954E+02  0.65074463297E+02  0.47000000000E+01 0.  1.
         -5    1    4    4    0  502  0.34679682496E+02  0.53684998620E+01  0.67109195971E+02  0.75876447944E+02  0.47000000000E+01 0.  1.
<mgrwt>
<rscale>  0 0.99964316E+03</rscale>
<asrwt>0</asrwt>
<pdfrwt beam="1">  1        2 0.15729768E+00 0.99964316E+03</pdfrwt>
<pdfrwt beam="2">  1       -2 0.37590749E-01 0.99964316E+03</pdfrwt>
<totfact> 0.19656515E+02</totfact>
</mgrwt>
</event>
<event>
 9    1  0.4307774E-036  0.1000325E+04  0.7818608E-02  0.8680728E-01
          2   -1    0    0  501    0  0.00000000000E+00  0.00000000000E+00  0.27994103696E+03  0.27994103696E+03  0.00000000000E+00 0.  1.
         -2   -1    0    0    0  501 -0.00000000000E+00 -0.00000000000E+00 -0.89362622851E+03  0.89362622851E+03  0.00000000000E+00 0.  1.
         36    2    1    2    0    0 -0.14210854715E-13  0.71054273576E-14 -0.61368519155E+03  0.11735672655E+04  0.10003252532E+04 0.  0.
         25    2    3    3    0    0 -0.11974205651E+03  0.17376439255E+02 -0.19672542236E+03  0.26321197325E+03  0.12625193194E+03 0.  0.
         35    2    3    3    0    0  0.11974205651E+03 -0.17376439255E+02 -0.41695976919E+03  0.91035529222E+03  0.80015698973E+03 0.  0.
         22    1    5    5    0    0  0.12415526317E+03 -0.40144464866E+03 -0.26796849594E+03  0.49837681539E+03  0.00000000000E+00 0.  1.
         22    1    5    5    0    0 -0.44132066602E+01  0.38406820940E+03 -0.14899127325E+03  0.41197847683E+03  0.00000000000E+00 0.  1.
          5    1    4    4  502    0  0.21275169493E+02 -0.18530827895E+02 -0.41396064721E+02  0.50316484315E+02  0.47000000000E+01 0.  1.
         -5    1    4    4    0  502 -0.14101722600E+03  0.35907267150E+02 -0.15532935764E+03  0.21289548893E+03  0.47000000000E+01 0.  1.
<mgrwt>
<rscale>  0 0.10003253E+04</rscale>
<asrwt>0</asrwt>
<pdfrwt beam="1">  1        2 0.43067852E-01 0.10003253E+04</pdfrwt>
<pdfrwt beam="2">  1       -2 0.13748096E+00 0.10003253E+04</pdfrwt>
<totfact> 0.51151505E+01</totfact>
</mgrwt>
</event>
<event>
 9    1  0.4307774E-036  0.1000141E+04  0.7818608E-02  0.8680903E-01
          2   -1    0    0  501    0  0.00000000000E+00  0.00000000000E+00  0.22163405906E+04  0.22163405906E+04  0.00000000000E+00 0. -1.
         -2   -1    0    0    0  501 -0.00000000000E+00 -0.00000000000E+00 -0.11283043783E+03  0.11283043783E+03  0.00000000000E+00 0. -1.
         36    2    1    2    0    0  0.14210854715E-13 -0.28421709430E-13  0.21035101528E+04  0.23291710284E+04  0.10001413485E+04 0.  0.
         25    2    3    3    0    0  0.11493881707E+03  0.56319064082E+02  0.26357448839E+03  0.31830243318E+03  0.12434693157E+03 0.  0.
         35    2    3    3    0    0 -0.11493881707E+03 -0.56319064082E+02  0.18399356644E+04  0.20108685953E+04  0.80115322486E+03 0.  0.
         22    1    5    5    0    0 -0.38002186045E+02 -0.40927365941E+03  0.66617034134E+03  0.78277200903E+03  0.00000000000E+00 0. -1.
         22    1    5    5    0    0 -0.76936631024E+02  0.35295459533E+03  0.11737653230E+04  0.12280965862E+04  0.00000000000E+00 0. -1.
          5    1    4    4  502    0  0.66789878500E+01  0.13653441963E+02 -0.11473526673E+02  0.19615228024E+02  0.47000000000E+01 0.  1.
         -5    1    4    4    0  502  0.10825982922E+03  0.42665622119E+02  0.27504801507E+03  0.29868720516E+03  0.47000000000E+01 0.  1.
<mgrwt>
<rscale>  0 0.10001413E+04</rscale>
<asrwt>0</asrwt>
<pdfrwt beam="1">  1        2 0.34097544E+00 0.10001413E+04</pdfrwt>
<pdfrwt beam="2">  1       -2 0.17358531E-01 0.10001413E+04</pdfrwt>
<totfact> 0.16048167E+02</totfact>
</mgrwt>
</event>
<event>
 9    1  0.4307774E-036  0.9869740E+03  0.7818608E-02  0.8693543E-01
         -2   -1    0    0    0  501 -0.00000000000E+00  0.00000000000E+00  0.33799717251E+03  0.33799717251E+03  0.00000000000E+00 0.  1.
          2   -1    0    0  501    0  0.00000000000E+00 -0.00000000000E+00 -0.72050727542E+03  0.72050727542E+03  0.00000000000E+00 0.  1.
         36    2    1    2    0    0 -0.14210854715E-13  0.71054273576E-14 -0.38251010291E+03  0.10585044479E+04  0.98697400547E+03 0.  0.
         25    2    3    3    0    0  0.10528705683E+03  0.44573875427E+02 -0.43605166482E+01  0.16484794355E+03  0.11867449466E+03 0.  0.
         35    2    3    3    0    0 -0.10528705683E+03 -0.44573875427E+02 -0.37814958626E+03  0.89365650438E+03  0.80159381455E+03 0.  0.
         22    1    5    5    0    0 -0.14257830080E+03 -0.53408732917E+02  0.23461874448E+03  0.27969093634E+03  0.00000000000E+00 0. -1.
         22    1    5    5    0    0  0.37291243969E+02  0.88348574898E+01 -0.61276833074E+03  0.61396556804E+03  0.00000000000E+00 0. -1.
          5    1    4    4  502    0 -0.10345304889E+02 -0.26534631011E+02  0.13810025718E+01  0.28898255038E+02  0.47000000000E+01 0.  1.
         -5    1    4    4    0  502  0.11563236172E+03  0.71108506439E+02 -0.57415192200E+01  0.13594968852E+03  0.47000000000E+01 0.  1.
<mgrwt>
<rscale>  0 0.98697401E+03</rscale>
<asrwt>0</asrwt>
<pdfrwt beam="1">  1        2 0.11084727E+00 0.98697401E+03</pdfrwt>
<pdfrwt beam="2">  1       -2 0.51999566E-01 0.98697401E+03</pdfrwt>
<totfact> 0.16678983E+02</totfact>
</mgrwt>
</event>
<event>
 9    1  0.4307774E-036  0.1000112E+04  0.7818608E-02  0.8680932E-01
         -1   -1    0    0    0  501 -0.00000000000E+00  0.00000000000E+00  0.37073188173E+03  0.37073188173E+03  0.00000000000E+00 0.  1.
          1   -1    0    0  501    0  0.00000000000E+00 -0.00000000000E+00 -0.67449242884E+03  0.67449242884E+03  0.00000000000E+00 0.  1.
         36    2    1    2    0    0  0.42632564146E-13 -0.14210854715E-13 -0.30376054711E+03  0.10452243106E+04  0.10001116885E+04 0.  0.
         25    2    3    3    0    0  0.48075455259E+02 -0.10849716447E+03 -0.12668880745E+03  0.21684413387E+03  0.12995553226E+03 0.  0.
         35    2    3    3    0    0 -0.48075455259E+02  0.10849716447E+03 -0.17707173966E+03  0.82838017670E+03  0.80048512295E+03 0.  0.
         22    1    5    5    0    0 -0.31550453551E+03 -0.98767226849E+02  0.14522988760E+03  0.36109527452E+03  0.00000000000E+00 0. -1.
         22    1    5    5    0    0  0.26742908025E+03  0.20726439132E+03 -0.32230162725E+03  0.46728490218E+03  0.00000000000E+00 0. -1.
          5    1    4    4  502    0 -0.44172541782E+02 -0.30995423875E+02 -0.51533865338E+02  0.74764691033E+02  0.47000000000E+01 0.  1.
         -5    1    4    4    0  502  0.92247997040E+02 -0.77501740599E+02 -0.75154942114E+02  0.14207944284E+03  0.47000000000E+01 0.  1.
<mgrwt>
<rscale>  0 0.10001117E+04</rscale>
<asrwt>0</asrwt>
<pdfrwt beam="1">  1        1 0.10376806E+00 0.10001117E+04</pdfrwt>
<pdfrwt beam="2">  1       -1 0.57035675E-01 0.10001117E+04</pdfrwt>
<totfact> 0.10344210E+02</totfact>
</mgrwt>
</event>
<event>
 9    1  0.4307774E-036  0.1000408E+04  0.7818608E-02  0.8680649E-01
         -2   -1    0    0    0  501 -0.00000000000E+00  0.00000000000E+00  0.66953544020E+03  0.66953544020E+03  0.00000000000E+00 0.  1.
          2   -1    0    0  501    0  0.00000000000E+00 -0.00000000000E+00 -0.37369826562E+03  0.37369826562E+03  0.00000000000E+00 0.  1.
         36    2    1    2    0    0  0.14210854715E-13  0.35527136788E-14  0.29583717459E+03  0.10432337058E+04  0.10004083822E+04 0.  0.
         25    2    3    3    0    0 -0.60401286989E+02  0.92497656005E+01  0.18920653447E+03  0.23446708049E+03  0.12426514199E+03 0.  0.
         35    2    3    3    0    0  0.60401286989E+02 -0.92497656005E+01  0.10663064012E+03  0.80876662533E+03  0.79937443492E+03 0.  0.
         22    1    5    5    0    0 -0.31521040287E+03  0.14746611637E+03 -0.86029253656E+02  0.35847578166E+03  0.00000000000E+00 0. -1.
         22    1    5    5    0    0  0.37561168986E+03 -0.15671588197E+03  0.19265989378E+03  0.45029084367E+03  0.00000000000E+00 0. -1.
          5    1    4    4  502    0  0.38562528116E+02 -0.57417635392E+00  0.56325209840E+02  0.68425269577E+02  0.47000000000E+01 0.  1.
         -5    1    4    4    0  502 -0.98963815104E+02  0.98239419544E+01  0.13288132463E+03  0.16604181091E+03  0.47000000000E+01 0.  1.
<mgrwt>
<rscale>  0 0.10004084E+04</rscale>
<asrwt>0</asrwt>
<pdfrwt beam="1">  1        2 0.57492041E-01 0.10004084E+04</pdfrwt>
<pdfrwt beam="2">  1       -2 0.10300545E+00 0.10004084E+04</pdfrwt>
<totfact> 0.78324888E+01</totfact>
</mgrwt>
</event>
<event>
 9    1  0.4307774E-036  0.9878396E+03  0.7818608E-02  0.8692705E-01
          2   -1    0    0  501    0  0.00000000000E+00  0.00000000000E+00  0.23259938206E+03  0.23259938206E+03  0.00000000000E+00 0. -1.
         -2   -1    0    0    0  501 -0.00000000000E+00 -0.00000000000E+00 -0.10488281520E+04  0.10488281520E+04  0.00000000000E+00 0. -1.
         36    2    1    2    0    0  0.00000000000E+00  0.10658141036E-13 -0.81622876991E+03  0.12814275340E+04  0.98783962269E+03 0.  0.
         25    2    3    3    0    0 -0.49126965027E+02  0.12336390867E+02 -0.29814856654E+03  0.32732842679E+03  0.12524250886E+03 0.  0.
         35    2    3    3    0    0  0.49126965027E+02 -0.12336390867E+02 -0.51808020337E+03  0.95409910724E+03  0.79958261867E+03 0.  0.
         22    1    5    5    0    0 -0.38492984893E+02  0.14174474978E+03  0.18088578023E+03  0.23300847510E+03  0.00000000000E+00 0. -1.
         22    1    5    5    0    0  0.87619949920E+02 -0.15408114065E+03 -0.69896598360E+03  0.72109063214E+03  0.00000000000E+00 0. -1.
          5    1    4    4  502    0  0.60545182229E+00  0.26864576017E+01  0.11924083017E+02  0.13109438666E+02  0.47000000000E+01 0.  1.
         -5    1    4    4    0  502 -0.49732416849E+02  0.96499332655E+01 -0.31007264955E+03  0.31421898812E+03  0.47000000000E+01 0.  1.
<mgrwt>
<rscale>  0 0.98783962E+03</rscale>
<asrwt>0</asrwt>
<pdfrwt beam="1">  1        2 0.35784521E-01 0.98783962E+03</pdfrwt>
<pdfrwt beam="2">  1       -2 0.16135818E+00 0.98783962E+03</pdfrwt>
<totfact> 0.40304074E+01</totfact>
</mgrwt>
</event>
<event>
 9    1  0.4307774E-036  0.1000238E+04  0.7818608E-02  0.8680811E-01
          2   -1    0    0  501    0  0.00000000000E+00  0.00000000000E+00  0.20060504537E+04  0.20060504537E+04  0.00000000000E+00 0. -1.
         -2   -1    0    0    0  501 -0.00000000000E+00 -0.00000000000E+00 -0.12468239108E+03  0.12468239108E+03  0.00000000000E+00 0. -1.
         36    2    1    2    0    0  0.00000000000E+00 -0.71054273576E-14  0.18813680627E+04  0.21307328448E+04  0.10002383060E+04 0.  0.
         25    2    3    3    0    0 -0.13143187541E+03 -0.12502390049E+02  0.25009632096E+03  0.30910484491E+03  0.12476773525E+03 0.  0.
         35    2    3    3    0    0  0.13143187541E+03  0.12502390049E+02  0.16312717417E+04  0.18216279999E+04  0.79990651151E+03 0.  0.
         22    1    5    5    0    0 -0.28317417661E+03  0.40397426518E+02  0.25231909362E+03  0.38142429311E+03  0.00000000000E+00 0. -1.
         22    1    5    5    0    0  0.41460605203E+03 -0.27895036469E+02  0.13789526481E+04  0.14402037068E+04  0.00000000000E+00 0. -1.
          5    1    4    4  502    0  0.10799996030E+02 -0.35542227954E+02  0.54446589721E+02  0.66078824251E+02  0.47000000000E+01 0. -1.
         -5    1    4    4    0  502 -0.14223187144E+03  0.23039837905E+02  0.19564973124E+03  0.24302602066E+03  0.47000000000E+01 0. -1.
<mgrwt>
<rscale>  0 0.10002383E+04</rscale>
<asrwt>0</asrwt>
<pdfrwt beam="1">  1        2 0.30862312E+00 0.10002383E+04</pdfrwt>
<pdfrwt beam="2">  1       -2 0.19181908E-01 0.10002383E+04</pdfrwt>
<totfact> 0.17873860E+02</totfact>
</mgrwt>
</event>
<event>
 9    1  0.4307774E-036  0.9990603E+03  0.7818608E-02  0.8681933E-01
          3   -1    0    0  501    0  0.00000000000E+00  0.00000000000E+00  0.45314436221E+03  0.45314436221E+03  0.00000000000E+00 0. -1.
         -3   -1    0    0    0  501 -0.00000000000E+00 -0.00000000000E+00 -0.55066417136E+03  0.55066417136E+03  0.00000000000E+00 0. -1.
         36    2    1    2    0    0  0.49737991503E-13 -0.28421709430E-13 -0.97519809149E+02  0.10038085336E+04  0.99906028792E+03 0.  0.
         25    2    3    3    0    0 -0.14185794030E+02  0.13564031270E+03  0.12979047808E+02  0.18500919735E+03  0.12433992216E+03 0.  0.
         35    2    3    3    0    0  0.14185794030E+02 -0.13564031270E+03 -0.11049885696E+03  0.81879933622E+03  0.79976423052E+03 0.  0.
         22    1    5    5    0    0  0.27473261866E+03  0.23276544074E+03 -0.49006630486E+02  0.36339979635E+03  0.00000000000E+00 0. -1.
         22    1    5    5    0    0 -0.26054682463E+03 -0.36840575344E+03 -0.61492226470E+02  0.45539953987E+03  0.00000000000E+00 0. -1.
          5    1    4    4  502    0  0.23220060725E+02  0.85444017579E+02  0.59580352466E+02  0.10682583845E+03  0.47000000000E+01 0.  1.
         -5    1    4    4    0  502 -0.37405854755E+02  0.50196295123E+02 -0.46601304658E+02  0.78183358907E+02  0.47000000000E+01 0.  1.
<mgrwt>
<rscale>  0 0.99906029E+03</rscale>
<asrwt>0</asrwt>
<pdfrwt beam="1">  1        3 0.69714518E-01 0.99906029E+03</pdfrwt>
<pdfrwt beam="2">  1       -3 0.84717565E-01 0.99906029E+03</pdfrwt>
<totfact> 0.97500197E+00</totfact>
</mgrwt>
</event>
<event>
 9    1  0.4307774E-036  0.9999177E+03  0.7818608E-02  0.8681116E-01
         -2   -1    0    0    0  501 -0.00000000000E+00  0.00000000000E+00  0.25985300193E+03  0.25985300193E+03  0.00000000000E+00 0. -1.
          2   -1    0    0  501    0  0.00000000000E+00 -0.00000000000E+00 -0.96192403111E+03  0.96192403111E+03  0.00000000000E+00 0. -1.
         36    2    1    2    0    0  0.28421709430E-13  0.00000000000E+00 -0.70207102918E+03  0.12217770330E+04  0.99991769085E+03 0.  0.
         25    2    3    3    0    0 -0.13969506006E+03  0.23161219736E+02 -0.11964741573E+03  0.22255120213E+03  0.12313562268E+03 0.  0.
         35    2    3    3    0    0  0.13969506006E+03 -0.23161219736E+02 -0.58242361344E+03  0.99922583092E+03  0.79948973963E+03 0.  0.
         22    1    5    5    0    0  0.25024719517E+03  0.45453140824E+02 -0.74718224885E+03  0.78928509406E+03  0.00000000000E+00 0. -1.
         22    1    5    5    0    0 -0.11055213512E+03 -0.68614360560E+02  0.16475863541E+03  0.20994073686E+03  0.00000000000E+00 0. -1.
          5    1    4    4  502    0 -0.29274987358E+02  0.57568833030E+02 -0.73453650438E+02  0.97922031147E+02  0.47000000000E+01 0.  1.
         -5    1    4    4    0  502 -0.11042007270E+03 -0.34407613294E+02 -0.46193765294E+02  0.12462917098E+03  0.47000000000E+01 0.  1.
<mgrwt>
<rscale>  0 0.99991769E+03</rscale>
<asrwt>0</asrwt>
<pdfrwt beam="1">  1        2 0.14798831E+00 0.99991769E+03</pdfrwt>
<pdfrwt beam="2">  1       -2 0.39977384E-01 0.99991769E+03</pdfrwt>
<totfact> 0.19089191E+02</totfact>
</mgrwt>
</event>
<event>
 9    1  0.4307774E-036  0.9998219E+03  0.7818608E-02  0.8681208E-01
         -2   -1    0    0    0  501 -0.00000000000E+00  0.00000000000E+00  0.23132602292E+03  0.23132602292E+03  0.00000000000E+00 0. -1.
          2   -1    0    0  501    0  0.00000000000E+00 -0.00000000000E+00 -0.10803409724E+04  0.10803409724E+04  0.00000000000E+00 0. -1.
         36    2    1    2    0    0  0.28421709430E-13 -0.71054273576E-14 -0.84901494953E+03  0.13116669954E+04  0.99982194525E+03 0.  0.
         25    2    3    3    0    0  0.12677873200E+03 -0.43648577112E+02 -0.19165889641E+03  0.26564195699E+03  0.12591454073E+03 0.  0.
         35    2    3    3    0    0 -0.12677873200E+03  0.43648577112E+02 -0.65735605311E+03  0.10460250384E+04  0.80254180899E+03 0.  0.
         22    1    5    5    0    0 -0.26037293160E+03 -0.24319774432E+03 -0.63584931936E+03  0.72886457129E+03  0.00000000000E+00 0.  1.
         22    1    5    5    0    0  0.13359419960E+03  0.28684632143E+03 -0.21506733750E+02  0.31716046708E+03  0.00000000000E+00 0.  1.
          5    1    4    4  502    0  0.57393879937E+02  0.32407699244E+02 -0.12924638675E+03  0.14515865428E+03  0.47000000000E+01 0. -1.
         -5    1    4    4    0  502  0.69384852064E+02 -0.76056276356E+02 -0.62412509664E+02  0.12048330271E+03  0.47000000000E+01 0. -1.
<mgrwt>
<rscale>  0 0.99982195E+03</rscale>
<asrwt>0</asrwt>
<pdfrwt beam="1">  1        2 0.16620631E+00 0.99982195E+03</pdfrwt>
<pdfrwt beam="2">  1       -2 0.35588618E-01 0.99982195E+03</pdfrwt>
<totfact> 0.20068772E+02</totfact>
</mgrwt>
</event>
<event>
 9    1  0.4307774E-036  0.1007596E+04  0.7818608E-02  0.8673838E-01
          2   -1    0    0  501    0  0.00000000000E+00  0.00000000000E+00  0.12020630027E+04  0.12020630027E+04  0.00000000000E+00 0.  1.
         -2   -1    0    0    0  501 -0.00000000000E+00 -0.00000000000E+00 -0.21114740407E+03  0.21114740407E+03  0.00000000000E+00 0.  1.
         36    2    1    2    0    0  0.71054273576E-14  0.00000000000E+00  0.99091559868E+03  0.14132104068E+04  0.10075961146E+04 0.  0.
         25    2    3    3    0    0 -0.11368174044E+02 -0.33431492005E+02  0.38416886873E+03  0.40873839577E+03  0.13503501931E+03 0.  0.
         35    2    3    3    0    0  0.11368174044E+02  0.33431492005E+02  0.60674672995E+03  0.10044720110E+04  0.79973466013E+03 0.  0.
         22    1    5    5    0    0 -0.23251013870E+03  0.80973477820E+02 -0.92022535855E+02  0.26284180758E+03  0.00000000000E+00 0. -1.
         22    1    5    5    0    0  0.24387831274E+03 -0.47541985815E+02  0.69876926580E+03  0.74163020345E+03  0.00000000000E+00 0. -1.
          5    1    4    4  502    0 -0.66777003342E+02  0.83767432792E+01  0.22804534232E+03  0.23781527738E+03  0.47000000000E+01 0. -1.
         -5    1    4    4    0  502  0.55408829298E+02 -0.41808235284E+02  0.15612352641E+03  0.17092311839E+03  0.47000000000E+01 0. -1.
<mgrwt>
<rscale>  0 0.10075961E+04</rscale>
<asrwt>0</asrwt>
<pdfrwt beam="1">  1        2 0.18493277E+00 0.10075961E+04</pdfrwt>
<pdfrwt beam="2">  1       -2 0.32484217E-01 0.10075961E+04</pdfrwt>
<totfact> 0.20096282E+02</totfact>
</mgrwt>
</event>
<event>
 9    1  0.4307774E-036  0.1000046E+04  0.7818608E-02  0.8680994E-01
         -1   -1    0    0    0  501 -0.00000000000E+00  0.00000000000E+00  0.75477851070E+03  0.75477851070E+03  0.00000000000E+00 0.  1.
          1   -1    0    0  501    0  0.00000000000E+00 -0.00000000000E+00 -0.33125349472E+03  0.33125349472E+03  0.00000000000E+00 0.  1.
         36    2    1    2    0    0  0.28421709430E-13  0.28421709430E-13  0.42352501598E+03  0.10860320054E+04  0.10000460378E+04 0.  0.
         25    2    3    3    0    0 -0.95356445537E+02 -0.89338225972E+02  0.29037525631E+02  0.18389689892E+03  0.12609806189E+03 0.  0.
         35    2    3    3    0    0  0.95356445537E+02  0.89338225972E+02  0.39448749035E+03  0.90213510650E+03  0.80072042563E+03 0.  0.
         22    1    5    5    0    0 -0.17492297893E+03 -0.20508337438E+03 -0.80554277094E+02  0.28132939869E+03  0.00000000000E+00 0.  1.
         22    1    5    5    0    0  0.27027942447E+03  0.29442160036E+03  0.47504176744E+03  0.62080570782E+03  0.00000000000E+00 0.  1.
          5    1    4    4  502    0  0.76911273931E+01 -0.10985475677E+02  0.50617121382E+02  0.52573920278E+02  0.47000000000E+01 0.  1.
         -5    1    4    4    0  502 -0.10304757293E+03 -0.78352750295E+02 -0.21579595751E+02  0.13132297864E+03  0.47000000000E+01 0.  1.
<mgrwt>
<rscale>  0 0.10000460E+04</rscale>
<asrwt>0</asrwt>
<pdfrwt beam="1">  1        1 0.50962076E-01 0.10000460E+04</pdfrwt>
<pdfrwt beam="2">  1       -1 0.11611977E+00 0.10000460E+04</pdfrwt>
<totfact> 0.62107871E+01</totfact>
</mgrwt>
</event>
<event>
 9    1  0.4307774E-036  0.9939805E+03  0.7818608E-02  0.8686792E-01
         -2   -1    0    0    0  501 -0.00000000000E+00  0.00000000000E+00  0.31004127398E+03  0.31004127398E+03  0.00000000000E+00 0.  1.
          2   -1    0    0  501    0  0.00000000000E+00 -0.00000000000E+00 -0.79666584539E+03  0.79666584539E+03  0.00000000000E+00 0.  1.
         36    2    1    2    0    0  0.00000000000E+00  0.00000000000E+00 -0.48662457141E+03  0.11067071194E+04  0.99398046991E+03 0.  0.
         25    2    3    3    0    0  0.10420792874E+03 -0.38974851714E+02 -0.10248389568E+02  0.16731542383E+03  0.12454352687E+03 0.  0.
         35    2    3    3    0    0 -0.10420792874E+03  0.38974851714E+02 -0.47637618184E+03  0.93939169554E+03  0.80196269211E+03 0.  0.
         22    1    5    5    0    0 -0.37030976573E+03 -0.15139796137E+03 -0.51846314924E+02  0.40340885671E+03  0.00000000000E+00 0.  1.
         22    1    5    5    0    0  0.26610183699E+03  0.19037281308E+03 -0.42452986692E+03  0.53598283883E+03  0.00000000000E+00 0.  1.
          5    1    4    4  502    0  0.22514835640E+02  0.44177296986E+02 -0.91979079464E+01  0.50648227051E+02  0.47000000000E+01 0. -1.
         -5    1    4    4    0  502  0.81693093100E+02 -0.83152148699E+02 -0.10504816212E+01  0.11666719678E+03  0.47000000000E+01 0. -1.
<mgrwt>
<rscale>  0 0.99398047E+03</rscale>
<asrwt>0</asrwt>
<pdfrwt beam="1">  1        2 0.12256397E+00 0.99398047E+03</pdfrwt>
<pdfrwt beam="2">  1       -2 0.47698658E-01 0.99398047E+03</pdfrwt>
<totfact> 0.17453695E+02</totfact>
</mgrwt>
</event>
<event>
 9    1  0.4307774E-036  0.9989619E+03  0.7818608E-02  0.8682027E-01
         -2   -1    0    0    0  501 -0.00000000000E+00  0.00000000000E+00  0.25986483363E+03  0.25986483363E+03  0.00000000000E+00 0.  1.
          2   -1    0    0  501    0  0.00000000000E+00 -0.00000000000E+00 -0.96004229982E+03  0.96004229982E+03  0.00000000000E+00 0.  1.
         36    2    1    2    0    0 -0.28421709430E-13  0.00000000000E+00 -0.70017746619E+03  0.12199071334E+04  0.99896192623E+03 0.  0.
         25    2    3    3    0    0 -0.12363866246E+03 -0.64155460516E+02 -0.13411803604E+03  0.23051845206E+03  0.12549369380E+03 0.  0.
         35    2    3    3    0    0  0.12363866246E+03  0.64155460516E+02 -0.56605943015E+03  0.98938868138E+03  0.79941493757E+03 0.  0.
         22    1    5    5    0    0 -0.21072117230E+03 -0.24886180010E+03 -0.11289892570E+03  0.34508227342E+03  0.00000000000E+00 0.  1.
         22    1    5    5    0    0  0.33435983476E+03  0.31301726061E+03 -0.45316050445E+03  0.64430640796E+03  0.00000000000E+00 0.  1.
          5    1    4    4  502    0 -0.12310079948E+03 -0.37130664301E+02 -0.43470019108E+02  0.13580951964E+03  0.47000000000E+01 0.  1.
         -5    1    4    4    0  502 -0.53786297426E+00 -0.27024796215E+02 -0.90648016929E+02  0.94708932420E+02  0.47000000000E+01 0.  1.
<mgrwt>
<rscale>  0 0.99896193E+03</rscale>
<asrwt>0</asrwt>
<pdfrwt beam="1">  1        2 0.14769882E+00 0.99896193E+03</pdfrwt>
<pdfrwt beam="2">  1       -2 0.39979205E-01 0.99896193E+03</pdfrwt>
<totfact> 0.19140635E+02</totfact>
</mgrwt>
</event>
<event>
 9    1  0.4307774E-036  0.1000025E+04  0.7818608E-02  0.8681014E-01
         -1   -1    0    0    0  501 -0.00000000000E+00  0.00000000000E+00  0.51867655468E+03  0.51867655468E+03  0.00000000000E+00 0. -1.
          1   -1    0    0  501    0  0.00000000000E+00 -0.00000000000E+00 -0.48201976234E+03  0.48201976234E+03  0.00000000000E+00 0. -1.
         36    2    1    2    0    0  0.21316282073E-13  0.14210854715E-13  0.36656792331E+02  0.10006963170E+04  0.10000246989E+04 0.  0.
         25    2    3    3    0    0 -0.62444987002E+02 -0.44202891650E+02 -0.11113701299E+03  0.18337429338E+03  0.12418302534E+03 0.  0.
         35    2    3    3    0    0  0.62444987002E+02  0.44202891650E+02  0.14779380532E+03  0.81732202364E+03  0.80019935604E+03 0.  0.
         22    1    5    5    0    0 -0.31977603155E+03  0.19244693513E+03 -0.21367876196E+02  0.37383033495E+03  0.00000000000E+00 0. -1.
         22    1    5    5    0    0  0.38222101855E+03 -0.14824404348E+03  0.16916168152E+03  0.44349168870E+03  0.00000000000E+00 0. -1.
          5    1    4    4  502    0  0.17757127071E+02 -0.42070333788E+02  0.38960655506E+00  0.45907192684E+02  0.47000000000E+01 0.  1.
         -5    1    4    4    0  502 -0.80202114073E+02 -0.21325578620E+01 -0.11152661955E+03  0.13746710069E+03  0.47000000000E+01 0.  1.
<mgrwt>
<rscale>  0 0.10000247E+04</rscale>
<asrwt>0</asrwt>
<pdfrwt beam="1">  1        1 0.74156887E-01 0.10000247E+04</pdfrwt>
<pdfrwt beam="2">  1       -1 0.79796393E-01 0.10000247E+04</pdfrwt>
<totfact> 0.86481730E+01</totfact>
</mgrwt>
</event>
<event>
 9    1  0.4307774E-036  0.9991989E+03  0.7818608E-02  0.8681801E-01
         -2   -1    0    0    0  501 -0.00000000000E+00  0.00000000000E+00  0.14354325775E+03  0.14354325775E+03  0.00000000000E+00 0.  1.
          2   -1    0    0  501    0  0.00000000000E+00 -0.00000000000E+00 -0.17388457699E+04  0.17388457699E+04  0.00000000000E+00 0.  1.
         36    2    1    2    0    0  0.00000000000E+00 -0.14210854715E-13 -0.15953025121E+04  0.18823890276E+04  0.99919885215E+03 0.  0.
         25    2    3    3    0    0  0.10892327939E+03 -0.81721957488E+02 -0.34850718303E+03  0.39467284573E+03  0.12556527945E+03 0.  0.
         35    2    3    3    0    0 -0.10892327939E+03  0.81721957488E+02 -0.12467953291E+04  0.14877161819E+04  0.80016128755E+03 0.  0.
         22    1    5    5    0    0  0.24229529313E+03 -0.17271877638E+03 -0.21095665435E+03  0.36474853639E+03  0.00000000000E+00 0.  1.
         22    1    5    5    0    0 -0.35121857253E+03  0.25444073387E+03 -0.10358386747E+04  0.11229676455E+04  0.00000000000E+00 0.  1.
          5    1    4    4  502    0  0.76872898167E+02 -0.30387591701E+02 -0.66463521530E+02  0.10617126681E+03  0.47000000000E+01 0. -1.
         -5    1    4    4    0  502  0.32050381228E+02 -0.51334365787E+02 -0.28204366150E+03  0.28850157892E+03  0.47000000000E+01 0. -1.
<mgrwt>
<rscale>  0 0.99919885E+03</rscale>
<asrwt>0</asrwt>
<pdfrwt beam="1">  1        2 0.26751474E+00 0.99919885E+03</pdfrwt>
<pdfrwt beam="2">  1       -2 0.22083578E-01 0.99919885E+03</pdfrwt>
<totfact> 0.19828561E+02</totfact>
</mgrwt>
</event>
<event>
 9    1  0.4307774E-036  0.9996510E+03  0.7818608E-02  0.8681370E-01
          2   -1    0    0  501    0  0.00000000000E+00  0.00000000000E+00  0.53365346377E+03  0.53365346377E+03  0.00000000000E+00 0. -1.
         -2   -1    0    0    0  501 -0.00000000000E+00 -0.00000000000E+00 -0.46814185021E+03  0.46814185021E+03  0.00000000000E+00 0. -1.
         36    2    1    2    0    0  0.00000000000E+00  0.00000000000E+00  0.65511613566E+02  0.10017953140E+04  0.99965097889E+03 0.  0.
         25    2    3    3    0    0  0.37539801515E+01 -0.12039736531E+03  0.80982812763E+02  0.19274250282E+03  0.12681418884E+03 0.  0.
         35    2    3    3    0    0 -0.37539801515E+01  0.12039736531E+03 -0.15471199197E+02  0.80905281116E+03  0.79988591393E+03 0.  0.
         22    1    5    5    0    0  0.15466969598E+03 -0.16767663332E+03 -0.29819412227E+03  0.37544360798E+03  0.00000000000E+00 0.  1.
         22    1    5    5    0    0 -0.15842367614E+03  0.28807399863E+03  0.28272292308E+03  0.43360920317E+03  0.00000000000E+00 0.  1.
          5    1    4    4  502    0  0.57014904809E+02 -0.93455488637E+02  0.28739163126E+02  0.11328131895E+03  0.47000000000E+01 0. -1.
         -5    1    4    4    0  502 -0.53260924658E+02 -0.26941876671E+02  0.52243649637E+02  0.79461183865E+02  0.47000000000E+01 0. -1.
<mgrwt>
<rscale>  0 0.99965098E+03</rscale>
<asrwt>0</asrwt>
<pdfrwt beam="1">  1        2 0.82100533E-01 0.99965098E+03</pdfrwt>
<pdfrwt beam="2">  1       -2 0.72021823E-01 0.99965098E+03</pdfrwt>
<totfact> 0.12046967E+02</totfact>
</mgrwt>
</event>
<event>
 9    1  0.4307774E-036  0.1000529E+04  0.7818608E-02  0.8680534E-01
          1   -1    0    0  501    0  0.00000000000E+00  0.00000000000E+00  0.43746216603E+03  0.43746216603E+03  0.00000000000E+00 0.  1.
         -1   -1    0    0    0  501 -0.00000000000E+00 -0.00000000000E+00 -0.57208262511E+03  0.57208262511E+03  0.00000000000E+00 0.  1.
         36    2    1    2    0    0  0.71054273576E-14  0.00000000000E+00 -0.13462045908E+03  0.10095447911E+04  0.10005288688E+04 0.  0.
         25    2    3    3    0    0  0.55995333660E+02  0.15624420243E+02  0.10603876540E+03  0.17383401146E+03  0.12487771569E+03 0.  0.
         35    2    3    3    0    0 -0.55995333660E+02 -0.15624420243E+02 -0.24065922448E+03  0.83571077967E+03  0.79819549299E+03 0.  0.
         22    1    5    5    0    0 -0.93352809189E+02 -0.30598705516E+03 -0.39214518620E+03  0.50608366104E+03  0.00000000000E+00 0. -1.
         22    1    5    5    0    0  0.37357475529E+02  0.29036263492E+03  0.15148596173E+03  0.32962711863E+03  0.00000000000E+00 0. -1.
          5    1    4    4  502    0  0.30251631430E+02 -0.42922624644E+02  0.34299717202E+01  0.52833394899E+02  0.47000000000E+01 0.  1.
         -5    1    4    4    0  502  0.25743702230E+02  0.58547044887E+02  0.10260879368E+03  0.12100061657E+03  0.47000000000E+01 0.  1.
<mgrwt>
<rscale>  0 0.10005289E+04</rscale>
<asrwt>0</asrwt>
<pdfrwt beam="1">  1        1 0.67301872E-01 0.10005289E+04</pdfrwt>
<pdfrwt beam="2">  1       -1 0.88012711E-01 0.10005289E+04</pdfrwt>
<totfact> 0.80221214E+01</totfact>
</mgrwt>
</event>
<event>
 9    1  0.4307774E-036  0.1000546E+04  0.7818608E-02  0.8680518E-01
         -2   -1    0    0    0  501 -0.00000000000E+00  0.00000000000E+00  0.13602526811E+04  0.13602526811E+04  0.00000000000E+00 0. -1.
          2   -1    0    0  501    0  0.00000000000E+00 -0.00000000000E+00 -0.18399000954E+03  0.18399000954E+03  0.00000000000E+00 0. -1.
         36    2    1    2    0    0  0.00000000000E+00  0.28421709430E-13  0.11762626716E+04  0.15442426907E+04  0.10005456587E+04 0.  0.
         25    2    3    3    0    0  0.80907505476E+02 -0.95015394262E+02  0.32545096762E+03  0.37004832286E+03  0.12427179623E+03 0.  0.
         35    2    3    3    0    0 -0.80907505476E+02  0.95015394262E+02  0.85081170396E+03  0.11741943678E+04  0.79954856525E+03 0.  0.
         22    1    5    5    0    0  0.21138697010E+03  0.29015348656E+03  0.14778998160E+03  0.38822078197E+03  0.00000000000E+00 0.  1.
         22    1    5    5    0    0 -0.29229447558E+03 -0.19513809229E+03  0.70302172236E+03  0.78597358583E+03  0.00000000000E+00 0.  1.
          5    1    4    4  502    0 -0.18493575040E+02 -0.70677107236E+02  0.12253476451E+03  0.14273795682E+03  0.47000000000E+01 0. -1.
         -5    1    4    4    0  502  0.99401080516E+02 -0.24338287026E+02  0.20291620311E+03  0.22731036604E+03  0.47000000000E+01 0. -1.
<mgrwt>
<rscale>  0 0.10005457E+04</rscale>
<asrwt>0</asrwt>
<pdfrwt beam="1">  1        2 0.28306156E-01 0.10005457E+04</pdfrwt>
<pdfrwt beam="2">  1       -2 0.20926964E+00 0.10005457E+04</pdfrwt>
<totfact> 0.23864584E+01</totfact>
</mgrwt>
</event>
<event>
 9    1  0.4307774E-036  0.1001224E+04  0.7818608E-02  0.8679873E-01
         -2   -1    0    0    0  501 -0.00000000000E+00  0.00000000000E+00  0.41633481150E+03  0.41633481150E+03  0.00000000000E+00 0.  1.
          2   -1    0    0  501    0  0.00000000000E+00 -0.00000000000E+00 -0.60194933497E+03  0.60194933497E+03  0.00000000000E+00 0.  1.
         36    2    1    2    0    0 -0.14210854715E-13 -0.28421709430E-13 -0.18561452347E+03  0.10182841465E+04  0.10012241765E+04 0.  0.
         25    2    3    3    0    0  0.28921451469E+02 -0.94464244390E+02 -0.14441689819E+03  0.21186730083E+03  0.11946367170E+03 0.  0.
         35    2    3    3    0    0 -0.28921451469E+02  0.94464244390E+02 -0.41197625280E+02  0.80641684564E+03  0.79928151535E+03 0.  0.
         22    1    5    5    0    0 -0.16049285313E+03 -0.29047750478E+03 -0.17880153985E+03  0.37696833732E+03  0.00000000000E+00 0.  1.
         22    1    5    5    0    0  0.13157140166E+03  0.38494174917E+03  0.13760391457E+03  0.42944850832E+03  0.00000000000E+00 0.  1.
          5    1    4    4  502    0  0.68841734978E+02 -0.37560400038E+02 -0.45213121171E+02  0.90643722628E+02  0.47000000000E+01 0. -1.
         -5    1    4    4    0  502 -0.39920283509E+02 -0.56903844351E+02 -0.99203777023E+02  0.12122357821E+03  0.47000000000E+01 0. -1.
<mgrwt>
<rscale>  0 0.10012242E+04</rscale>
<asrwt>0</asrwt>
<pdfrwt beam="1">  1        2 0.92607590E-01 0.10012242E+04</pdfrwt>
<pdfrwt beam="2">  1       -2 0.64051509E-01 0.10012242E+04</pdfrwt>
<totfact> 0.13468566E+02</totfact>
</mgrwt>
</event>
<event>
 9    1  0.4307774E-036  0.9997544E+03  0.7818608E-02  0.8681272E-01
         -2   -1    0    0    0  501 -0.00000000000E+00  0.00000000000E+00  0.15008909587E+03  0.15008909587E+03  0.00000000000E+00 0. -1.
          2   -1    0    0  501    0  0.00000000000E+00 -0.00000000000E+00 -0.16648593352E+04  0.16648593352E+04  0.00000000000E+00 0. -1.
         36    2    1    2    0    0  0.71054273576E-14  0.00000000000E+00 -0.15147702393E+04  0.18149484311E+04  0.99975443460E+03 0.  0.
         25    2    3    3    0    0 -0.11665665429E+02 -0.13638621677E+03 -0.31205257671E+03  0.36305440125E+03  0.12527729147E+03 0.  0.
         35    2    3    3    0    0  0.11665665429E+02  0.13638621677E+03 -0.12027176626E+04  0.14518940298E+04  0.80170394162E+03 0.  0.
         22    1    5    5    0    0  0.36376522430E+03  0.21064946600E+03 -0.84871955578E+03  0.94711309795E+03  0.00000000000E+00 0. -1.
         22    1    5    5    0    0 -0.35209955887E+03 -0.74263249234E+02 -0.35399810684E+03  0.50478093188E+03  0.00000000000E+00 0. -1.
          5    1    4    4  502    0  0.34786501507E+02  0.60675789081E+01 -0.62277326487E+02  0.71745882079E+02  0.47000000000E+01 0.  1.
         -5    1    4    4    0  502 -0.46452166936E+02 -0.14245379568E+03 -0.24977525023E+03  0.29130851917E+03  0.47000000000E+01 0.  1.
<mgrwt>
<rscale>  0 0.99975443E+03</rscale>
<asrwt>0</asrwt>
<pdfrwt beam="1">  1        2 0.25613220E+00 0.99975443E+03</pdfrwt>
<pdfrwt beam="2">  1       -2 0.23090631E-01 0.99975443E+03</pdfrwt>
<totfact> 0.20184287E+02</totfact>
</mgrwt>
</event>
<event>
 9    1  0.4307774E-036  0.9989725E+03  0.7818608E-02  0.8682017E-01
         -1   -1    0    0    0  501 -0.00000000000E+00  0.00000000000E+00  0.23182535421E+03  0.23182535421E+03  0.00000000000E+00 0. -1.
          1   -1    0    0  501    0  0.00000000000E+00 -0.00000000000E+00 -0.10761829343E+04  0.10761829343E+04  0.00000000000E+00 0. -1.
         36    2    1    2    0    0  0.00000000000E+00  0.00000000000E+00 -0.84435758013E+03  0.13080082886E+04  0.99897245198E+03 0.  0.
         25    2    3    3    0    0 -0.23036309941E+02  0.13071368588E+03 -0.96142699295E+02  0.20699994672E+03  0.12644690609E+03 0.  0.
         35    2    3    3    0    0  0.23036309941E+02 -0.13071368588E+03 -0.74821488084E+03  0.11010083418E+04  0.79672901394E+03 0.  0.
         22    1    5    5    0    0  0.31001882013E+03 -0.53345621513E+01 -0.72316335932E+03  0.78683249212E+03  0.00000000000E+00 0.  1.
         22    1    5    5    0    0 -0.28698251019E+03 -0.12537912373E+03 -0.25051521519E+02  0.31417584973E+03  0.00000000000E+00 0.  1.
          5    1    4    4  502    0  0.13506651266E+02 -0.20694480318E+02 -0.26894917168E+01  0.25298508054E+02  0.47000000000E+01 0.  1.
         -5    1    4    4    0  502 -0.36542961206E+02  0.15140816620E+03 -0.93453207578E+02  0.18170143866E+03  0.47000000000E+01 0.  1.
<mgrwt>
<rscale>  0 0.99897245E+03</rscale>
<asrwt>0</asrwt>
<pdfrwt beam="1">  1        1 0.16556661E+00 0.99897245E+03</pdfrwt>
<pdfrwt beam="2">  1       -1 0.35665439E-01 0.99897245E+03</pdfrwt>
<totfact> 0.11031562E+02</totfact>
</mgrwt>
</event>
<event>
 9    1  0.4307774E-036  0.9996094E+03  0.7818608E-02  0.8681410E-01
          1   -1    0    0  501    0  0.00000000000E+00  0.00000000000E+00  0.44599531242E+03  0.44599531242E+03  0.00000000000E+00 0. -1.
         -1   -1    0    0    0  501 -0.00000000000E+00 -0.00000000000E+00 -0.56010620114E+03  0.56010620114E+03  0.00000000000E+00 0. -1.
         36    2    1    2    0    0  0.00000000000E+00  0.00000000000E+00 -0.11411088872E+03  0.10061015136E+04  0.99960940405E+03 0.  0.
         25    2    3    3    0    0  0.76703268551E+02 -0.63394589078E+02 -0.12843496870E+03  0.20512574487E+03  0.12521487408E+03 0.  0.
         35    2    3    3    0    0 -0.76703268551E+02  0.63394589078E+02  0.14324079983E+02  0.80097576869E+03  0.79464126335E+03 0.  0.
         22    1    5    5    0    0 -0.43383263012E+03  0.90701696307E+01 -0.39621138928E+02  0.43573254823E+03  0.00000000000E+00 0.  1.
         22    1    5    5    0    0  0.35712936157E+03  0.54324419447E+02  0.53945218910E+02  0.36524322046E+03  0.00000000000E+00 0.  1.
          5    1    4    4  502    0 -0.79947379986E+01 -0.59476630301E+02 -0.12603147850E+02  0.61500526204E+02  0.47000000000E+01 0.  1.
         -5    1    4    4    0  502  0.84698006550E+02 -0.39179587766E+01 -0.11583182085E+03  0.14362521867E+03  0.47000000000E+01 0.  1.
<mgrwt>
<rscale>  0 0.99960940E+03</rscale>
<asrwt>0</asrwt>
<pdfrwt beam="1">  1        1 0.68614664E-01 0.99960940E+03</pdfrwt>
<pdfrwt beam="2">  1       -1 0.86170185E-01 0.99960940E+03</pdfrwt>
<totfact> 0.81761481E+01</totfact>
</mgrwt>
</event>
<event>
 9    1  0.4307774E-036  0.9996007E+03  0.7818608E-02  0.8681418E-01
         -1   -1    0    0    0  501 -0.00000000000E+00  0.00000000000E+00  0.19924436563E+03  0.19924436563E+03  0.00000000000E+00 0. -1.
          1   -1    0    0  501    0  0.00000000000E+00 -0.00000000000E+00 -0.12537388716E+04  0.12537388716E+04  0.00000000000E+00 0. -1.
         36    2    1    2    0    0 -0.28421709430E-13 -0.28421709430E-13 -0.10544945060E+04  0.14529832372E+04  0.99960073256E+03 0.  0.
         25    2    3    3    0    0  0.78326835438E+02 -0.10869378244E+03 -0.25538713315E+03  0.31433856615E+03  0.12504685083E+03 0.  0.
         35    2    3    3    0    0 -0.78326835438E+02  0.10869378244E+03 -0.79910737281E+03  0.11386446711E+04  0.79999353883E+03 0.  0.
         22    1    5    5    0    0 -0.20870595940E+03 -0.16267000227E+03  0.20586665862E+02  0.26541197776E+03  0.00000000000E+00 0. -1.
         22    1    5    5    0    0  0.13037912396E+03  0.27136378472E+03 -0.81969403867E+03  0.87323269330E+03  0.00000000000E+00 0. -1.
          5    1    4    4  502    0  0.88374357143E+02 -0.13030272714E+03 -0.20618146694E+03  0.25946428465E+03  0.47000000000E+01 0.  1.
         -5    1    4    4    0  502 -0.10047521705E+02  0.21608944694E+02 -0.49205666207E+02  0.54874281500E+02  0.47000000000E+01 0.  1.
<mgrwt>
<rscale>  0 0.99960073E+03</rscale>
<asrwt>0</asrwt>
<pdfrwt beam="1">  1        1 0.19288291E+00 0.99960073E+03</pdfrwt>
<pdfrwt beam="2">  1       -1 0.30652979E-01 0.99960073E+03</pdfrwt>
<totfact> 0.10535368E+02</totfact>
</mgrwt>
</event>
<event>
 9    1  0.4307774E-036  0.9996983E+03  0.7818608E-02  0.8681325E-01
          2   -1    0    0  501    0  0.00000000000E+00  0.00000000000E+00  0.21250280367E+04  0.21250280367E+04  0.00000000000E+00 0. -1.
         -2   -1    0    0    0  501 -0.00000000000E+00 -0.00000000000E+00 -0.11757452682E+03  0.11757452682E+03  0.00000000000E+00 0. -1.
         36    2    1    2    0    0 -0.28421709430E-13  0.28421709430E-13  0.20074535099E+04  0.22426025635E+04  0.99969828630E+03 0.  0.
         25    2    3    3    0    0 -0.76524787084E+02 -0.10444393183E+03  0.47558178050E+03  0.50864854165E+03  0.12562137975E+03 0.  0.
         35    2    3    3    0    0  0.76524787084E+02  0.10444393183E+03  0.15318717294E+04  0.17339540219E+04  0.80199811519E+03 0.  0.
         22    1    5    5    0    0  0.31153511697E+03  0.29073911003E+03  0.12565725989E+04  0.13268602246E+04  0.00000000000E+00 0.  1.
         22    1    5    5    0    0 -0.23501032989E+03 -0.18629517820E+03  0.27529913049E+03  0.40709379733E+03  0.00000000000E+00 0.  1.
          5    1    4    4  502    0 -0.35259722473E+02  0.95072754646E+00  0.23629473515E+02  0.42715265776E+02  0.47000000000E+01 0. -1.
         -5    1    4    4    0  502 -0.41265064612E+02 -0.10539465937E+03  0.45195230698E+03  0.46593327588E+03  0.47000000000E+01 0. -1.
<mgrwt>
<rscale>  0 0.99969829E+03</rscale>
<asrwt>0</asrwt>
<pdfrwt beam="1">  1        2 0.32692736E+00 0.99969829E+03</pdfrwt>
<pdfrwt beam="2">  1       -2 0.18088390E-01 0.99969829E+03</pdfrwt>
<totfact> 0.16897127E+02</totfact>
</mgrwt>
</event>
<event>
 9    1  0.4307774E-036  0.1001712E+04  0.7818608E-02  0.8679409E-01
         -2   -1    0    0    0  501 -0.00000000000E+00  0.00000000000E+00  0.23299228226E+03  0.23299228226E+03  0.00000000000E+00 0. -1.
          2   -1    0    0  501    0  0.00000000000E+00 -0.00000000000E+00 -0.10766736273E+04  0.10766736273E+04  0.00000000000E+00 0. -1.
         36    2    1    2    0    0 -0.17763568394E-14  0.00000000000E+00 -0.84368134506E+03  0.13096659096E+04  0.10017118262E+04 0.  0.
         25    2    3    3    0    0 -0.81457464354E+01 -0.12055314653E+03 -0.59269272535E+02  0.18256191041E+03  0.12335554362E+03 0.  0.
         35    2    3    3    0    0  0.81457464354E+01  0.12055314653E+03 -0.78441207253E+03  0.11271039992E+04  0.80028851742E+03 0.  0.
         22    1    5    5    0    0 -0.29209325047E+02 -0.72369517450E+02 -0.89716147123E+03  0.90054940852E+03  0.00000000000E+00 0. -1.
         22    1    5    5    0    0  0.37355071483E+02  0.19292266398E+03  0.11274939870E+03  0.22655459066E+03  0.00000000000E+00 0. -1.
          5    1    4    4  502    0  0.11710575952E+02 -0.78718309213E+02  0.27303984888E+02  0.84269255279E+02  0.47000000000E+01 0.  1.
         -5    1    4    4    0  502 -0.19856322387E+02 -0.41834837316E+02 -0.86573257423E+02  0.98292655132E+02  0.47000000000E+01 0.  1.
<mgrwt>
<rscale>  0 0.10017118E+04</rscale>
<asrwt>0</asrwt>
<pdfrwt beam="1">  1        2 0.16564209E+00 0.10017118E+04</pdfrwt>
<pdfrwt beam="2">  1       -2 0.35844967E-01 0.10017118E+04</pdfrwt>
<totfact> 0.19902890E+02</totfact>
</mgrwt>
</event>
<event>
 9    1  0.4307774E-036  0.1001834E+04  0.7818608E-02  0.8679294E-01
          2   -1    0    0  501    0  0.00000000000E+00  0.00000000000E+00  0.72471357164E+03  0.72471357164E+03  0.00000000000E+00 0. -1.
         -2   -1    0    0    0  501 -0.00000000000E+00 -0.00000000000E+00 -0.34623019581E+03  0.34623019581E+03  0.00000000000E+00 0. -1.
         36    2    1    2    0    0  0.71054273576E-14 -0.21316282073E-13  0.37848337583E+03  0.10709437675E+04  0.10018337623E+04 0.  0.
         25    2    3    3    0    0 -0.22762898726E+02  0.46153018858E+02  0.20507739530E+03  0.24566818494E+03  0.12509143984E+03 0.  0.
         35    2    3    3    0    0  0.22762898726E+02 -0.46153018858E+02  0.17340598053E+03  0.82527558252E+03  0.80520922890E+03 0.  0.
         22    1    5    5    0    0  0.13371085239E+03 -0.27810692690E+03  0.38420789568E+03  0.49278571605E+03  0.00000000000E+00 0. -1.
         22    1    5    5    0    0 -0.11094795366E+03  0.23195390804E+03 -0.21080191515E+03  0.33248986647E+03  0.00000000000E+00 0. -1.
          5    1    4    4  502    0 -0.64578388294E+02  0.54986763587E+02  0.94724304428E+02  0.12723480756E+03  0.47000000000E+01 0. -1.
         -5    1    4    4    0  502  0.41815489568E+02 -0.88337447288E+01  0.11035309087E+03  0.11843337738E+03  0.47000000000E+01 0. -1.
<mgrwt>
<rscale>  0 0.10018338E+04</rscale>
<asrwt>0</asrwt>
<pdfrwt beam="1">  1        2 0.11149440E+00 0.10018338E+04</pdfrwt>
<pdfrwt beam="2">  1       -2 0.53266184E-01 0.10018338E+04</pdfrwt>
<totfact> 0.15765448E+02</totfact>
</mgrwt>
</event>
<event>
 9    1  0.4307774E-036  0.1003772E+04  0.7818608E-02  0.8677454E-01
         -2   -1    0    0    0  501 -0.00000000000E+00  0.00000000000E+00  0.67280749672E+03  0.67280749672E+03  0.00000000000E+00 0. -1.
          2   -1    0    0  501    0  0.00000000000E+00 -0.00000000000E+00 -0.37438590916E+03  0.37438590916E+03  0.00000000000E+00 0. -1.
         36    2    1    2    0    0  0.14210854715E-13 -0.28421709430E-13  0.29842158756E+03  0.10471934059E+04  0.10037721780E+04 0.  0.
         25    2    3    3    0    0  0.11219855980E+03 -0.85115655292E+02  0.92219356357E+02  0.20968522412E+03  0.12502116593E+03 0.  0.
         35    2    3    3    0    0 -0.11219855980E+03  0.85115655292E+02  0.20620223120E+03  0.83750818176E+03  0.79941691424E+03 0.  0.
         22    1    5    5    0    0  0.65124595258E+01  0.19201771880E+03  0.48194638046E+03  0.51883092631E+03  0.00000000000E+00 0. -1.
         22    1    5    5    0    0 -0.11871101932E+03 -0.10690206350E+03 -0.27574414926E+03  0.31867725545E+03  0.00000000000E+00 0. -1.
          5    1    4    4  502    0  0.51298676821E+02 -0.10523877533E+03  0.31714202440E+02  0.12138630365E+03  0.47000000000E+01 0.  1.
         -5    1    4    4    0  502  0.60899882975E+02  0.20123120038E+02  0.60505153916E+02  0.88298920474E+02  0.47000000000E+01 0.  1.
<mgrwt>
<rscale>  0 0.10037722E+04</rscale>
<asrwt>0</asrwt>
<pdfrwt beam="1">  1        2 0.57597832E-01 0.10037722E+04</pdfrwt>
<pdfrwt beam="2">  1       -2 0.10350885E+00 0.10037722E+04</pdfrwt>
<totfact> 0.77210024E+01</totfact>
</mgrwt>
</event>
<event>
 9    1  0.4307774E-036  0.1001128E+04  0.7818608E-02  0.8679965E-01
          1   -1    0    0  501    0  0.00000000000E+00  0.00000000000E+00  0.24115083514E+03  0.24115083514E+03  0.00000000000E+00 0.  1.
         -1   -1    0    0    0  501 -0.00000000000E+00 -0.00000000000E+00 -0.10390351826E+04  0.10390351826E+04  0.00000000000E+00 0.  1.
         36    2    1    2    0    0 -0.84376949872E-14  0.28421709430E-13 -0.79788434748E+03  0.12801860178E+04  0.10011277681E+04 0.  0.
         25    2    3    3    0    0 -0.27808254678E+00  0.89608179273E+02 -0.20250726868E+02  0.16003965733E+03  0.13104539999E+03 0.  0.
         35    2    3    3    0    0  0.27808254678E+00 -0.89608179273E+02 -0.77763362061E+03  0.11201463604E+04  0.80123911396E+03 0.  0.
         22    1    5    5    0    0  0.92931027683E+02 -0.31657054058E+03 -0.80834578618E+03  0.87308418443E+03  0.00000000000E+00 0.  1.
         22    1    5    5    0    0 -0.92652945136E+02  0.22696236131E+03  0.30712165561E+02  0.24706217600E+03  0.00000000000E+00 0.  1.
          5    1    4    4  502    0  0.21335189823E+01 -0.30306623868E+02 -0.25428923209E+02  0.39896910771E+02  0.47000000000E+01 0. -1.
         -5    1    4    4    0  502 -0.24116015291E+01  0.11991480314E+03  0.51781963409E+01  0.12014274656E+03  0.47000000000E+01 0. -1.
<mgrwt>
<rscale>  0 0.10011278E+04</rscale>
<asrwt>0</asrwt>
<pdfrwt beam="1">  1        1 0.37100128E-01 0.10011278E+04</pdfrwt>
<pdfrwt beam="2">  1       -1 0.15985157E+00 0.10011278E+04</pdfrwt>
<totfact> 0.39484908E+01</totfact>
</mgrwt>
</event>
<event>
 9    1  0.4307774E-036  0.9993330E+03  0.7818608E-02  0.8681673E-01
         -2   -1    0    0    0  501 -0.00000000000E+00  0.00000000000E+00  0.21837840402E+03  0.21837840402E+03  0.00000000000E+00 0.  1.
          2   -1    0    0  501    0  0.00000000000E+00 -0.00000000000E+00 -0.11432752885E+04  0.11432752885E+04  0.00000000000E+00 0.  1.
         36    2    1    2    0    0 -0.35527136788E-14 -0.21316282073E-13 -0.92489688448E+03  0.13616536925E+04  0.99933304331E+03 0.  0.
         25    2    3    3    0    0  0.10249022134E+02  0.45925803817E+02  0.52507802371E+01  0.13405741811E+03  0.12541769711E+03 0.  0.
         35    2    3    3    0    0 -0.10249022134E+02 -0.45925803817E+02 -0.93014766472E+03  0.12275962744E+04  0.79975228219E+03 0.  0.
         22    1    5    5    0    0  0.21797503284E+03  0.19730062059E+03 -0.66013384135E+02  0.30132775629E+03  0.00000000000E+00 0. -1.
         22    1    5    5    0    0 -0.22822405497E+03 -0.24322642440E+03 -0.86413428058E+03  0.92626851813E+03  0.00000000000E+00 0. -1.
          5    1    4    4  502    0  0.14502524526E+02  0.66117861994E+02  0.50180758671E+02  0.84392496308E+02  0.47000000000E+01 0.  1.
         -5    1    4    4    0  502 -0.42535023912E+01 -0.20192058177E+02 -0.44929978434E+02  0.49664921807E+02  0.47000000000E+01 0.  1.
<mgrwt>
<rscale>  0 0.99933304E+03</rscale>
<asrwt>0</asrwt>
<pdfrwt beam="1">  1        2 0.17588851E+00 0.99933304E+03</pdfrwt>
<pdfrwt beam="2">  1       -2 0.33596678E-01 0.99933304E+03</pdfrwt>
<totfact> 0.20468186E+02</totfact>
</mgrwt>
</event>
<event>
 9    1  0.4307774E-036  0.9996552E+03  0.7818608E-02  0.8681366E-01
         -2   -1    0    0    0  501 -0.00000000000E+00  0.00000000000E+00  0.16426933009E+03  0.16426933009E+03  0.00000000000E+00 0.  1.
          2   -1    0    0  501    0  0.00000000000E+00 -0.00000000000E+00 -0.15208415836E+04  0.15208415836E+04  0.00000000000E+00 0.  1.
         36    2    1    2    0    0 -0.71054273576E-14 -0.42632564146E-13 -0.13565722535E+04  0.16851109137E+04  0.99965519677E+03 0.  0.
         25    2    3    3    0    0 -0.22537862162E+01 -0.20396733645E+02 -0.48002854510E+03  0.49648228503E+03  0.12508456716E+03 0.  0.
         35    2    3    3    0    0  0.22537862162E+01  0.20396733645E+02 -0.87654370840E+03  0.11886286286E+04  0.80255095652E+03 0.  0.
         22    1    5    5    0    0 -0.10829186737E+03 -0.37593642640E+03 -0.43788429942E+03  0.58719501438E+03  0.00000000000E+00 0. -1.
         22    1    5    5    0    0  0.11054565359E+03  0.39633316005E+03 -0.43865940898E+03  0.60143361427E+03  0.00000000000E+00 0. -1.
          5    1    4    4  502    0 -0.61556383110E+02 -0.83025923252E+01 -0.18291993422E+03  0.19323538412E+03  0.47000000000E+01 0.  1.
         -5    1    4    4    0  502  0.59302596894E+02 -0.12094141319E+02 -0.29710861088E+03  0.30324690091E+03  0.47000000000E+01 0.  1.
<mgrwt>
<rscale>  0 0.99965520E+03</rscale>
<asrwt>0</asrwt>
<pdfrwt beam="1">  1        2 0.23397564E+00 0.99965520E+03</pdfrwt>
<pdfrwt beam="2">  1       -2 0.25272203E-01 0.99965520E+03</pdfrwt>
<totfact> 0.20749028E+02</totfact>
</mgrwt>
</event>
<event>
 9    1  0.4307774E-036  0.1002267E+04  0.7818608E-02  0.8678882E-01
         -2   -1    0    0    0  501 -0.00000000000E+00  0.00000000000E+00  0.11871956705E+04  0.11871956705E+04  0.00000000000E+00 0. -1.
          2   -1    0    0  501    0  0.00000000000E+00 -0.00000000000E+00 -0.21153634300E+03  0.21153634300E+03  0.00000000000E+00 0. -1.
         36    2    1    2    0    0  0.00000000000E+00  0.14210854715E-13  0.97565932750E+03  0.13987320135E+04  0.10022674904E+04 0.  0.
         25    2    3    3    0    0  0.10407934265E+03 -0.75444899772E+02  0.25874219621E+03  0.31539757227E+03  0.12650558102E+03 0.  0.
         35    2    3    3    0    0 -0.10407934265E+03  0.75444899772E+02  0.71691713129E+03  0.10833344412E+04  0.80194694086E+03 0.  0.
         22    1    5    5    0    0 -0.10343231523E+03  0.41572182222E+03  0.56914743767E+03  0.71235642982E+03  0.00000000000E+00 0. -1.
         22    1    5    5    0    0 -0.64702741423E+00 -0.34027692245E+03  0.14776969362E+03  0.37097801141E+03  0.00000000000E+00 0. -1.
          5    1    4    4  502    0  0.30669350469E+01 -0.29639773325E+02 -0.37475746226E+01  0.30398298783E+02  0.47000000000E+01 0.  1.
         -5    1    4    4    0  502  0.10101240760E+03 -0.45805126447E+02  0.26248977083E+03  0.28499927349E+03  0.47000000000E+01 0.  1.
<mgrwt>
<rscale>  0 0.10022675E+04</rscale>
<asrwt>0</asrwt>
<pdfrwt beam="1">  1        2 0.32544053E-01 0.10022675E+04</pdfrwt>
<pdfrwt beam="2">  1       -2 0.18264548E+00 0.10022675E+04</pdfrwt>
<totfact> 0.31100126E+01</totfact>
</mgrwt>
</event>
<event>
 9    1  0.4307774E-036  0.1000329E+04  0.7818608E-02  0.8680724E-01
         -2   -1    0    0    0  501 -0.00000000000E+00  0.00000000000E+00  0.15497403555E+03  0.15497403555E+03  0.00000000000E+00 0.  1.
          2   -1    0    0  501    0  0.00000000000E+00 -0.00000000000E+00 -0.16142363375E+04  0.16142363375E+04  0.00000000000E+00 0.  1.
         36    2    1    2    0    0  0.00000000000E+00  0.42632564146E-13 -0.14592623020E+04  0.17692103731E+04  0.10003293849E+04 0.  0.
         25    2    3    3    0    0 -0.96481950133E+02  0.10185780261E+03 -0.27689134394E+03  0.33473059279E+03  0.12526761254E+03 0.  0.
         35    2    3    3    0    0  0.96481950133E+02 -0.10185780261E+03 -0.11823709580E+04  0.14344797803E+04  0.80002961131E+03 0.  0.
         22    1    5    5    0    0  0.12009815399E+03 -0.39346500849E+03 -0.10201011288E+04  0.10999293579E+04  0.00000000000E+00 0.  1.
         22    1    5    5    0    0 -0.23616203853E+02  0.29160720587E+03 -0.16226982923E+03  0.33455042233E+03  0.00000000000E+00 0.  1.
          5    1    4    4  502    0  0.25235935878E+02  0.19201130669E+02 -0.17608172250E+02  0.36574220547E+02  0.47000000000E+01 0. -1.
         -5    1    4    4    0  502 -0.12171788601E+03  0.82656671943E+02 -0.25928317169E+03  0.29815637225E+03  0.47000000000E+01 0. -1.
<mgrwt>
<rscale>  0 0.10003294E+04</rscale>
<asrwt>0</asrwt>
<pdfrwt beam="1">  1        2 0.24834407E+00 0.10003294E+04</pdfrwt>
<pdfrwt beam="2">  1       -2 0.23842157E-01 0.10003294E+04</pdfrwt>
<totfact> 0.20372934E+02</totfact>
</mgrwt>
</event>
<event>
 9    1  0.4307774E-036  0.1000531E+04  0.7818608E-02  0.8680532E-01
         -2   -1    0    0    0  501 -0.00000000000E+00  0.00000000000E+00  0.17820928869E+03  0.17820928869E+03  0.00000000000E+00 0. -1.
          2   -1    0    0  501    0  0.00000000000E+00 -0.00000000000E+00 -0.14043364963E+04  0.14043364963E+04  0.00000000000E+00 0. -1.
         36    2    1    2    0    0 -0.28421709430E-13 -0.14210854715E-13 -0.12261272076E+04  0.15825457849E+04  0.10005314749E+04 0.  0.
         25    2    3    3    0    0  0.69757394217E+02  0.12174468445E+03 -0.21863659111E+03  0.28816686473E+03  0.12470092509E+03 0.  0.
         35    2    3    3    0    0 -0.69757394217E+02 -0.12174468445E+03 -0.10074906164E+04  0.12943789202E+04  0.80043212368E+03 0.  0.
         22    1    5    5    0    0 -0.27560907579E+03 -0.18919398182E+03 -0.10239454450E+04  0.10771346248E+04  0.00000000000E+00 0.  1.
         22    1    5    5    0    0  0.20585168157E+03  0.67449297370E+02  0.16454828606E+02  0.21724429545E+03  0.00000000000E+00 0.  1.
          5    1    4    4  502    0  0.67830342602E+02  0.78149278372E+01 -0.50725322118E+02  0.85189064901E+02  0.47000000000E+01 0.  1.
         -5    1    4    4    0  502  0.19270516146E+01  0.11392975661E+03 -0.16791126900E+03  0.20297779983E+03  0.47000000000E+01 0.  1.
<mgrwt>
<rscale>  0 0.10005315E+04</rscale>
<asrwt>0</asrwt>
<pdfrwt beam="1">  1        2 0.21605177E+00 0.10005315E+04</pdfrwt>
<pdfrwt beam="2">  1       -2 0.27416814E-01 0.10005315E+04</pdfrwt>
<totfact> 0.20890919E+02</totfact>
</mgrwt>
</event>
<event>
 9    1  0.4307774E-036  0.9990968E+03  0.7818608E-02  0.8681898E-01
          2   -1    0    0  501    0  0.00000000000E+00  0.00000000000E+00  0.14026047784E+04  0.14026047784E+04  0.00000000000E+00 0. -1.
         -2   -1    0    0    0  501 -0.00000000000E+00 -0.00000000000E+00 -0.17791799422E+03  0.17791799422E+03  0.00000000000E+00 0. -1.
         36    2    1    2    0    0 -0.14210854715E-13 -0.35527136788E-14  0.12246867842E+04  0.15805227726E+04  0.99909684988E+03 0.  0.
         25    2    3    3    0    0 -0.20837092134E+01  0.76386651334E-01  0.44810199425E+03  0.46528730897E+03  0.12526984855E+03 0.  0.
         35    2    3    3    0    0  0.20837092134E+01 -0.76386651334E-01  0.77658478993E+03  0.11152354637E+04  0.80041355297E+03 0.  0.
         22    1    5    5    0    0 -0.18637901622E+03  0.15928761019E+03  0.82764854420E+03  0.86319858269E+03  0.00000000000E+00 0. -1.
         22    1    5    5    0    0  0.18846272544E+03 -0.15936399684E+03 -0.51063754265E+02  0.25203688097E+03  0.00000000000E+00 0. -1.
          5    1    4    4  502    0 -0.32572426424E+02 -0.20298489075E+02  0.40433688288E+02  0.55946088072E+02  0.47000000000E+01 0.  1.
         -5    1    4    4    0  502  0.30488717211E+02  0.20374875727E+02  0.40766830596E+03  0.40934122090E+03  0.47000000000E+01 0.  1.
<mgrwt>
<rscale>  0 0.99909685E+03</rscale>
<asrwt>0</asrwt>
<pdfrwt beam="1">  1        2 0.21578534E+00 0.99909685E+03</pdfrwt>
<pdfrwt beam="2">  1       -2 0.27372000E-01 0.99909685E+03</pdfrwt>
<totfact> 0.21000419E+02</totfact>
</mgrwt>
</event>
<event>
 9    1  0.4307774E-036  0.9990025E+03  0.7818608E-02  0.8681988E-01
          1   -1    0    0  501    0  0.00000000000E+00  0.00000000000E+00  0.77624089718E+03  0.77624089718E+03  0.00000000000E+00 0. -1.
         -1   -1    0    0    0  501 -0.00000000000E+00 -0.00000000000E+00 -0.32142278982E+03  0.32142278982E+03  0.00000000000E+00 0. -1.
         36    2    1    2    0    0 -0.28421709430E-13  0.00000000000E+00  0.45481810735E+03  0.10976636870E+04  0.99900253202E+03 0.  0.
         25    2    3    3    0    0  0.62696238033E+02  0.12608794503E+03  0.76375934284E+02  0.20199822519E+03  0.12304881752E+03 0.  0.
         35    2    3    3    0    0 -0.62696238033E+02 -0.12608794503E+03  0.37844217307E+03  0.89566546181E+03  0.79948055197E+03 0.  0.
         22    1    5    5    0    0 -0.16801634667E+03  0.29245185584E+03  0.25685804131E+02  0.33825632480E+03  0.00000000000E+00 0.  1.
         22    1    5    5    0    0  0.10532010863E+03 -0.41853980087E+03  0.35275636894E+03  0.55740913701E+03  0.00000000000E+00 0.  1.
          5    1    4    4  502    0  0.67519254988E+02  0.63320776947E+02 -0.11929247268E+02  0.93449277834E+02  0.47000000000E+01 0.  1.
         -5    1    4    4    0  502 -0.48230169544E+01  0.62767168087E+02  0.88305181552E+02  0.10854894735E+03  0.47000000000E+01 0.  1.
<mgrwt>
<rscale>  0 0.99900253E+03</rscale>
<asrwt>0</asrwt>
<pdfrwt beam="1">  1        1 0.11942168E+00 0.99900253E+03</pdfrwt>
<pdfrwt beam="2">  1       -1 0.49449660E-01 0.99900253E+03</pdfrwt>
<totfact> 0.10855838E+02</totfact>
</mgrwt>
</event>
<event>
 9    1  0.4307774E-036  0.1000481E+04  0.7818608E-02  0.8680580E-01
          2   -1    0    0  501    0  0.00000000000E+00  0.00000000000E+00  0.81546508019E+03  0.81546508019E+03  0.00000000000E+00 0. -1.
         -2   -1    0    0    0  501 -0.00000000000E+00 -0.00000000000E+00 -0.30686845838E+03  0.30686845838E+03  0.00000000000E+00 0. -1.
         36    2    1    2    0    0 -0.14210854715E-13  0.00000000000E+00  0.50859662180E+03  0.11223335386E+04  0.10004809084E+04 0.  0.
         25    2    3    3    0    0  0.10927312302E+03 -0.84757265234E+02  0.69264788962E+02  0.19894373031E+03  0.12512628587E+03 0.  0.
         35    2    3    3    0    0 -0.10927312302E+03  0.84757265234E+02  0.43933183284E+03  0.92338980826E+03  0.80031985433E+03 0.  0.
         22    1    5    5    0    0 -0.17140950744E+02 -0.23017196934E+03 -0.13100636362E+03  0.26539708923E+03  0.00000000000E+00 0. -1.
         22    1    5    5    0    0 -0.92132172272E+02  0.31492923457E+03  0.57033819646E+03  0.65799271903E+03  0.00000000000E+00 0. -1.
          5    1    4    4  502    0  0.70285845916E+01  0.30576009685E+02  0.60846064533E+01  0.32301792602E+02  0.47000000000E+01 0.  1.
         -5    1    4    4    0  502  0.10224453842E+03 -0.11533327492E+03  0.63180182509E+02  0.16664193771E+03  0.47000000000E+01 0.  1.
<mgrwt>
<rscale>  0 0.10004809E+04</rscale>
<asrwt>0</asrwt>
<pdfrwt beam="1">  1        2 0.12545617E+00 0.10004809E+04</pdfrwt>
<pdfrwt beam="2">  1       -2 0.47210532E-01 0.10004809E+04</pdfrwt>
<totfact> 0.17280047E+02</totfact>
</mgrwt>
</event>
<event>
 9    1  0.4307774E-036  0.1001045E+04  0.7818608E-02  0.8680044E-01
          3   -1    0    0  501    0  0.00000000000E+00  0.00000000000E+00  0.19934706120E+03  0.19934706120E+03  0.00000000000E+00 0. -1.
         -3   -1    0    0    0  501 -0.00000000000E+00 -0.00000000000E+00 -0.12567163461E+04  0.12567163461E+04  0.00000000000E+00 0. -1.
         36    2    1    2    0    0  0.00000000000E+00  0.14210854715E-13 -0.10573692849E+04  0.14560634073E+04  0.10010448748E+04 0.  0.
         25    2    3    3    0    0  0.74534573782E+02 -0.12312069932E+03 -0.20233201826E+03  0.27663248807E+03  0.12195564175E+03 0.  0.
         35    2    3    3    0    0 -0.74534573782E+02  0.12312069932E+03 -0.85503726669E+03  0.11794309193E+04  0.79953389960E+03 0.  0.
         22    1    5    5    0    0 -0.14524269080E+03  0.36086109221E+03 -0.84610109423E+03  0.93123747173E+03  0.00000000000E+00 0. -1.
         22    1    5    5    0    0  0.70708117017E+02 -0.23774039289E+03 -0.89361724608E+01  0.24819344754E+03  0.00000000000E+00 0. -1.
          5    1    4    4  502    0 -0.16891558937E+02 -0.76559376416E+02 -0.50677589767E+02  0.93471765711E+02  0.47000000000E+01 0.  1.
         -5    1    4    4    0  502  0.91426132719E+02 -0.46561322905E+02 -0.15165442849E+03  0.18316072236E+03  0.47000000000E+01 0.  1.
<mgrwt>
<rscale>  0 0.10010449E+04</rscale>
<asrwt>0</asrwt>
<pdfrwt beam="1">  1        3 0.30668779E-01 0.10010449E+04</pdfrwt>
<pdfrwt beam="2">  1       -3 0.19334098E+00 0.10010449E+04</pdfrwt>
<totfact> 0.47354512E+00</totfact>
</mgrwt>
</event>
<event>
 9    1  0.4307774E-036  0.9997265E+03  0.7818608E-02  0.8681298E-01
          3   -1    0    0  501    0  0.00000000000E+00  0.00000000000E+00  0.16166199577E+04  0.16166199577E+04  0.00000000000E+00 0.  1.
         -3   -1    0    0    0  501 -0.00000000000E+00 -0.00000000000E+00 -0.15455905496E+03  0.15455905496E+03  0.00000000000E+00 0.  1.
         36    2    1    2    0    0  0.00000000000E+00  0.56843418861E-13  0.14620609027E+04  0.17711790126E+04  0.99972646835E+03 0.  0.
         25    2    3    3    0    0 -0.73435267901E+02  0.96656217800E+02  0.39135857034E+03  0.42874476157E+03  0.12619578828E+03 0.  0.
         35    2    3    3    0    0  0.73435267901E+02 -0.96656217800E+02  0.10707023324E+04  0.13424342510E+04  0.80061917967E+03 0.  0.
         22    1    5    5    0    0  0.40878635643E+02  0.35030171717E+03  0.57175209667E+03  0.67177586735E+03  0.00000000000E+00 0.  1.
         22    1    5    5    0    0  0.32556632258E+02 -0.44695793497E+03  0.49895023568E+03  0.67065838370E+03  0.00000000000E+00 0.  1.
          5    1    4    4  502    0 -0.50708573532E+02  0.29509486192E+02  0.32897436034E+03  0.33419812831E+03  0.47000000000E+01 0. -1.
         -5    1    4    4    0  502 -0.22726694369E+02  0.67146731608E+02  0.62384210004E+02  0.94546633258E+02  0.47000000000E+01 0. -1.
<mgrwt>
<rscale>  0 0.99972647E+03</rscale>
<asrwt>0</asrwt>
<pdfrwt beam="1">  1        3 0.24871075E+00 0.99972647E+03</pdfrwt>
<pdfrwt beam="2">  1       -3 0.23778317E-01 0.99972647E+03</pdfrwt>
<totfact> 0.50231480E+00</totfact>
</mgrwt>
</event>
<event>
 9    1  0.4307774E-036  0.1000726E+04  0.7818608E-02  0.8680347E-01
         -1   -1    0    0    0  501 -0.00000000000E+00  0.00000000000E+00  0.33573936528E+03  0.33573936528E+03  0.00000000000E+00 0.  1.
          1   -1    0    0  501    0  0.00000000000E+00 -0.00000000000E+00 -0.74570732862E+03  0.74570732862E+03  0.00000000000E+00 0.  1.
         36    2    1    2    0    0 -0.28421709430E-13  0.00000000000E+00 -0.40996796334E+03  0.10814466939E+04  0.10007263466E+04 0.  0.
         25    2    3    3    0    0  0.90089779266E+02 -0.51861101173E+02 -0.18125533701E+03  0.24332079334E+03  0.12468267375E+03 0.  0.
         35    2    3    3    0    0 -0.90089779266E+02  0.51861101173E+02 -0.22871262633E+03  0.83812590057E+03  0.79958727955E+03 0.  0.
         22    1    5    5    0    0 -0.88914277014E+02  0.41059878610E+03 -0.14644276905E+02  0.42037074905E+03  0.00000000000E+00 0. -1.
         22    1    5    5    0    0 -0.11755022523E+01 -0.35873768493E+03 -0.21406834943E+03  0.41775515152E+03  0.00000000000E+00 0. -1.
          5    1    4    4  502    0 -0.14053090808E+01  0.31123871793E+02 -0.11963567195E+02  0.33702926120E+02  0.47000000000E+01 0. -1.
         -5    1    4    4    0  502  0.91495088347E+02 -0.82984972967E+02 -0.16929176982E+03  0.20961786722E+03  0.47000000000E+01 0. -1.
<mgrwt>
<rscale>  0 0.10007263E+04</rscale>
<asrwt>0</asrwt>
<pdfrwt beam="1">  1        1 0.11472420E+00 0.10007263E+04</pdfrwt>
<pdfrwt beam="2">  1       -1 0.51652211E-01 0.10007263E+04</pdfrwt>
<totfact> 0.10672047E+02</totfact>
</mgrwt>
</event>
<event>
 9    1  0.4307774E-036  0.1000372E+04  0.7818608E-02  0.8680683E-01
         -2   -1    0    0    0  501 -0.00000000000E+00  0.00000000000E+00  0.29958138438E+03  0.29958138438E+03  0.00000000000E+00 0.  1.
          2   -1    0    0  501    0  0.00000000000E+00 -0.00000000000E+00 -0.83511941853E+03  0.83511941853E+03  0.00000000000E+00 0.  1.
         36    2    1    2    0    0 -0.14210854715E-13  0.00000000000E+00 -0.53553803415E+03  0.11347008029E+04  0.10003723937E+04 0.  0.
         25    2    3    3    0    0  0.43637447496E+02 -0.12628739895E+03 -0.13821764572E+03  0.22953642241E+03  0.12541976585E+03 0.  0.
         35    2    3    3    0    0 -0.43637447496E+02  0.12628739895E+03 -0.39732038843E+03  0.90516438050E+03  0.80225079041E+03 0.  0.
         22    1    5    5    0    0 -0.40202881660E+00 -0.34146995168E+03 -0.13546412033E+03  0.36735870403E+03  0.00000000000E+00 0.  1.
         22    1    5    5    0    0 -0.43235418679E+02  0.46775735063E+03 -0.26185626810E+03  0.53780567647E+03  0.00000000000E+00 0.  1.
          5    1    4    4  502    0 -0.24450041139E+02  0.57543425696E+01 -0.51400044789E+02  0.57401842953E+02  0.47000000000E+01 0. -1.
         -5    1    4    4    0  502  0.68087488635E+02 -0.13204174152E+03 -0.86817600929E+02  0.17213457945E+03  0.47000000000E+01 0. -1.
<mgrwt>
<rscale>  0 0.10003724E+04</rscale>
<asrwt>0</asrwt>
<pdfrwt beam="1">  1        2 0.12847991E+00 0.10003724E+04</pdfrwt>
<pdfrwt beam="2">  1       -2 0.46089445E-01 0.10003724E+04</pdfrwt>
<totfact> 0.17562676E+02</totfact>
</mgrwt>
</event>
<event>
 9    1  0.4307774E-036  0.9994352E+03  0.7818608E-02  0.8681576E-01
          1   -1    0    0  501    0  0.00000000000E+00  0.00000000000E+00  0.10353424075E+04  0.10353424075E+04  0.00000000000E+00 0. -1.
         -1   -1    0    0    0  501 -0.00000000000E+00 -0.00000000000E+00 -0.24119334831E+03  0.24119334831E+03  0.00000000000E+00 0. -1.
         36    2    1    2    0    0 -0.42632564146E-13 -0.71054273576E-14  0.79414905916E+03  0.12765357558E+04  0.99943524433E+03 0.  0.
         25    2    3    3    0    0  0.95777179837E+02  0.21042804190E+02  0.20706511885E+02  0.15988974508E+03  0.12457890336E+03 0.  0.
         35    2    3    3    0    0 -0.95777179837E+02 -0.21042804190E+02  0.77344254728E+03  0.11166460107E+04  0.79941783286E+03 0.  0.
         22    1    5    5    0    0 -0.40683319015E+03  0.60172303643E+02  0.19562294832E+03  0.45541441418E+03  0.00000000000E+00 0.  1.
         22    1    5    5    0    0  0.31105601032E+03 -0.81215107833E+02  0.57781959896E+03  0.66123159652E+03  0.00000000000E+00 0.  1.
          5    1    4    4  502    0  0.32718265901E+02 -0.39720885775E+02  0.45396588378E+02  0.68783529473E+02  0.47000000000E+01 0. -1.
         -5    1    4    4    0  502  0.63058913936E+02  0.60763689965E+02 -0.24690076493E+02  0.91106215606E+02  0.47000000000E+01 0. -1.
<mgrwt>
<rscale>  0 0.99943524E+03</rscale>
<asrwt>0</asrwt>
<pdfrwt beam="1">  1        1 0.15928344E+00 0.99943524E+03</pdfrwt>
<pdfrwt beam="2">  1       -1 0.37106670E-01 0.99943524E+03</pdfrwt>
<totfact> 0.11072511E+02</totfact>
</mgrwt>
</event>
<event>
 9    1  0.4307774E-036  0.1000074E+04  0.7818608E-02  0.8680967E-01
          1   -1    0    0  501    0  0.00000000000E+00  0.00000000000E+00  0.17557007604E+03  0.17557007604E+03  0.00000000000E+00 0.  1.
         -1   -1    0    0    0  501 -0.00000000000E+00 -0.00000000000E+00 -0.14241440821E+04  0.14241440821E+04  0.00000000000E+00 0.  1.
         36    2    1    2    0    0  0.14210854715E-13 -0.37303493627E-13 -0.12485740061E+04  0.15997141581E+04  0.10000741668E+04 0.  0.
         25    2    3    3    0    0 -0.10866907894E+03 -0.63446971692E+01 -0.92912092988E+02  0.19010171325E+03  0.12512705726E+03 0.  0.
         35    2    3    3    0    0  0.10866907894E+03  0.63446971692E+01 -0.11556619131E+04  0.14096124449E+04  0.79975218883E+03 0.  0.
         22    1    5    5    0    0 -0.24659444643E+03  0.26928126700E+03 -0.51886620271E+03  0.63446304706E+03  0.00000000000E+00 0. -1.
         22    1    5    5    0    0  0.35526352537E+03 -0.26293656983E+03 -0.63679571036E+03  0.77514939782E+03  0.00000000000E+00 0. -1.
          5    1    4    4  502    0 -0.47747929705E+02  0.68495111275E+01  0.26558887003E+02  0.55265224804E+02  0.47000000000E+01 0. -1.
         -5    1    4    4    0  502 -0.60921149231E+02 -0.13194208297E+02 -0.11947097999E+03  0.13483648844E+03  0.47000000000E+01 0. -1.
<mgrwt>
<rscale>  0 0.10000742E+04</rscale>
<asrwt>0</asrwt>
<pdfrwt beam="1">  1        1 0.27010780E-01 0.10000742E+04</pdfrwt>
<pdfrwt beam="2">  1       -1 0.21909910E+00 0.10000742E+04</pdfrwt>
<totfact> 0.18822343E+01</totfact>
</mgrwt>
</event>
<event>
 9    1  0.4307774E-036  0.1000362E+04  0.7818608E-02  0.8680693E-01
          2   -1    0    0  501    0  0.00000000000E+00  0.00000000000E+00  0.94659937445E+03  0.94659937445E+03  0.00000000000E+00 0. -1.
         -2   -1    0    0    0  501 -0.00000000000E+00 -0.00000000000E+00 -0.26429459290E+03  0.26429459290E+03  0.00000000000E+00 0. -1.
         36    2    1    2    0    0  0.00000000000E+00  0.14210854715E-13  0.68230478155E+03  0.12108939673E+04  0.10003621271E+04 0.  0.
         25    2    3    3    0    0 -0.17856677041E+02  0.76671176737E+02 -0.11587855058E+02  0.14885706477E+03  0.12580467833E+03 0.  0.
         35    2    3    3    0    0  0.17856677041E+02 -0.76671176737E+02  0.69389263660E+03  0.10620369026E+04  0.80014877432E+03 0.  0.
         22    1    5    5    0    0 -0.99420330079E+02 -0.42233772046E+03  0.43603060482E+03  0.61512294746E+03  0.00000000000E+00 0. -1.
         22    1    5    5    0    0  0.11727700712E+03  0.34566654372E+03  0.25786203178E+03  0.44691395512E+03  0.00000000000E+00 0. -1.
          5    1    4    4  502    0 -0.14605752582E+02  0.67516541616E+02 -0.64637912766E+02  0.94720436902E+02  0.47000000000E+01 0.  1.
         -5    1    4    4    0  502 -0.32509244583E+01  0.91546351213E+01  0.53050057708E+02  0.54136627867E+02  0.47000000000E+01 0.  1.
<mgrwt>
<rscale>  0 0.10003621E+04</rscale>
<asrwt>0</asrwt>
<pdfrwt beam="1">  1        2 0.14563067E+00 0.10003621E+04</pdfrwt>
<pdfrwt beam="2">  1       -2 0.40660707E-01 0.10003621E+04</pdfrwt>
<totfact> 0.18901563E+02</totfact>
</mgrwt>
</event>
<event>
 9    1  0.4307774E-036  0.9994313E+03  0.7818608E-02  0.8681580E-01
         -2   -1    0    0    0  501 -0.00000000000E+00  0.00000000000E+00  0.25222774436E+03  0.25222774436E+03  0.00000000000E+00 0.  1.
          2   -1    0    0  501    0  0.00000000000E+00 -0.00000000000E+00 -0.99004059601E+03  0.99004059601E+03  0.00000000000E+00 0.  1.
         36    2    1    2    0    0  0.28421709430E-13  0.71054273576E-14 -0.73781285165E+03  0.12422683404E+04  0.99943125098E+03 0.  0.
         25    2    3    3    0    0 -0.11361019807E+03  0.35920095095E+02 -0.46449901273E+02  0.17848111566E+03  0.12450054209E+03 0.  0.
         35    2    3    3    0    0  0.11361019807E+03 -0.35920095095E+02 -0.69136295037E+03  0.10637872247E+04  0.79966430455E+03 0.  0.
         22    1    5    5    0    0  0.34293181026E+03  0.65682162405E+02 -0.23013539389E+02  0.34992284284E+03  0.00000000000E+00 0.  1.
         22    1    5    5    0    0 -0.22932161219E+03 -0.10160225750E+03 -0.66834941098E+03  0.71386438187E+03  0.00000000000E+00 0.  1.
          5    1    4    4  502    0  0.14591425695E+02  0.20737052193E+02  0.20533741788E+02  0.32964520158E+02  0.47000000000E+01 0.  1.
         -5    1    4    4    0  502 -0.12820162376E+03  0.15183042902E+02 -0.66983643061E+02  0.14551659550E+03  0.47000000000E+01 0.  1.
<mgrwt>
<rscale>  0 0.99943125E+03</rscale>
<asrwt>0</asrwt>
<pdfrwt beam="1">  1        2 0.15231394E+00 0.99943125E+03</pdfrwt>
<pdfrwt beam="2">  1       -2 0.38804268E-01 0.99943125E+03</pdfrwt>
<totfact> 0.19392395E+02</totfact>
</mgrwt>
</event>
<event>
 9    1  0.4307774E-036  0.9999253E+03  0.7818608E-02  0.8681109E-01
         -1   -1    0    0    0  501 -0.00000000000E+00  0.00000000000E+00  0.14016986455E+03  0.14016986455E+03  0.00000000000E+00 0. -1.
          1   -1    0    0  501    0  0.00000000000E+00 -0.00000000000E+00 -0.17832836645E+04  0.17832836645E+04  0.00000000000E+00 0. -1.
         36    2    1    2    0    0  0.00000000000E+00  0.71054273576E-14 -0.16431137999E+04  0.19234535290E+04  0.99992525662E+03 0.  0.
         25    2    3    3    0    0  0.61636650563E+02 -0.13287942865E+02 -0.55163794376E+03  0.56918634483E+03  0.12527181656E+03 0.  0.
         35    2    3    3    0    0 -0.61636650563E+02  0.13287942865E+02 -0.10914758562E+04  0.13542671842E+04  0.79921487442E+03 0.  0.
         22    1    5    5    0    0 -0.15102276675E+03  0.36941672901E+03 -0.36759326182E+03  0.54258769051E+03  0.00000000000E+00 0. -1.
         22    1    5    5    0    0  0.89386116184E+02 -0.35612878615E+03 -0.72388259433E+03  0.81167949369E+03  0.00000000000E+00 0. -1.
          5    1    4    4  502    0 -0.23852196572E+02 -0.40347163666E+02 -0.25274737601E+03  0.25709948849E+03  0.47000000000E+01 0.  1.
         -5    1    4    4    0  502  0.85488847135E+02  0.27059220801E+02 -0.29889056775E+03  0.31208685635E+03  0.47000000000E+01 0.  1.
<mgrwt>
<rscale>  0 0.99992526E+03</rscale>
<asrwt>0</asrwt>
<pdfrwt beam="1">  1        1 0.27435131E+00 0.99992526E+03</pdfrwt>
<pdfrwt beam="2">  1       -1 0.21564597E-01 0.99992526E+03</pdfrwt>
<totfact> 0.79782852E+01</totfact>
</mgrwt>
</event>
<event>
 9    1  0.4307774E-036  0.9994438E+03  0.7818608E-02  0.8681568E-01
          2   -1    0    0  501    0  0.00000000000E+00  0.00000000000E+00  0.77828004248E+03  0.77828004248E+03  0.00000000000E+00 0.  1.
         -2   -1    0    0    0  501 -0.00000000000E+00 -0.00000000000E+00 -0.32086388797E+03  0.32086388797E+03  0.00000000000E+00 0.  1.
         36    2    1    2    0    0  0.00000000000E+00  0.00000000000E+00  0.45741615451E+03  0.10991439305E+04  0.99944376603E+03 0.  0.
         25    2    3    3    0    0  0.35645659227E+02 -0.14130953752E+02  0.23329698862E+03  0.26755582616E+03  0.12525309712E+03 0.  0.
         35    2    3    3    0    0 -0.35645659227E+02  0.14130953752E+02  0.22411916589E+03  0.83158810430E+03  0.79989941731E+03 0.  0.
         22    1    5    5    0    0 -0.71316223319E+02  0.32659670185E+01 -0.29886645543E+03  0.30727484184E+03  0.00000000000E+00 0.  1.
         22    1    5    5    0    0  0.35670564093E+02  0.10864986734E+02  0.52298562132E+03  0.52431326246E+03  0.00000000000E+00 0.  1.
          5    1    4    4  502    0  0.13375473412E+02 -0.54791064446E+02  0.41502432930E+02  0.70181949041E+02  0.47000000000E+01 0.  1.
         -5    1    4    4    0  502  0.22270185815E+02  0.40660110693E+02  0.19179455569E+03  0.19737387712E+03  0.47000000000E+01 0.  1.
<mgrwt>
<rscale>  0 0.99944377E+03</rscale>
<asrwt>0</asrwt>
<pdfrwt beam="1">  1        2 0.11973539E+00 0.99944377E+03</pdfrwt>
<pdfrwt beam="2">  1       -2 0.49363675E-01 0.99944377E+03</pdfrwt>
<totfact> 0.16796689E+02</totfact>
</mgrwt>
</event>
<event>
 9    1  0.4307774E-036  0.1000906E+04  0.7818608E-02  0.8680176E-01
          1   -1    0    0  501    0  0.00000000000E+00  0.00000000000E+00  0.15877170634E+04  0.15877170634E+04  0.00000000000E+00 0.  1.
         -1   -1    0    0    0  501 -0.00000000000E+00 -0.00000000000E+00 -0.15774427304E+03  0.15774427304E+03  0.00000000000E+00 0.  1.
         36    2    1    2    0    0  0.71054273576E-14  0.56843418861E-13  0.14299727904E+04  0.17454613365E+04  0.10009061374E+04 0.  0.
         25    2    3    3    0    0  0.18325621355E+02 -0.13336361576E+03  0.33675499977E+03  0.38359635295E+03  0.12498219761E+03 0.  0.
         35    2    3    3    0    0 -0.18325621355E+02  0.13336361576E+03  0.10932177906E+04  0.13618649835E+04  0.80089288496E+03 0.  0.
         22    1    5    5    0    0 -0.17464238060E+03 -0.30190334888E+03  0.50127501413E+03  0.61067358954E+03  0.00000000000E+00 0. -1.
         22    1    5    5    0    0  0.15631675925E+03  0.43526696465E+03  0.59194277648E+03  0.75119139396E+03  0.00000000000E+00 0. -1.
          5    1    4    4  502    0 -0.10151553020E+02 -0.14920736245E+03  0.25821518167E+03  0.29843434970E+03  0.47000000000E+01 0. -1.
         -5    1    4    4    0  502  0.28477174375E+02  0.15843746692E+02  0.78539818105E+02  0.85162003250E+02  0.47000000000E+01 0. -1.
<mgrwt>
<rscale>  0 0.10009061E+04</rscale>
<asrwt>0</asrwt>
<pdfrwt beam="1">  1        1 0.24426415E+00 0.10009061E+04</pdfrwt>
<pdfrwt beam="2">  1       -1 0.24268351E-01 0.10009061E+04</pdfrwt>
<totfact> 0.89991176E+01</totfact>
</mgrwt>
</event>
<event>
 9    1  0.4307774E-036  0.1000648E+04  0.7818608E-02  0.8680421E-01
          2   -1    0    0  501    0  0.00000000000E+00  0.00000000000E+00  0.10849927873E+04  0.10849927873E+04  0.00000000000E+00 0.  1.
         -2   -1    0    0    0  501 -0.00000000000E+00 -0.00000000000E+00 -0.23071518403E+03  0.23071518403E+03  0.00000000000E+00 0.  1.
         36    2    1    2    0    0  0.00000000000E+00  0.14210854715E-13  0.85427760332E+03  0.13157079714E+04  0.10006484110E+04 0.  0.
         25    2    3    3    0    0 -0.50595050072E+02 -0.85871993425E+02  0.28728793539E+02  0.16226222423E+03  0.12477911479E+03 0.  0.
         35    2    3    3    0    0  0.50595050072E+02  0.85871993425E+02  0.82554880978E+03  0.11534457471E+04  0.79935748943E+03 0.  0.
         22    1    5    5    0    0 -0.25064616343E+02  0.31273887967E+03  0.21379317335E+02  0.31446926250E+03  0.00000000000E+00 0.  1.
         22    1    5    5    0    0  0.75659666415E+02 -0.22686688624E+03  0.80416949244E+03  0.83897648464E+03  0.00000000000E+00 0.  1.
          5    1    4    4  502    0 -0.19240903052E+01  0.31641754447E+02  0.13811010471E+01  0.32076474059E+02  0.47000000000E+01 0.  1.
         -5    1    4    4    0  502 -0.48670959767E+02 -0.11751374787E+03  0.27347692492E+02  0.13018575017E+03  0.47000000000E+01 0.  1.
<mgrwt>
<rscale>  0 0.10006484E+04</rscale>
<asrwt>0</asrwt>
<pdfrwt beam="1">  1        2 0.16692196E+00 0.10006484E+04</pdfrwt>
<pdfrwt beam="2">  1       -2 0.35494644E-01 0.10006484E+04</pdfrwt>
<totfact> 0.20036847E+02</totfact>
</mgrwt>
</event>
<event>
 9    1  0.4307774E-036  0.1000851E+04  0.7818608E-02  0.8680228E-01
         -2   -1    0    0    0  501 -0.00000000000E+00  0.00000000000E+00  0.40043886182E+03  0.40043886182E+03  0.00000000000E+00 0. -1.
          2   -1    0    0  501    0  0.00000000000E+00 -0.00000000000E+00 -0.62537824488E+03  0.62537824488E+03  0.00000000000E+00 0. -1.
         36    2    1    2    0    0 -0.42632564146E-13 -0.88817841970E-14 -0.22493938306E+03  0.10258171067E+04  0.10008511430E+04 0.  0.
         25    2    3    3    0    0  0.76541354912E+02 -0.66976982154E+01  0.79573767464E+02  0.16662268938E+03  0.12461018408E+03 0.  0.
         35    2    3    3    0    0 -0.76541354912E+02  0.66976982154E+01 -0.30451315053E+03  0.85919441732E+03  0.79973955119E+03 0.  0.
         22    1    5    5    0    0 -0.33286015801E+03 -0.24606530336E+03 -0.47021603458E+02  0.41659938730E+03  0.00000000000E+00 0. -1.
         22    1    5    5    0    0  0.25631880310E+03  0.25276300158E+03 -0.25749154707E+03  0.44259503002E+03  0.00000000000E+00 0. -1.
          5    1    4    4  502    0  0.12544402784E+00 -0.14229400121E+02  0.87968747930E+02  0.89236103548E+02  0.47000000000E+01 0. -1.
         -5    1    4    4    0  502  0.76415910885E+02  0.75317019059E+01 -0.83949804668E+01  0.77386585834E+02  0.47000000000E+01 0. -1.
<mgrwt>
<rscale>  0 0.10008511E+04</rscale>
<asrwt>0</asrwt>
<pdfrwt beam="1">  1        2 0.96212037E-01 0.10008511E+04</pdfrwt>
<pdfrwt beam="2">  1       -2 0.61605979E-01 0.10008511E+04</pdfrwt>
<totfact> 0.13971230E+02</totfact>
</mgrwt>
</event>
<event>
 9    1  0.4307774E-036  0.1001121E+04  0.7818608E-02  0.8679971E-01
         -2   -1    0    0    0  501 -0.00000000000E+00  0.00000000000E+00  0.10582901895E+03  0.10582901895E+03  0.00000000000E+00 0.  1.
          2   -1    0    0  501    0  0.00000000000E+00 -0.00000000000E+00 -0.23676003205E+04  0.23676003205E+04  0.00000000000E+00 0.  1.
         36    2    1    2    0    0 -0.14210854715E-13  0.00000000000E+00 -0.22617713016E+04  0.24734293395E+04  0.10011210101E+04 0.  0.
         25    2    3    3    0    0 -0.76125848637E+02 -0.25577591921E+02 -0.70656854587E+03  0.72270632985E+03  0.12890295246E+03 0.  0.
         35    2    3    3    0    0  0.76125848637E+02  0.25577591921E+02 -0.15552027557E+04  0.17507230096E+04  0.79995380307E+03 0.  0.
         22    1    5    5    0    0  0.36419425821E+03  0.23794782858E+03 -0.99515368950E+03  0.10860881606E+04  0.00000000000E+00 0.  1.
         22    1    5    5    0    0 -0.28806840957E+03 -0.21237023665E+03 -0.56004906619E+03  0.66463484903E+03  0.00000000000E+00 0.  1.
          5    1    4    4  502    0 -0.75626253169E+02  0.36741994529E+02 -0.30960673567E+03  0.32085467911E+03  0.47000000000E+01 0. -1.
         -5    1    4    4    0  502 -0.49959546824E+00 -0.62319586450E+02 -0.39696181020E+03  0.40185165074E+03  0.47000000000E+01 0. -1.
<mgrwt>
<rscale>  0 0.10011210E+04</rscale>
<asrwt>0</asrwt>
<pdfrwt beam="1">  1        2 0.36424617E+00 0.10011210E+04</pdfrwt>
<pdfrwt beam="2">  1       -2 0.16281389E-01 0.10011210E+04</pdfrwt>
<totfact> 0.14573023E+02</totfact>
</mgrwt>
</event>
<event>
 9    1  0.4307774E-036  0.9999263E+03  0.7818608E-02  0.8681108E-01
          2   -1    0    0  501    0  0.00000000000E+00  0.00000000000E+00  0.13793179596E+04  0.13793179596E+04  0.00000000000E+00 0.  1.
         -2   -1    0    0    0  501 -0.00000000000E+00 -0.00000000000E+00 -0.18122226946E+03  0.18122226946E+03  0.00000000000E+00 0.  1.
         36    2    1    2    0    0  0.71054273576E-14  0.00000000000E+00  0.11980956901E+04  0.15605402290E+04  0.99992625914E+03 0.  0.
         25    2    3    3    0    0  0.97901104971E+01 -0.76975381670E+02  0.42383751534E+02  0.15309410432E+03  0.12498146557E+03 0.  0.
         35    2    3    3    0    0 -0.97901104971E+01  0.76975381670E+02  0.11557119386E+04  0.14074461247E+04  0.79950825719E+03 0.  0.
         22    1    5    5    0    0  0.19994830825E+03 -0.61393296354E+02 -0.15356567394E+02  0.20972431183E+03  0.00000000000E+00 0.  1.
         22    1    5    5    0    0 -0.20973841875E+03  0.13836867802E+03  0.11710685060E+04  0.11977218129E+04  0.00000000000E+00 0.  1.
          5    1    4    4  502    0 -0.30186238251E+02 -0.74850807120E+02  0.67740666242E+02  0.10547388383E+03  0.47000000000E+01 0.  1.
         -5    1    4    4    0  502  0.39976348749E+02 -0.21245745501E+01 -0.25356914708E+02  0.47620220493E+02  0.47000000000E+01 0.  1.
<mgrwt>
<rscale>  0 0.99992626E+03</rscale>
<asrwt>0</asrwt>
<pdfrwt beam="1">  1        2 0.21220276E+00 0.99992626E+03</pdfrwt>
<pdfrwt beam="2">  1       -2 0.27880350E-01 0.99992626E+03</pdfrwt>
<totfact> 0.20948869E+02</totfact>
</mgrwt>
</event>
<event>
 9    1  0.4307774E-036  0.1000321E+04  0.7818608E-02  0.8680732E-01
         -2   -1    0    0    0  501 -0.00000000000E+00  0.00000000000E+00  0.44114454137E+03  0.44114454137E+03  0.00000000000E+00 0. -1.
          2   -1    0    0  501    0  0.00000000000E+00 -0.00000000000E+00 -0.56707166235E+03  0.56707166235E+03  0.00000000000E+00 0. -1.
         36    2    1    2    0    0  0.14210854715E-13 -0.71054273576E-14 -0.12592712098E+03  0.10082162037E+04  0.10003210853E+04 0.  0.
         25    2    3    3    0    0  0.96388667137E+02  0.45712347290E+02 -0.11552258424E+03  0.20084291666E+03  0.12494805263E+03 0.  0.
         35    2    3    3    0    0 -0.96388667137E+02 -0.45712347290E+02 -0.10404536736E+02  0.80737328706E+03  0.80022682811E+03 0.  0.
         22    1    5    5    0    0 -0.28294042075E+03 -0.34349420172E+03 -0.71447126265E+02  0.45071969134E+03  0.00000000000E+00 0. -1.
         22    1    5    5    0    0  0.18655175361E+03  0.29778185443E+03  0.61042589529E+02  0.35665359572E+03  0.00000000000E+00 0. -1.
          5    1    4    4  502    0  0.74342493083E+02  0.80929713297E+02 -0.44971336394E+02  0.11883154408E+03  0.47000000000E+01 0. -1.
         -5    1    4    4    0  502  0.22046174054E+02 -0.35217366007E+02 -0.70551247850E+02  0.82011372578E+02  0.47000000000E+01 0. -1.
<mgrwt>
<rscale>  0 0.10003211E+04</rscale>
<asrwt>0</asrwt>
<pdfrwt beam="1">  1        2 0.87241795E-01 0.10003211E+04</pdfrwt>
<pdfrwt beam="2">  1       -2 0.67868390E-01 0.10003211E+04</pdfrwt>
<totfact> 0.12769868E+02</totfact>
</mgrwt>
</event>
<event>
 9    1  0.4307774E-036  0.1001125E+04  0.7818608E-02  0.8679967E-01
          1   -1    0    0  501    0  0.00000000000E+00  0.00000000000E+00  0.14723675935E+04  0.14723675935E+04  0.00000000000E+00 0.  1.
         -1   -1    0    0    0  501 -0.00000000000E+00 -0.00000000000E+00 -0.17017694819E+03  0.17017694819E+03  0.00000000000E+00 0.  1.
         36    2    1    2    0    0 -0.28421709430E-13  0.24868995752E-13  0.13021906453E+04  0.16425445417E+04  0.10011254141E+04 0.  0.
         25    2    3    3    0    0 -0.12041097011E+03  0.36354117388E+01  0.37010335863E+03  0.40858584192E+03  0.12431362036E+03 0.  0.
         35    2    3    3    0    0  0.12041097011E+03 -0.36354117388E+01  0.93208728671E+03  0.12339586998E+04  0.79959698902E+03 0.  0.
         22    1    5    5    0    0 -0.10835094020E+03 -0.36029472114E+03  0.52890634494E+03  0.64907174800E+03  0.00000000000E+00 0. -1.
         22    1    5    5    0    0  0.22876191031E+03  0.35665930940E+03  0.40318094177E+03  0.58488695181E+03  0.00000000000E+00 0. -1.
          5    1    4    4  502    0 -0.13934257740E+03 -0.21718178967E+02  0.29964729968E+03  0.33120783110E+03  0.47000000000E+01 0.  1.
         -5    1    4    4    0  502  0.18931607290E+02  0.25353590706E+02  0.70456058945E+02  0.77378010819E+02  0.47000000000E+01 0.  1.
<mgrwt>
<rscale>  0 0.10011254E+04</rscale>
<asrwt>0</asrwt>
<pdfrwt beam="1">  1        1 0.22651808E+00 0.10011254E+04</pdfrwt>
<pdfrwt beam="2">  1       -1 0.26181070E-01 0.10011254E+04</pdfrwt>
<totfact> 0.95675649E+01</totfact>
</mgrwt>
</event>
<event>
 9    1  0.4307774E-036  0.1000292E+04  0.7818608E-02  0.8680760E-01
         -2   -1    0    0    0  501 -0.00000000000E+00  0.00000000000E+00  0.16715504613E+03  0.16715504613E+03  0.00000000000E+00 0. -1.
          2   -1    0    0  501    0  0.00000000000E+00 -0.00000000000E+00 -0.14964913473E+04  0.14964913473E+04  0.00000000000E+00 0. -1.
         36    2    1    2    0    0  0.00000000000E+00  0.00000000000E+00 -0.13293363012E+04  0.16636463935E+04  0.10002921177E+04 0.  0.
         25    2    3    3    0    0 -0.45888734229E+02  0.13060003468E+03 -0.35822798715E+03  0.40386480747E+03  0.12496938404E+03 0.  0.
         35    2    3    3    0    0  0.45888734229E+02 -0.13060003468E+03 -0.97110831405E+03  0.12597815860E+04  0.79046577523E+03 0.  0.
         22    1    5    5    0    0 -0.34866869990E+03 -0.95414913374E-01 -0.25552873674E+03  0.43227862160E+03  0.00000000000E+00 0.  1.
         22    1    5    5    0    0  0.39455743413E+03 -0.13050461977E+03 -0.71557957732E+03  0.82750296440E+03  0.00000000000E+00 0.  1.
          5    1    4    4  502    0  0.37878796314E+02  0.77129882265E+02 -0.14602289589E+03  0.16949512699E+03  0.47000000000E+01 0. -1.
         -5    1    4    4    0  502 -0.83767530544E+02  0.53470152415E+02 -0.21220509126E+03  0.23436968049E+03  0.47000000000E+01 0. -1.
<mgrwt>
<rscale>  0 0.10002921E+04</rscale>
<asrwt>0</asrwt>
<pdfrwt beam="1">  1        2 0.23022943E+00 0.10002921E+04</pdfrwt>
<pdfrwt beam="2">  1       -2 0.25716162E-01 0.10002921E+04</pdfrwt>
<totfact> 0.20764697E+02</totfact>
</mgrwt>
</event>
<event>
 9    1  0.4307774E-036  0.1006153E+04  0.7818608E-02  0.8675201E-01
          3   -1    0    0  501    0  0.00000000000E+00  0.00000000000E+00  0.43026334999E+03  0.43026334999E+03  0.00000000000E+00 0.  1.
         -3   -1    0    0    0  501 -0.00000000000E+00 -0.00000000000E+00 -0.58821151221E+03  0.58821151221E+03  0.00000000000E+00 0.  1.
         36    2    1    2    0    0  0.14210854715E-13 -0.14210854715E-13 -0.15794816222E+03  0.10184748622E+04  0.10061527831E+04 0.  0.
         25    2    3    3    0    0  0.93974882416E+02 -0.10154006126E+03 -0.79818742926E+02  0.20288427735E+03  0.12509730496E+03 0.  0.
         35    2    3    3    0    0 -0.93974882416E+02  0.10154006126E+03 -0.78129419292E+02  0.81559058485E+03  0.79996383254E+03 0.  0.
         22    1    5    5    0    0  0.13947455892E+02  0.44203633464E+03  0.27495753707E+02  0.44311022233E+03  0.00000000000E+00 0. -1.
         22    1    5    5    0    0 -0.10792233831E+03 -0.34049627338E+03 -0.10562517300E+03  0.37248036252E+03  0.00000000000E+00 0. -1.
          5    1    4    4  502    0  0.54574703954E+02 -0.46758860577E+02  0.26610302745E+02  0.76778822381E+02  0.47000000000E+01 0.  1.
         -5    1    4    4    0  502  0.39400178462E+02 -0.54781200682E+02 -0.10642904567E+03  0.12610545497E+03  0.47000000000E+01 0.  1.
<mgrwt>
<rscale>  0 0.10061528E+04</rscale>
<asrwt>0</asrwt>
<pdfrwt beam="1">  1        3 0.66194362E-01 0.10061528E+04</pdfrwt>
<pdfrwt beam="2">  1       -3 0.90494079E-01 0.10061528E+04</pdfrwt>
<totfact> 0.92226574E+00</totfact>
</mgrwt>
</event>
<event>
 9    1  0.4307774E-036  0.9990395E+03  0.7818608E-02  0.8681953E-01
          2   -1    0    0  501    0  0.00000000000E+00  0.00000000000E+00  0.44458035175E+03  0.44458035175E+03  0.00000000000E+00 0.  1.
         -2   -1    0    0    0  501 -0.00000000000E+00 -0.00000000000E+00 -0.56124828477E+03  0.56124828477E+03  0.00000000000E+00 0.  1.
         36    2    1    2    0    0  0.10658141036E-13  0.00000000000E+00 -0.11666793302E+03  0.10058286365E+04  0.99903945841E+03 0.  0.
         25    2    3    3    0    0  0.19322166938E+02  0.13477148391E+03  0.57130683742E+01  0.18502184272E+03  0.12515488054E+03 0.  0.
         35    2    3    3    0    0 -0.19322166938E+02 -0.13477148391E+03 -0.12238100140E+03  0.82080679381E+03  0.80013122939E+03 0.  0.
         22    1    5    5    0    0  0.28150112343E+03  0.76526389874E+02  0.18174124097E+03  0.34369906824E+03  0.00000000000E+00 0. -1.
         22    1    5    5    0    0 -0.30082329036E+03 -0.21129787378E+03 -0.30412224237E+03  0.47710772557E+03  0.00000000000E+00 0. -1.
          5    1    4    4  502    0  0.45069142798E+02  0.13905158910E+03  0.29733554409E+02  0.14924056527E+03  0.47000000000E+01 0.  1.
         -5    1    4    4    0  502 -0.25746975859E+02 -0.42801051976E+01 -0.24020486035E+02  0.35781277447E+02  0.47000000000E+01 0.  1.
<mgrwt>
<rscale>  0 0.99903946E+03</rscale>
<asrwt>0</asrwt>
<pdfrwt beam="1">  1        2 0.68396977E-01 0.99903946E+03</pdfrwt>
<pdfrwt beam="2">  1       -2 0.86345890E-01 0.99903946E+03</pdfrwt>
<totfact> 0.98212192E+01</totfact>
</mgrwt>
</event>
<event>
 9    1  0.4307774E-036  0.1000927E+04  0.7818608E-02  0.8680156E-01
         -3   -1    0    0    0  501 -0.00000000000E+00  0.00000000000E+00  0.73994529270E+03  0.73994529270E+03  0.00000000000E+00 0.  1.
          3   -1    0    0  501    0  0.00000000000E+00 -0.00000000000E+00 -0.33848942094E+03  0.33848942094E+03  0.00000000000E+00 0.  1.
         36    2    1    2    0    0  0.00000000000E+00  0.14210854715E-13  0.40145587176E+03  0.10784347136E+04  0.10009268778E+04 0.  0.
         25    2    3    3    0    0 -0.88913229927E+02 -0.94743766666E+02  0.10308831756E+02  0.18089921711E+03  0.12544445369E+03 0.  0.
         35    2    3    3    0    0  0.88913229927E+02  0.94743766666E+02  0.39114704000E+03  0.89753549653E+03  0.79730296428E+03 0.  0.
         22    1    5    5    0    0  0.91007096107E+02  0.25532677633E+03 -0.16590029642E+03  0.31780019290E+03  0.00000000000E+00 0. -1.
         22    1    5    5    0    0 -0.20938661802E+01 -0.16058300967E+03  0.55704733642E+03  0.57973530363E+03  0.00000000000E+00 0. -1.
          5    1    4    4  502    0 -0.17194951717E+02 -0.66187285795E+02 -0.48307899989E+02  0.83858013134E+02  0.47000000000E+01 0. -1.
         -5    1    4    4    0  502 -0.71718278210E+02 -0.28556480870E+02  0.58616731745E+02  0.97041203978E+02  0.47000000000E+01 0. -1.
<mgrwt>
<rscale>  0 0.10009269E+04</rscale>
<asrwt>0</asrwt>
<pdfrwt beam="1">  1        3 0.52075296E-01 0.10009269E+04</pdfrwt>
<pdfrwt beam="2">  1       -3 0.11383774E+00 0.10009269E+04</pdfrwt>
<totfact> 0.83693655E+00</totfact>
</mgrwt>
</event>
<event>
 9    1  0.4307774E-036  0.9992831E+03  0.7818608E-02  0.8681721E-01
         -2   -1    0    0    0  501 -0.00000000000E+00  0.00000000000E+00  0.21411280479E+03  0.21411280479E+03  0.00000000000E+00 0. -1.
          2   -1    0    0  501    0  0.00000000000E+00 -0.00000000000E+00 -0.11659353274E+04  0.11659353274E+04  0.00000000000E+00 0. -1.
         36    2    1    2    0    0  0.00000000000E+00  0.00000000000E+00 -0.95182252265E+03  0.13800481322E+04  0.99928310936E+03 0.  0.
         25    2    3    3    0    0  0.71641738615E+02 -0.50894230830E+02 -0.32756070737E+03  0.36155559823E+03  0.12531429349E+03 0.  0.
         35    2    3    3    0    0 -0.71641738615E+02  0.50894230830E+02 -0.62426181527E+03  0.10184925340E+04  0.79993841410E+03 0.  0.
         22    1    5    5    0    0 -0.35174950627E+03  0.17224374840E+03 -0.87983492184E+02  0.40141838389E+03  0.00000000000E+00 0. -1.
         22    1    5    5    0    0  0.28010776766E+03 -0.12134951757E+03 -0.53627832309E+03  0.61707415011E+03  0.00000000000E+00 0. -1.
          5    1    4    4  502    0  0.10218800896E+03 -0.43838732441E+02 -0.29841346956E+03  0.31849162069E+03  0.47000000000E+01 0. -1.
         -5    1    4    4    0  502 -0.30546270341E+02 -0.70554983894E+01 -0.29147237815E+02  0.43063977539E+02  0.47000000000E+01 0. -1.
<mgrwt>
<rscale>  0 0.99928311E+03</rscale>
<asrwt>0</asrwt>
<pdfrwt beam="1">  1        2 0.17937466E+00 0.99928311E+03</pdfrwt>
<pdfrwt beam="2">  1       -2 0.32940432E-01 0.99928311E+03</pdfrwt>
<totfact> 0.20577618E+02</totfact>
</mgrwt>
</event>
<event>
 9    1  0.4307774E-036  0.1000769E+04  0.7818608E-02  0.8680306E-01
         -1   -1    0    0    0  501 -0.00000000000E+00  0.00000000000E+00  0.31791685315E+03  0.31791685315E+03  0.00000000000E+00 0. -1.
          1   -1    0    0  501    0  0.00000000000E+00 -0.00000000000E+00 -0.78757838726E+03  0.78757838726E+03  0.00000000000E+00 0. -1.
         36    2    1    2    0    0  0.00000000000E+00 -0.28421709430E-13 -0.46966153412E+03  0.11054952404E+04  0.10007685896E+04 0.  0.
         25    2    3    3    0    0 -0.12493706430E+03 -0.66356128014E+02 -0.71241620770E+02  0.20159514119E+03  0.12471097250E+03 0.  0.
         35    2    3    3    0    0  0.12493706430E+03  0.66356128014E+02 -0.39841991335E+03  0.90390009922E+03  0.79892712825E+03 0.  0.
         22    1    5    5    0    0  0.30965406276E+03 -0.28015328488E+03 -0.18172116563E+03  0.45540540582E+03  0.00000000000E+00 0.  1.
         22    1    5    5    0    0 -0.18471699846E+03  0.34650941289E+03 -0.21669874772E+03  0.44849469340E+03  0.00000000000E+00 0.  1.
          5    1    4    4  502    0 -0.14812955614E+03 -0.41097504144E+02 -0.54710529555E+02  0.16323817658E+03  0.47000000000E+01 0. -1.
         -5    1    4    4    0  502  0.23192491840E+02 -0.25258623870E+02 -0.16531091215E+02  0.38356964612E+02  0.47000000000E+01 0. -1.
<mgrwt>
<rscale>  0 0.10007686E+04</rscale>
<asrwt>0</asrwt>
<pdfrwt beam="1">  1        1 0.12116590E+00 0.10007686E+04</pdfrwt>
<pdfrwt beam="2">  1       -1 0.48910286E-01 0.10007686E+04</pdfrwt>
<totfact> 0.10820218E+02</totfact>
</mgrwt>
</event>
<event>
 9    1  0.4307774E-036  0.1006752E+04  0.7818608E-02  0.8674634E-01
         -1   -1    0    0    0  501 -0.00000000000E+00  0.00000000000E+00  0.23648695861E+03  0.23648695861E+03  0.00000000000E+00 0.  1.
          1   -1    0    0  501    0  0.00000000000E+00 -0.00000000000E+00 -0.10714655004E+04  0.10714655004E+04  0.00000000000E+00 0.  1.
         36    2    1    2    0    0 -0.71054273576E-14  0.28421709430E-13 -0.83497854181E+03  0.13079524590E+04  0.10067524372E+04 0.  0.
         25    2    3    3    0    0 -0.61299258130E+02  0.49162465661E+02 -0.31869240771E+03  0.35179860002E+03  0.12658142505E+03 0.  0.
         35    2    3    3    0    0  0.61299258130E+02 -0.49162465661E+02 -0.51628613410E+03  0.95615385901E+03  0.80093962492E+03 0.  0.
         22    1    5    5    0    0 -0.18069189422E+03  0.28806692140E+03 -0.70934476391E+02  0.34736696991E+03  0.00000000000E+00 0. -1.
         22    1    5    5    0    0  0.24199115235E+03 -0.33722938706E+03 -0.44535165771E+03  0.60878688910E+03  0.00000000000E+00 0. -1.
          5    1    4    4  502    0  0.22699013911E+02  0.41402342102E+02 -0.45120731646E+02  0.65478008433E+02  0.47000000000E+01 0. -1.
         -5    1    4    4    0  502 -0.83998272041E+02  0.77601235589E+01 -0.27357167607E+03  0.28632059159E+03  0.47000000000E+01 0. -1.
<mgrwt>
<rscale>  0 0.10067524E+04</rscale>
<asrwt>0</asrwt>
<pdfrwt beam="1">  1        1 0.16484085E+00 0.10067524E+04</pdfrwt>
<pdfrwt beam="2">  1       -1 0.36382609E-01 0.10067524E+04</pdfrwt>
<totfact> 0.10735898E+02</totfact>
</mgrwt>
</event>
<event>
 9    1  0.4307774E-036  0.9997958E+03  0.7818608E-02  0.8681232E-01
         -1   -1    0    0    0  501 -0.00000000000E+00  0.00000000000E+00  0.50430850935E+03  0.50430850935E+03  0.00000000000E+00 0.  1.
          1   -1    0    0  501    0  0.00000000000E+00 -0.00000000000E+00 -0.49552584924E+03  0.49552584924E+03  0.00000000000E+00 0.  1.
         36    2    1    2    0    0 -0.28421709430E-13  0.14210854715E-13  0.87826601168E+01  0.99983435859E+03  0.99979578390E+03 0.  0.
         25    2    3    3    0    0 -0.52796460179E+02 -0.97224817532E+02 -0.84726782538E+02  0.18720761383E+03  0.12501172602E+03 0.  0.
         35    2    3    3    0    0  0.52796460179E+02  0.97224817532E+02  0.93509442654E+02  0.81262674477E+03  0.79961120496E+03 0.  0.
         22    1    5    5    0    0  0.35803890311E+03 -0.10387352693E+03 -0.11710159353E+03  0.39076124289E+03  0.00000000000E+00 0. -1.
         22    1    5    5    0    0 -0.30524244293E+03  0.20109834446E+03  0.21061103618E+03  0.42186550188E+03  0.00000000000E+00 0. -1.
          5    1    4    4  502    0 -0.32879161775E+02  0.20337289587E+02  0.30599296595E+01  0.39065301692E+02  0.47000000000E+01 0. -1.
         -5    1    4    4    0  502 -0.19917298405E+02 -0.11756210712E+03 -0.87786712197E+02  0.14814231213E+03  0.47000000000E+01 0. -1.
<mgrwt>
<rscale>  0 0.99979578E+03</rscale>
<asrwt>0</asrwt>
<pdfrwt beam="1">  1        1 0.76234746E-01 0.99979578E+03</pdfrwt>
<pdfrwt beam="2">  1       -1 0.77585924E-01 0.99979578E+03</pdfrwt>
<totfact> 0.88228341E+01</totfact>
</mgrwt>
</event>
<event>
 9    1  0.4307774E-036  0.1000206E+04  0.7818608E-02  0.8680842E-01
          2   -1    0    0  501    0  0.00000000000E+00  0.00000000000E+00  0.10963464550E+04  0.10963464550E+04  0.00000000000E+00 0. -1.
         -2   -1    0    0    0  501 -0.00000000000E+00 -0.00000000000E+00 -0.22812416543E+03  0.22812416543E+03  0.00000000000E+00 0. -1.
         36    2    1    2    0    0  0.00000000000E+00  0.14210854715E-13  0.86822228960E+03  0.13244706205E+04  0.10002062189E+04 0.  0.
         25    2    3    3    0    0  0.91303366056E+02  0.68878990014E+02  0.27099928174E+03  0.31971669130E+03  0.12528979238E+03 0.  0.
         35    2    3    3    0    0 -0.91303366056E+02 -0.68878990014E+02  0.59722300786E+03  0.10047539292E+04  0.79985906079E+03 0.  0.
         22    1    5    5    0    0  0.13909218552E+03  0.82342841102E+02 -0.14242358609E+03  0.21543318553E+03  0.00000000000E+00 0.  1.
         22    1    5    5    0    0 -0.23039555157E+03 -0.15122183112E+03  0.73964659395E+03  0.78932074363E+03  0.00000000000E+00 0.  1.
          5    1    4    4  502    0  0.47176931433E+02  0.99526429476E+02  0.14104779719E+03  0.17901883732E+03  0.47000000000E+01 0.  1.
         -5    1    4    4    0  502  0.44126434622E+02 -0.30647439462E+02  0.12995148454E+03  0.14069785397E+03  0.47000000000E+01 0.  1.
<mgrwt>
<rscale>  0 0.10002062E+04</rscale>
<asrwt>0</asrwt>
<pdfrwt beam="1">  1        2 0.16866868E+00 0.10002062E+04</pdfrwt>
<pdfrwt beam="2">  1       -2 0.35096026E-01 0.10002062E+04</pdfrwt>
<totfact> 0.20141473E+02</totfact>
</mgrwt>
</event>
<event>
 9    1  0.4307774E-036  0.1008304E+04  0.7818608E-02  0.8673171E-01
          2   -1    0    0  501    0  0.00000000000E+00  0.00000000000E+00  0.37314423572E+03  0.37314423572E+03  0.00000000000E+00 0. -1.
         -2   -1    0    0    0  501 -0.00000000000E+00 -0.00000000000E+00 -0.68115486169E+03  0.68115486169E+03  0.00000000000E+00 0. -1.
         36    2    1    2    0    0 -0.21316282073E-13  0.28421709430E-13 -0.30801062597E+03  0.10542990974E+04  0.10083035461E+04 0.  0.
         25    2    3    3    0    0 -0.60480355067E+02 -0.11664766038E+03 -0.13270004385E+03  0.22523012045E+03  0.12591566820E+03 0.  0.
         35    2    3    3    0    0  0.60480355067E+02  0.11664766038E+03 -0.17531058212E+03  0.82906897697E+03  0.79959803548E+03 0.  0.
         22    1    5    5    0    0  0.34538002436E+03  0.22784690293E+03 -0.28691559115E+03  0.50350981008E+03  0.00000000000E+00 0.  1.
         22    1    5    5    0    0 -0.28489966929E+03 -0.11119924255E+03  0.11160500903E+03  0.32555916689E+03  0.00000000000E+00 0.  1.
          5    1    4    4  502    0 -0.38401748937E+02 -0.92366905287E+02 -0.15552705461E+03  0.18497863182E+03  0.47000000000E+01 0.  1.
         -5    1    4    4    0  502 -0.22078606130E+02 -0.24280755090E+02  0.22827010764E+02  0.40251488628E+02  0.47000000000E+01 0.  1.
<mgrwt>
<rscale>  0 0.10083035E+04</rscale>
<asrwt>0</asrwt>
<pdfrwt beam="1">  1        2 0.57406806E-01 0.10083035E+04</pdfrwt>
<pdfrwt beam="2">  1       -2 0.10479306E+00 0.10083035E+04</pdfrwt>
<totfact> 0.75144427E+01</totfact>
</mgrwt>
</event>
<event>
 9    1  0.4307774E-036  0.9997320E+03  0.7818608E-02  0.8681293E-01
          1   -1    0    0  501    0  0.00000000000E+00  0.00000000000E+00  0.18698146095E+04  0.18698146095E+04  0.00000000000E+00 0.  1.
         -1   -1    0    0    0  501 -0.00000000000E+00 -0.00000000000E+00 -0.13363145049E+03  0.13363145049E+03  0.00000000000E+00 0.  1.
         36    2    1    2    0    0  0.00000000000E+00 -0.14210854715E-13  0.17361831590E+04  0.20034460600E+04  0.99973204092E+03 0.  0.
         25    2    3    3    0    0 -0.10516024668E+03  0.73823624228E+02  0.21537815188E+03  0.28027823652E+03  0.12513807008E+03 0.  0.
         35    2    3    3    0    0  0.10516024668E+03 -0.73823624228E+02  0.15208050071E+04  0.17231678234E+04  0.79996929513E+03 0.  0.
         22    1    5    5    0    0  0.23324096973E+03 -0.17999775174E+03  0.15284892616E+04  0.15566245416E+04  0.00000000000E+00 0. -1.
         22    1    5    5    0    0 -0.12808072305E+03  0.10617412751E+03 -0.76842544997E+01  0.16654328187E+03  0.00000000000E+00 0. -1.
          5    1    4    4  502    0 -0.11957906202E+03  0.74103473410E+02  0.12380482139E+03  0.18745719683E+03  0.47000000000E+01 0. -1.
         -5    1    4    4    0  502  0.14418815339E+02 -0.27984918206E+00  0.91573330496E+02  0.92821039692E+02  0.47000000000E+01 0. -1.
<mgrwt>
<rscale>  0 0.99973204E+03</rscale>
<asrwt>0</asrwt>
<pdfrwt beam="1">  1        1 0.28766377E+00 0.99973204E+03</pdfrwt>
<pdfrwt beam="2">  1       -1 0.20558686E-01 0.99973204E+03</pdfrwt>
<totfact> 0.75091407E+01</totfact>
</mgrwt>
</event>
<event>
 9    1  0.4307774E-036  0.9984190E+03  0.7818608E-02  0.8682545E-01
          2   -1    0    0  501    0  0.00000000000E+00  0.00000000000E+00  0.28622316312E+03  0.28622316312E+03  0.00000000000E+00 0. -1.
         -2   -1    0    0    0  501 -0.00000000000E+00 -0.00000000000E+00 -0.87068475990E+03  0.87068475990E+03  0.00000000000E+00 0. -1.
         36    2    1    2    0    0 -0.14210854715E-13 -0.28421709430E-13 -0.58446159678E+03  0.11569079230E+04  0.99841904241E+03 0.  0.
         25    2    3    3    0    0 -0.28127982730E+02  0.66380480061E+02  0.28154138036E+02  0.14715314059E+03  0.12515526258E+03 0.  0.
         35    2    3    3    0    0  0.28127982730E+02 -0.66380480061E+02 -0.61261573481E+03  0.10097547824E+04  0.79944301270E+03 0.  0.
         22    1    5    5    0    0 -0.21676656516E+03  0.26176746937E+03 -0.46184902212E+03  0.57342346570E+03  0.00000000000E+00 0.  1.
         22    1    5    5    0    0  0.24489454789E+03 -0.32814794943E+03 -0.15076671270E+03  0.43633131673E+03  0.00000000000E+00 0.  1.
          5    1    4    4  502    0 -0.35557074009E+02  0.95782219254E+02  0.45456430918E+02  0.11192370682E+03  0.47000000000E+01 0. -1.
         -5    1    4    4    0  502  0.74290912785E+01 -0.29401739193E+02 -0.17302292882E+02  0.35229433770E+02  0.47000000000E+01 0. -1.
<mgrwt>
<rscale>  0 0.99841904E+03</rscale>
<asrwt>0</asrwt>
<pdfrwt beam="1">  1        2 0.44034333E-01 0.99841904E+03</pdfrwt>
<pdfrwt beam="2">  1       -2 0.13395150E+00 0.99841904E+03</pdfrwt>
<totfact> 0.53557415E+01</totfact>
</mgrwt>
</event>
<event>
 9    1  0.4307774E-036  0.1000524E+04  0.7818608E-02  0.8680539E-01
          3   -1    0    0  501    0  0.00000000000E+00  0.00000000000E+00  0.19059751386E+04  0.19059751386E+04  0.00000000000E+00 0.  1.
         -3   -1    0    0    0  501 -0.00000000000E+00 -0.00000000000E+00 -0.13130392923E+03  0.13130392923E+03  0.00000000000E+00 0.  1.
         36    2    1    2    0    0 -0.28421709430E-13  0.42632564146E-13  0.17746712094E+04  0.20372790678E+04  0.10005239122E+04 0.  0.
         25    2    3    3    0    0  0.10182234378E+03 -0.14565876820E+02  0.13591083276E+03  0.21086511900E+03  0.12414664511E+03 0.  0.
         35    2    3    3    0    0 -0.10182234378E+03  0.14565876820E+02  0.16387603766E+04  0.18264139488E+04  0.79979521506E+03 0.  0.
         22    1    5    5    0    0  0.22960360676E+03  0.28285108126E+03  0.93612115865E+03  0.10045125057E+04  0.00000000000E+00 0. -1.
         22    1    5    5    0    0 -0.33142595054E+03 -0.26828520444E+03  0.70263921798E+03  0.82190144315E+03  0.00000000000E+00 0. -1.
          5    1    4    4  502    0  0.71598386839E+02 -0.23488177225E+02  0.44849610673E+01  0.75632191183E+02  0.47000000000E+01 0.  1.
         -5    1    4    4    0  502  0.30223956945E+02  0.89223004050E+01  0.13142587169E+03  0.13523292782E+03  0.47000000000E+01 0.  1.
<mgrwt>
<rscale>  0 0.10005239E+04</rscale>
<asrwt>0</asrwt>
<pdfrwt beam="1">  1        3 0.29322692E+00 0.10005239E+04</pdfrwt>
<pdfrwt beam="2">  1       -3 0.20200606E-01 0.10005239E+04</pdfrwt>
<totfact> 0.41506649E+00</totfact>
</mgrwt>
</event>
<event>
 9    1  0.4307774E-036  0.1000238E+04  0.7818608E-02  0.8680811E-01
          2   -1    0    0  501    0  0.00000000000E+00  0.00000000000E+00  0.23876928791E+04  0.23876928791E+04  0.00000000000E+00 0. -1.
         -2   -1    0    0    0  501 -0.00000000000E+00 -0.00000000000E+00 -0.10475350670E+03  0.10475350670E+03  0.00000000000E+00 0. -1.
         36    2    1    2    0    0  0.00000000000E+00  0.28421709430E-13  0.22829393724E+04  0.24924463858E+04  0.10002383756E+04 0.  0.
         25    2    3    3    0    0  0.17448251723E+02 -0.11517683591E+03  0.58111448087E+03  0.60529313697E+03  0.12294550321E+03 0.  0.
         35    2    3    3    0    0 -0.17448251723E+02  0.11517683591E+03  0.17018248915E+04  0.18871532488E+04  0.80719841311E+03 0.  0.
         22    1    5    5    0    0  0.13733676610E+03  0.42902864604E+03  0.77425318317E+03  0.89576501277E+03  0.00000000000E+00 0.  1.
         22    1    5    5    0    0 -0.15478501782E+03 -0.31385181013E+03  0.92757170834E+03  0.99138823605E+03  0.00000000000E+00 0.  1.
          5    1    4    4  502    0 -0.52521703107E+02 -0.52570623339E+02  0.22623189217E+03  0.23817044059E+03  0.47000000000E+01 0. -1.
         -5    1    4    4    0  502  0.69969954829E+02 -0.62606212575E+02  0.35488258871E+03  0.36712269638E+03  0.47000000000E+01 0. -1.
<mgrwt>
<rscale>  0 0.10002384E+04</rscale>
<asrwt>0</asrwt>
<pdfrwt beam="1">  1        2 0.36733733E+00 0.10002384E+04</pdfrwt>
<pdfrwt beam="2">  1       -2 0.16115926E-01 0.10002384E+04</pdfrwt>
<totfact> 0.14423274E+02</totfact>
</mgrwt>
</event>
<event>
 9    1  0.4307774E-036  0.1001653E+04  0.7818608E-02  0.8679465E-01
          2   -1    0    0  501    0  0.00000000000E+00  0.00000000000E+00  0.16306695877E+04  0.16306695877E+04  0.00000000000E+00 0. -1.
         -2   -1    0    0    0  501 -0.00000000000E+00 -0.00000000000E+00 -0.15381866137E+03  0.15381866137E+03  0.00000000000E+00 0. -1.
         36    2    1    2    0    0 -0.28421709430E-13  0.14210854715E-13  0.14768509263E+04  0.17844882490E+04  0.10016534593E+04 0.  0.
         25    2    3    3    0    0  0.42931824757E+02  0.12197812956E+03  0.17554142857E+03  0.25240519012E+03  0.12716831832E+03 0.  0.
         35    2    3    3    0    0 -0.42931824757E+02 -0.12197812956E+03  0.13013094977E+04  0.15320830589E+04  0.79821694100E+03 0.  0.
         22    1    5    5    0    0  0.29519024004E+03 -0.29405831779E+03  0.54577955086E+03  0.68664611716E+03  0.00000000000E+00 0. -1.
         22    1    5    5    0    0 -0.33812206480E+03  0.17208018823E+03  0.75552994684E+03  0.84543694174E+03  0.00000000000E+00 0. -1.
          5    1    4    4  502    0  0.75757188752E+02  0.84519596493E+02  0.16650899959E+03  0.20156897277E+03  0.47000000000E+01 0.  1.
         -5    1    4    4    0  502 -0.32825363996E+02  0.37458533071E+02  0.90324289856E+01  0.50836217352E+02  0.47000000000E+01 0.  1.
<mgrwt>
<rscale>  0 0.10016535E+04</rscale>
<asrwt>0</asrwt>
<pdfrwt beam="1">  1        2 0.25087223E+00 0.10016535E+04</pdfrwt>
<pdfrwt beam="2">  1       -2 0.23664410E-01 0.10016535E+04</pdfrwt>
<totfact> 0.20208013E+02</totfact>
</mgrwt>
</event>
<event>
 9    1  0.4307774E-036  0.9985017E+03  0.7818608E-02  0.8682466E-01
          2   -1    0    0  501    0  0.00000000000E+00  0.00000000000E+00  0.31253384764E+04  0.31253384764E+04  0.00000000000E+00 0. -1.
         -2   -1    0    0    0  501 -0.00000000000E+00 -0.00000000000E+00 -0.79751815325E+02  0.79751815325E+02  0.00000000000E+00 0. -1.
         36    2    1    2    0    0  0.28421709430E-13  0.00000000000E+00  0.30455866611E+04  0.32050902917E+04  0.99850171156E+03 0.  0.
         25    2    3    3    0    0  0.13170081586E+03  0.20373908522E+02  0.68744237094E+03  0.71131641551E+03  0.12503530925E+03 0.  0.
         35    2    3    3    0    0 -0.13170081586E+03 -0.20373908522E+02  0.23581442901E+04  0.24937738762E+04  0.80018963475E+03 0.  0.
         22    1    5    5    0    0 -0.18845135719E+03  0.87099705386E+01  0.64693590708E+02  0.19943680276E+03  0.00000000000E+00 0.  1.
         22    1    5    5    0    0  0.56750541330E+02 -0.29083879061E+02  0.22934506994E+04  0.22943370734E+04  0.00000000000E+00 0.  1.
          5    1    4    4  502    0  0.84212382195E+02 -0.15730364695E+01  0.15654929608E+03  0.17783130169E+03  0.47000000000E+01 0.  1.
         -5    1    4    4    0  502  0.47488433668E+02  0.21946944992E+02  0.53089307486E+03  0.53348511382E+03  0.47000000000E+01 0.  1.
<mgrwt>
<rscale>  0 0.99850171E+03</rscale>
<asrwt>0</asrwt>
<pdfrwt beam="1">  1        2 0.48082121E+00 0.99850171E+03</pdfrwt>
<pdfrwt beam="2">  1       -2 0.12269512E-01 0.99850171E+03</pdfrwt>
<totfact> 0.76869336E+01</totfact>
</mgrwt>
</event>
<event>
 9    1  0.4307774E-036  0.9998927E+03  0.7818608E-02  0.8681140E-01
         -2   -1    0    0    0  501 -0.00000000000E+00  0.00000000000E+00  0.12330848598E+03  0.12330848598E+03  0.00000000000E+00 0. -1.
          2   -1    0    0  501    0  0.00000000000E+00 -0.00000000000E+00 -0.20270004957E+04  0.20270004957E+04  0.00000000000E+00 0. -1.
         36    2    1    2    0    0  0.14210854715E-13  0.28421709430E-13 -0.19036920098E+04  0.21503089817E+04  0.99989271865E+03 0.  0.
         25    2    3    3    0    0  0.38197723602E+02 -0.74189340727E+02 -0.11514680827E+03  0.18899054476E+03  0.12448097921E+03 0.  0.
         35    2    3    3    0    0 -0.38197723602E+02  0.74189340727E+02 -0.17885452015E+04  0.19613184369E+04  0.80057038980E+03 0.  0.
         22    1    5    5    0    0  0.24698654246E+03 -0.25796035175E+03 -0.95902893064E+03  0.10233681571E+04  0.00000000000E+00 0.  1.
         22    1    5    5    0    0 -0.28518426606E+03  0.33214969248E+03 -0.82951627083E+03  0.93795027981E+03  0.00000000000E+00 0.  1.
          5    1    4    4  502    0  0.77493582800E+02 -0.23864862524E+02 -0.40851292120E+02  0.90915923283E+02  0.47000000000E+01 0. -1.
         -5    1    4    4    0  502 -0.39295859198E+02 -0.50324478203E+02 -0.74295516153E+02  0.98074621472E+02  0.47000000000E+01 0. -1.
<mgrwt>
<rscale>  0 0.99989272E+03</rscale>
<asrwt>0</asrwt>
<pdfrwt beam="1">  1        2 0.31184625E+00 0.99989272E+03</pdfrwt>
<pdfrwt beam="2">  1       -2 0.18970535E-01 0.99989272E+03</pdfrwt>
<totfact> 0.17723351E+02</totfact>
</mgrwt>
</event>
<event>
 9    1  0.4307774E-036  0.1000192E+04  0.7818608E-02  0.8680855E-01
         -2   -1    0    0    0  501 -0.00000000000E+00  0.00000000000E+00  0.22786404413E+03  0.22786404413E+03  0.00000000000E+00 0. -1.
          2   -1    0    0  501    0  0.00000000000E+00 -0.00000000000E+00 -0.10975676034E+04  0.10975676034E+04  0.00000000000E+00 0. -1.
         36    2    1    2    0    0 -0.71054273576E-14 -0.14210854715E-13 -0.86970355930E+03  0.13254316476E+04  0.10001923671E+04 0.  0.
         25    2    3    3    0    0 -0.11077262346E+02  0.36086610195E+02  0.15290284918E+02  0.13128053852E+03  0.12480319629E+03 0.  0.
         35    2    3    3    0    0  0.11077262346E+02 -0.36086610195E+02 -0.88499384422E+03  0.11941511090E+04  0.80084818645E+03 0.  0.
         22    1    5    5    0    0 -0.35846918979E+03 -0.18488201203E+03 -0.44964244735E+03  0.60403629763E+03  0.00000000000E+00 0.  1.
         22    1    5    5    0    0  0.36954645213E+03  0.14879540183E+03 -0.43535139688E+03  0.59011481141E+03  0.00000000000E+00 0.  1.
          5    1    4    4  502    0  0.22017039360E+02  0.66552682330E+02  0.38851503419E+02  0.80284113406E+02  0.47000000000E+01 0.  1.
         -5    1    4    4    0  502 -0.33094301706E+02 -0.30466072135E+02 -0.23561218501E+02  0.50996425110E+02  0.47000000000E+01 0.  1.
<mgrwt>
<rscale>  0 0.10001924E+04</rscale>
<asrwt>0</asrwt>
<pdfrwt beam="1">  1        2 0.16885655E+00 0.10001924E+04</pdfrwt>
<pdfrwt beam="2">  1       -2 0.35056007E-01 0.10001924E+04</pdfrwt>
<totfact> 0.20149998E+02</totfact>
</mgrwt>
</event>
<event>
 9    1  0.4307774E-036  0.9999818E+03  0.7818608E-02  0.8681055E-01
         -2   -1    0    0    0  501 -0.00000000000E+00  0.00000000000E+00  0.35455567738E+03  0.35455567738E+03  0.00000000000E+00 0.  1.
          2   -1    0    0  501    0  0.00000000000E+00 -0.00000000000E+00 -0.70508225245E+03  0.70508225245E+03  0.00000000000E+00 0.  1.
         36    2    1    2    0    0  0.00000000000E+00  0.35527136788E-13 -0.35052657507E+03  0.10596379298E+04  0.99998183109E+03 0.  0.
         25    2    3    3    0    0 -0.11067801088E+03 -0.10345519570E+01 -0.15917003870E+03  0.23055031375E+03  0.12477040339E+03 0.  0.
         35    2    3    3    0    0  0.11067801088E+03  0.10345519570E+01 -0.19135653637E+03  0.82908761608E+03  0.79907337506E+03 0.  0.
         22    1    5    5    0    0  0.27998986411E+02  0.34955031402E+03 -0.29277020926E+03  0.45681917725E+03  0.00000000000E+00 0. -1.
         22    1    5    5    0    0  0.82679024471E+02 -0.34851576207E+03  0.10141367289E+03  0.37226843883E+03  0.00000000000E+00 0. -1.
          5    1    4    4  502    0 -0.61310045917E+02 -0.59108077341E+02 -0.55384579208E+02  0.10169674602E+03  0.47000000000E+01 0. -1.
         -5    1    4    4    0  502 -0.49367964965E+02  0.58073525384E+02 -0.10378545949E+03  0.12885356773E+03  0.47000000000E+01 0. -1.
<mgrwt>
<rscale>  0 0.99998183E+03</rscale>
<asrwt>0</asrwt>
<pdfrwt beam="1">  1        2 0.10847419E+00 0.99998183E+03</pdfrwt>
<pdfrwt beam="2">  1       -2 0.54547028E-01 0.99998183E+03</pdfrwt>
<totfact> 0.15540867E+02</totfact>
</mgrwt>
</event>
<event>
 9    1  0.4307774E-036  0.1000247E+04  0.7818608E-02  0.8680803E-01
         -2   -1    0    0    0  501 -0.00000000000E+00  0.00000000000E+00  0.10399951418E+03  0.10399951418E+03  0.00000000000E+00 0.  1.
          2   -1    0    0  501    0  0.00000000000E+00 -0.00000000000E+00 -0.24050434763E+04  0.24050434763E+04  0.00000000000E+00 0.  1.
         36    2    1    2    0    0  0.28421709430E-13 -0.28421709430E-13 -0.23010439621E+04  0.25090429905E+04  0.10002466758E+04 0.  0.
         25    2    3    3    0    0  0.10440354398E+03  0.76230947498E+02 -0.30550664601E+03  0.35513276892E+03  0.12678215747E+03 0.  0.
         35    2    3    3    0    0 -0.10440354398E+03 -0.76230947498E+02 -0.19955373161E+04  0.21539102215E+04  0.80028045409E+03 0.  0.
         22    1    5    5    0    0  0.10030322984E+03  0.32569051685E+03 -0.63664568577E+03  0.72211687412E+03  0.00000000000E+00 0.  1.
         22    1    5    5    0    0 -0.20470677382E+03 -0.40192146435E+03 -0.13588916303E+04  0.14317933474E+04  0.00000000000E+00 0.  1.
          5    1    4    4  502    0  0.36046032205E+02  0.77722008417E+02 -0.25759970498E+03  0.27151376583E+03  0.47000000000E+01 0. -1.
         -5    1    4    4    0  502  0.68357511773E+02 -0.14910609183E+01 -0.47906941028E+02  0.83619003086E+02  0.47000000000E+01 0. -1.
<mgrwt>
<rscale>  0 0.10002467E+04</rscale>
<asrwt>0</asrwt>
<pdfrwt beam="1">  1        2 0.37000666E+00 0.10002467E+04</pdfrwt>
<pdfrwt beam="2">  1       -2 0.15999926E-01 0.10002467E+04</pdfrwt>
<totfact> 0.14255383E+02</totfact>
</mgrwt>
</event>
<event>
 9    1  0.4307774E-036  0.9994427E+03  0.7818608E-02  0.8681569E-01
         -2   -1    0    0    0  501 -0.00000000000E+00  0.00000000000E+00  0.18494712788E+03  0.18494712788E+03  0.00000000000E+00 0. -1.
          2   -1    0    0  501    0  0.00000000000E+00 -0.00000000000E+00 -0.13502315015E+04  0.13502315015E+04  0.00000000000E+00 0. -1.
         36    2    1    2    0    0 -0.28421709430E-13  0.28421709430E-13 -0.11652843736E+04  0.15351786294E+04  0.99944272108E+03 0.  0.
         25    2    3    3    0    0 -0.17320657804E+02  0.24313566058E+02 -0.84455267761E+01  0.12838603834E+03  0.12458127162E+03 0.  0.
         35    2    3    3    0    0  0.17320657804E+02 -0.24313566058E+02 -0.11568388468E+04  0.14067925910E+04  0.79993632369E+03 0.  0.
         22    1    5    5    0    0 -0.21020244480E+03 -0.33614749149E+03 -0.43740579765E+03  0.59034230380E+03  0.00000000000E+00 0. -1.
         22    1    5    5    0    0  0.22752310261E+03  0.31183392543E+03 -0.71943304917E+03  0.81645028722E+03  0.00000000000E+00 0. -1.
          5    1    4    4  502    0 -0.50195437565E+02 -0.19870672293E+02 -0.37540970845E+02  0.65922985837E+02  0.47000000000E+01 0. -1.
         -5    1    4    4    0  502  0.32874779761E+02  0.44184238350E+02  0.29095444069E+02  0.62463052507E+02  0.47000000000E+01 0. -1.
<mgrwt>
<rscale>  0 0.99944272E+03</rscale>
<asrwt>0</asrwt>
<pdfrwt beam="1">  1        2 0.20772793E+00 0.99944272E+03</pdfrwt>
<pdfrwt beam="2">  1       -2 0.28453403E-01 0.99944272E+03</pdfrwt>
<totfact> 0.20984216E+02</totfact>
</mgrwt>
</event>
<event>
 9    1  0.4307774E-036  0.9987568E+03  0.7818608E-02  0.8682223E-01
         -2   -1    0    0    0  501 -0.00000000000E+00  0.00000000000E+00  0.84949319610E+03  0.84949319610E+03  0.00000000000E+00 0.  1.
          2   -1    0    0  501    0  0.00000000000E+00 -0.00000000000E+00 -0.29356183204E+03  0.29356183204E+03  0.00000000000E+00 0.  1.
         36    2    1    2    0    0  0.14210854715E-13  0.00000000000E+00  0.55593136407E+03  0.11430550281E+04  0.99875678511E+03 0.  0.
         25    2    3    3    0    0  0.34762292115E+02 -0.29885803840E+02  0.25343463227E+03  0.28642793073E+03  0.12534060973E+03 0.  0.
         35    2    3    3    0    0 -0.34762292115E+02  0.29885803840E+02  0.30249673180E+03  0.85662709740E+03  0.80012757297E+03 0.  0.
         22    1    5    5    0    0  0.11216794238E+03  0.14872747547E+03  0.52946872065E+03  0.56128302611E+03  0.00000000000E+00 0. -1.
         22    1    5    5    0    0 -0.14693023449E+03 -0.11884167163E+03 -0.22697198885E+03  0.29534407129E+03  0.00000000000E+00 0. -1.
          5    1    4    4  502    0 -0.30810839025E+02 -0.54567894971E+02  0.13075912504E+03  0.14507584825E+03  0.47000000000E+01 0. -1.
         -5    1    4    4    0  502  0.65573131140E+02  0.24682091132E+02  0.12267550723E+03  0.14135208249E+03  0.47000000000E+01 0. -1.
<mgrwt>
<rscale>  0 0.99875679E+03</rscale>
<asrwt>0</asrwt>
<pdfrwt beam="1">  1        2 0.45163359E-01 0.99875679E+03</pdfrwt>
<pdfrwt beam="2">  1       -2 0.13069126E+00 0.99875679E+03</pdfrwt>
<totfact> 0.55622251E+01</totfact>
</mgrwt>
</event>
<event>
 9    1  0.4307774E-036  0.1000650E+04  0.7818608E-02  0.8680419E-01
          2   -1    0    0  501    0  0.00000000000E+00  0.00000000000E+00  0.36523425675E+03  0.36523425675E+03  0.00000000000E+00 0.  1.
         -2   -1    0    0    0  501 -0.00000000000E+00 -0.00000000000E+00 -0.68538217266E+03  0.68538217266E+03  0.00000000000E+00 0.  1.
         36    2    1    2    0    0  0.00000000000E+00  0.14210854715E-13 -0.32014791590E+03  0.10506164294E+04  0.10006498857E+04 0.  0.
         25    2    3    3    0    0  0.12981774415E+03  0.41348386968E+02 -0.97480591726E+02  0.20896044245E+03  0.12489861867E+03 0.  0.
         35    2    3    3    0    0 -0.12981774415E+03 -0.41348386968E+02 -0.22266732418E+03  0.84165598696E+03  0.80015106532E+03 0.  0.
         22    1    5    5    0    0  0.13719733385E+03  0.32819573933E+03 -0.10132943806E+03  0.36986917518E+03  0.00000000000E+00 0. -1.
         22    1    5    5    0    0 -0.26701507800E+03 -0.36954412630E+03 -0.12133788612E+03  0.47178681178E+03  0.00000000000E+00 0. -1.
          5    1    4    4  502    0  0.93624460920E+02  0.56933802356E+02 -0.66968027736E+01  0.10988145749E+03  0.47000000000E+01 0. -1.
         -5    1    4    4    0  502  0.36193283229E+02 -0.15585415388E+02 -0.90783788952E+02  0.99078984958E+02  0.47000000000E+01 0. -1.
<mgrwt>
<rscale>  0 0.10006499E+04</rscale>
<asrwt>0</asrwt>
<pdfrwt beam="1">  1        2 0.56189885E-01 0.10006499E+04</pdfrwt>
<pdfrwt beam="2">  1       -2 0.10544341E+00 0.10006499E+04</pdfrwt>
<totfact> 0.75840330E+01</totfact>
</mgrwt>
</event>
<event>
 9    1  0.4307774E-036  0.9990780E+03  0.7818608E-02  0.8681916E-01
          4   -1    0    0  501    0  0.00000000000E+00  0.00000000000E+00  0.72982268536E+03  0.72982268536E+03  0.00000000000E+00 0. -1.
         -4   -1    0    0    0  501 -0.00000000000E+00 -0.00000000000E+00 -0.34191757641E+03  0.34191757641E+03  0.00000000000E+00 0. -1.
         36    2    1    2    0    0  0.00000000000E+00  0.00000000000E+00  0.38790510895E+03  0.10717402618E+04  0.99907798251E+03 0.  0.
         25    2    3    3    0    0 -0.88555991662E+02  0.32397230509E+02  0.18096540596E+03  0.23965219063E+03  0.12567000483E+03 0.  0.
         35    2    3    3    0    0  0.88555991662E+02 -0.32397230509E+02  0.20693970299E+03  0.83208807114E+03  0.80040912867E+03 0.  0.
         22    1    5    5    0    0  0.86970640141E+02  0.34639470100E+02  0.51162095103E+03  0.52011516289E+03  0.00000000000E+00 0.  1.
         22    1    5    5    0    0  0.15853515208E+01 -0.67036700609E+02 -0.30468124805E+03  0.31197290825E+03  0.00000000000E+00 0.  1.
          5    1    4    4  502    0 -0.10745064950E+03 -0.82983503000E+01  0.15068970151E+03  0.18532129083E+03  0.47000000000E+01 0.  1.
         -5    1    4    4    0  502  0.18894657839E+02  0.40695580809E+02  0.30275704454E+02  0.54330899794E+02  0.47000000000E+01 0.  1.
<mgrwt>
<rscale>  0 0.99907798E+03</rscale>
<asrwt>0</asrwt>
<pdfrwt beam="1">  1        4 0.11228041E+00 0.99907798E+03</pdfrwt>
<pdfrwt beam="2">  1       -4 0.52602704E-01 0.99907798E+03</pdfrwt>
<totfact> 0.47387786E+00</totfact>
</mgrwt>
</event>
<event>
 9    1  0.4307774E-036  0.9997382E+03  0.7818608E-02  0.8681287E-01
         -1   -1    0    0    0  501 -0.00000000000E+00  0.00000000000E+00  0.16926793086E+03  0.16926793086E+03  0.00000000000E+00 0.  1.
          1   -1    0    0  501    0  0.00000000000E+00 -0.00000000000E+00 -0.14761752033E+04  0.14761752033E+04  0.00000000000E+00 0.  1.
         36    2    1    2    0    0  0.00000000000E+00  0.21316282073E-13 -0.13069072724E+04  0.16454431341E+04  0.99973821023E+03 0.  0.
         25    2    3    3    0    0 -0.11301528056E+03  0.29998066304E+02 -0.37062651247E+03  0.40839950045E+03  0.12551415300E+03 0.  0.
         35    2    3    3    0    0  0.11301528056E+03 -0.29998066304E+02 -0.93628075994E+03  0.12370436337E+04  0.79998934529E+03 0.  0.
         22    1    5    5    0    0 -0.24849280987E+03 -0.18530943687E+03 -0.72934572923E+03  0.79248561923E+03  0.00000000000E+00 0.  1.
         22    1    5    5    0    0  0.36150809043E+03  0.15531137057E+03 -0.20693503071E+03  0.44455801445E+03  0.00000000000E+00 0.  1.
          5    1    4    4  502    0 -0.38194752047E+02 -0.40311637536E+02 -0.21341763151E+03  0.22057434720E+03  0.47000000000E+01 0. -1.
         -5    1    4    4    0  502 -0.74820528515E+02  0.70309703840E+02 -0.15720888096E+03  0.18782515325E+03  0.47000000000E+01 0. -1.
<mgrwt>
<rscale>  0 0.99973821E+03</rscale>
<asrwt>0</asrwt>
<pdfrwt beam="1">  1        1 0.22710388E+00 0.99973821E+03</pdfrwt>
<pdfrwt beam="2">  1       -1 0.26041220E-01 0.99973821E+03</pdfrwt>
<totfact> 0.95952796E+01</totfact>
</mgrwt>
</event>
<event>
 9    1  0.4307774E-036  0.9996733E+03  0.7818608E-02  0.8681349E-01
         -2   -1    0    0    0  501 -0.00000000000E+00  0.00000000000E+00  0.14879611701E+03  0.14879611701E+03  0.00000000000E+00 0. -1.
          2   -1    0    0  501    0  0.00000000000E+00 -0.00000000000E+00 -0.16790537710E+04  0.16790537710E+04  0.00000000000E+00 0. -1.
         36    2    1    2    0    0  0.00000000000E+00 -0.35527136788E-14 -0.15302576540E+04  0.18278498880E+04  0.99967330941E+03 0.  0.
         25    2    3    3    0    0  0.71544365036E+02 -0.17813158065E+02 -0.50535942444E+03  0.52544742343E+03  0.12357565353E+03 0.  0.
         35    2    3    3    0    0 -0.71544365036E+02  0.17813158065E+02 -0.10248982296E+04  0.13024024646E+04  0.80024989477E+03 0.  0.
         22    1    5    5    0    0  0.13509924320E+03  0.64527752104E+02  0.85203717499E+02  0.17226523091E+03  0.00000000000E+00 0. -1.
         22    1    5    5    0    0 -0.20664360823E+03 -0.46714594039E+02 -0.11101019471E+04  0.11301372337E+04  0.00000000000E+00 0. -1.
          5    1    4    4  502    0 -0.73010863278E+01 -0.33036507037E+02 -0.33841416694E+03  0.34013373112E+03  0.47000000000E+01 0.  1.
         -5    1    4    4    0  502  0.78845451364E+02  0.15223348972E+02 -0.16694525750E+03  0.18531369231E+03  0.47000000000E+01 0.  1.
<mgrwt>
<rscale>  0 0.99967331E+03</rscale>
<asrwt>0</asrwt>
<pdfrwt beam="1">  1        2 0.25831596E+00 0.99967331E+03</pdfrwt>
<pdfrwt beam="2">  1       -2 0.22891711E-01 0.99967331E+03</pdfrwt>
<totfact> 0.20119329E+02</totfact>
</mgrwt>
</event>
<event>
 9    1  0.4307774E-036  0.9997894E+03  0.7818608E-02  0.8681238E-01
          1   -1    0    0  501    0  0.00000000000E+00  0.00000000000E+00  0.14218078870E+04  0.14218078870E+04  0.00000000000E+00 0. -1.
         -1   -1    0    0    0  501 -0.00000000000E+00 -0.00000000000E+00 -0.17575843890E+03  0.17575843890E+03  0.00000000000E+00 0. -1.
         36    2    1    2    0    0 -0.28421709430E-13 -0.14210854715E-13  0.12460494481E+04  0.15975663259E+04  0.99978944712E+03 0.  0.
         25    2    3    3    0    0  0.10998524210E+03  0.81932032679E+02  0.27821860554E+03  0.33462687858E+03  0.12553861533E+03 0.  0.
         35    2    3    3    0    0 -0.10998524210E+03 -0.81932032679E+02  0.96783084259E+03  0.12629394474E+04  0.79969362656E+03 0.  0.
         22    1    5    5    0    0 -0.16814711433E+03  0.33147637896E+03  0.60383328550E+03  0.70905900921E+03  0.00000000000E+00 0. -1.
         22    1    5    5    0    0  0.58161872233E+02 -0.41340841164E+03  0.36399755709E+03  0.55388043815E+03  0.00000000000E+00 0. -1.
          5    1    4    4  502    0  0.87659273737E+02  0.67272927707E+02  0.84930418172E+02  0.13944554853E+03  0.47000000000E+01 0.  1.
         -5    1    4    4    0  502  0.22325968364E+02  0.14659104972E+02  0.19328818737E+03  0.19518133005E+03  0.47000000000E+01 0.  1.
<mgrwt>
<rscale>  0 0.99978945E+03</rscale>
<asrwt>0</asrwt>
<pdfrwt beam="1">  1        1 0.21873967E+00 0.99978945E+03</pdfrwt>
<pdfrwt beam="2">  1       -1 0.27039761E-01 0.99978945E+03</pdfrwt>
<totfact> 0.98481630E+01</totfact>
</mgrwt>
</event>
<event>
 9    1  0.4307774E-036  0.9998885E+03  0.7818608E-02  0.8681144E-01
         -4   -1    0    0    0  501 -0.00000000000E+00  0.00000000000E+00  0.47506413451E+03  0.47506413451E+03  0.00000000000E+00 0. -1.
          4   -1    0    0  501    0  0.00000000000E+00 -0.00000000000E+00 -0.52612739788E+03  0.52612739788E+03  0.00000000000E+00 0. -1.
         36    2    1    2    0    0  0.00000000000E+00  0.00000000000E+00 -0.51063263372E+02  0.10011915324E+04  0.99988850762E+03 0.  0.
         25    2    3    3    0    0  0.13262832042E+03 -0.32198263375E+02  0.25080894633E+02  0.18710896358E+03  0.12551379779E+03 0.  0.
         35    2    3    3    0    0 -0.13262832042E+03  0.32198263375E+02 -0.76144158005E+02  0.81408256881E+03  0.79894023337E+03 0.  0.
         22    1    5    5    0    0 -0.20588186410E+03 -0.60024405560E+02 -0.40855775240E+03  0.46142139989E+03  0.00000000000E+00 0.  1.
         22    1    5    5    0    0  0.73253543678E+02  0.92222668936E+02  0.33241359439E+03  0.35266116892E+03  0.00000000000E+00 0.  1.
          5    1    4    4  502    0  0.66098454298E+02 -0.51030614930E+02  0.66075249034E+02  0.10658873231E+03  0.47000000000E+01 0. -1.
         -5    1    4    4    0  502  0.66529866124E+02  0.18832351555E+02 -0.40994354401E+02  0.80520231273E+02  0.47000000000E+01 0. -1.
<mgrwt>
<rscale>  0 0.99988851E+03</rscale>
<asrwt>0</asrwt>
<pdfrwt beam="1">  1        4 0.80942676E-01 0.99988851E+03</pdfrwt>
<pdfrwt beam="2">  1       -4 0.73086791E-01 0.99988851E+03</pdfrwt>
<totfact> 0.52940813E+00</totfact>
</mgrwt>
</event>
<event>
 9    1  0.4307774E-036  0.9985935E+03  0.7818608E-02  0.8682379E-01
          1   -1    0    0  501    0  0.00000000000E+00  0.00000000000E+00  0.58155943015E+03  0.58155943015E+03  0.00000000000E+00 0. -1.
         -1   -1    0    0    0  501 -0.00000000000E+00 -0.00000000000E+00 -0.42867028656E+03  0.42867028656E+03  0.00000000000E+00 0. -1.
         36    2    1    2    0    0  0.00000000000E+00 -0.14210854715E-13  0.15288914360E+03  0.10102297167E+04  0.99859350604E+03 0.  0.
         25    2    3    3    0    0 -0.89950867156E+02  0.11115327197E+03  0.31741540744E+02  0.19126998228E+03  0.12300598498E+03 0.  0.
         35    2    3    3    0    0  0.89950867156E+02 -0.11115327197E+03  0.12114760285E+03  0.81895973443E+03  0.79722775703E+03 0.  0.
         22    1    5    5    0    0 -0.87255433248E+02 -0.37184331259E+03  0.27260079443E+03  0.46924636692E+03  0.00000000000E+00 0. -1.
         22    1    5    5    0    0  0.17720630040E+03  0.26069004062E+03 -0.15145319157E+03  0.34971336751E+03  0.00000000000E+00 0. -1.
          5    1    4    4  502    0 -0.11608432046E+03  0.95081440642E+02  0.46136549472E+02  0.15705642619E+03  0.47000000000E+01 0.  1.
         -5    1    4    4    0  502  0.26133453304E+02  0.16071831331E+02 -0.14395008728E+02  0.34213556088E+02  0.47000000000E+01 0.  1.
<mgrwt>
<rscale>  0 0.99859351E+03</rscale>
<asrwt>0</asrwt>
<pdfrwt beam="1">  1        1 0.89470682E-01 0.99859351E+03</pdfrwt>
<pdfrwt beam="2">  1       -1 0.65949275E-01 0.99859351E+03</pdfrwt>
<totfact> 0.97403398E+01</totfact>
</mgrwt>
</event>
<event>
 9    1  0.4307774E-036  0.9993166E+03  0.7818608E-02  0.8681689E-01
         -2   -1    0    0    0  501 -0.00000000000E+00  0.00000000000E+00  0.12901516665E+03  0.12901516665E+03  0.00000000000E+00 0.  1.
          2   -1    0    0  501    0  0.00000000000E+00 -0.00000000000E+00 -0.19351088924E+04  0.19351088924E+04  0.00000000000E+00 0.  1.
         36    2    1    2    0    0  0.28421709430E-13  0.14210854715E-13 -0.18060937257E+04  0.20641240590E+04  0.99931655892E+03 0.  0.
         25    2    3    3    0    0 -0.96290869405E+02 -0.87196017343E+02 -0.44315450716E+03  0.47850091848E+03  0.12530815935E+03 0.  0.
         35    2    3    3    0    0  0.96290869405E+02  0.87196017343E+02 -0.13629392186E+04  0.15856231405E+04  0.79982645202E+03 0.  0.
         22    1    5    5    0    0 -0.23908009965E+03  0.22209789173E+03 -0.23762461925E+03  0.40367341656E+03  0.00000000000E+00 0. -1.
         22    1    5    5    0    0  0.33537096905E+03 -0.13490187439E+03 -0.11253145993E+04  0.11819497240E+04  0.00000000000E+00 0. -1.
          5    1    4    4  502    0 -0.11267324853E+02 -0.56620232589E+02 -0.32267022764E+03  0.32782765159E+03  0.47000000000E+01 0. -1.
         -5    1    4    4    0  502 -0.85023544552E+02 -0.30575784754E+02 -0.12048427952E+03  0.15067326688E+03  0.47000000000E+01 0. -1.
<mgrwt>
<rscale>  0 0.99931656E+03</rscale>
<asrwt>0</asrwt>
<pdfrwt beam="1">  1        2 0.29770905E+00 0.99931656E+03</pdfrwt>
<pdfrwt beam="2">  1       -2 0.19848488E-01 0.99931656E+03</pdfrwt>
<totfact> 0.18490655E+02</totfact>
</mgrwt>
</event>
<event>
 9    1  0.4307774E-036  0.9992870E+03  0.7818608E-02  0.8681717E-01
         -2   -1    0    0    0  501 -0.00000000000E+00  0.00000000000E+00  0.37268234137E+03  0.37268234137E+03  0.00000000000E+00 0. -1.
          2   -1    0    0  501    0  0.00000000000E+00 -0.00000000000E+00 -0.66985632298E+03  0.66985632298E+03  0.00000000000E+00 0. -1.
         36    2    1    2    0    0  0.14210854715E-13  0.00000000000E+00 -0.29717398161E+03  0.10425386644E+04  0.99928699147E+03 0.  0.
         25    2    3    3    0    0 -0.52866621461E+02  0.12815949453E+03 -0.74040640249E+02  0.20047735862E+03  0.12445649525E+03 0.  0.
         35    2    3    3    0    0  0.52866621461E+02 -0.12815949453E+03 -0.22313334136E+03  0.84206130573E+03  0.80003688595E+03 0.  0.
         22    1    5    5    0    0  0.12655534627E+03  0.74780744840E+02  0.26794380484E+03  0.30561789545E+03  0.00000000000E+00 0. -1.
         22    1    5    5    0    0 -0.73688724806E+02 -0.20294023937E+03 -0.49107714620E+03  0.53644341028E+03  0.00000000000E+00 0. -1.
          5    1    4    4  502    0 -0.67008808759E+02  0.99855704317E+02 -0.57337985642E+00  0.12034849771E+03  0.47000000000E+01 0. -1.
         -5    1    4    4    0  502  0.14142187298E+02  0.28303790208E+02 -0.73467260393E+02  0.80128860914E+02  0.47000000000E+01 0. -1.
<mgrwt>
<rscale>  0 0.99928699E+03</rscale>
<asrwt>0</asrwt>
<pdfrwt beam="1">  1        2 0.10305482E+00 0.99928699E+03</pdfrwt>
<pdfrwt beam="2">  1       -2 0.57335746E-01 0.99928699E+03</pdfrwt>
<totfact> 0.14935691E+02</totfact>
</mgrwt>
</event>
<event>
 9    1  0.4307774E-036  0.1002623E+04  0.7818608E-02  0.8678544E-01
         -2   -1    0    0    0  501 -0.00000000000E+00  0.00000000000E+00  0.59163242950E+03  0.59163242950E+03  0.00000000000E+00 0. -1.
          2   -1    0    0  501    0  0.00000000000E+00 -0.00000000000E+00 -0.42477946380E+03  0.42477946380E+03  0.00000000000E+00 0. -1.
         36    2    1    2    0    0 -0.14210854715E-13  0.14210854715E-13  0.16685296569E+03  0.10164118933E+04  0.10026231718E+04 0.  0.
         25    2    3    3    0    0 -0.82470093803E+02  0.94800053385E+02 -0.38626471706E+02  0.18141526840E+03  0.12502451279E+03 0.  0.
         35    2    3    3    0    0  0.82470093803E+02 -0.94800053385E+02  0.20547943740E+03  0.83499662490E+03  0.79950559591E+03 0.  0.
         22    1    5    5    0    0  0.40083941609E+03  0.95078379985E+02  0.21395409586E+03  0.46420737927E+03  0.00000000000E+00 0. -1.
         22    1    5    5    0    0 -0.31836932229E+03 -0.18987843337E+03 -0.84746584596E+01  0.37078924562E+03  0.00000000000E+00 0. -1.
          5    1    4    4  502    0 -0.26651012801E+01  0.36402375698E+02  0.40467571956E+02  0.54698721203E+02  0.47000000000E+01 0. -1.
         -5    1    4    4    0  502 -0.79804992523E+02  0.58397677687E+02 -0.79094043661E+02  0.12671654720E+03  0.47000000000E+01 0. -1.
<mgrwt>
<rscale>  0 0.10026232E+04</rscale>
<asrwt>0</asrwt>
<pdfrwt beam="1">  1        2 0.65350687E-01 0.10026232E+04</pdfrwt>
<pdfrwt beam="2">  1       -2 0.91020374E-01 0.10026232E+04</pdfrwt>
<totfact> 0.91346758E+01</totfact>
</mgrwt>
</event>
<event>
 9    1  0.4307774E-036  0.9990352E+03  0.7818608E-02  0.8681957E-01
          2   -1    0    0  501    0  0.00000000000E+00  0.00000000000E+00  0.15641946960E+04  0.15641946960E+04  0.00000000000E+00 0. -1.
         -2   -1    0    0    0  501 -0.00000000000E+00 -0.00000000000E+00 -0.15951839823E+03  0.15951839823E+03  0.00000000000E+00 0. -1.
         36    2    1    2    0    0 -0.14210854715E-13 -0.14210854715E-13  0.14046762978E+04  0.17237130943E+04  0.99903519945E+03 0.  0.
         25    2    3    3    0    0  0.39595036236E+01  0.90544792469E+02  0.44652710294E+03  0.47232967376E+03  0.12447823080E+03 0.  0.
         35    2    3    3    0    0 -0.39595036236E+01 -0.90544792469E+02  0.95814919488E+03  0.12513834205E+04  0.79981032026E+03 0.  0.
         22    1    5    5    0    0  0.21859472492E+03 -0.26010446489E+03  0.90488861567E+03  0.96657198034E+03  0.00000000000E+00 0.  1.
         22    1    5    5    0    0 -0.22255422855E+03  0.16955967243E+03  0.53260579210E+02  0.28481144018E+03  0.00000000000E+00 0.  1.
          5    1    4    4  502    0  0.18908481809E+02  0.41052437694E+02  0.34523650077E+02  0.57068430323E+02  0.47000000000E+01 0. -1.
         -5    1    4    4    0  502 -0.14948978186E+02  0.49492354775E+02  0.41200345286E+03  0.41526124343E+03  0.47000000000E+01 0. -1.
<mgrwt>
<rscale>  0 0.99903520E+03</rscale>
<asrwt>0</asrwt>
<pdfrwt beam="1">  1        2 0.24064533E+00 0.99903520E+03</pdfrwt>
<pdfrwt beam="2">  1       -2 0.24541293E-01 0.99903520E+03</pdfrwt>
<totfact> 0.20658191E+02</totfact>
</mgrwt>
</event>
<event>
 9    1  0.4307774E-036  0.9984928E+03  0.7818608E-02  0.8682475E-01
         -4   -1    0    0    0  501 -0.00000000000E+00  0.00000000000E+00  0.11003692975E+04  0.11003692975E+04  0.00000000000E+00 0.  1.
          4   -1    0    0  501    0  0.00000000000E+00 -0.00000000000E+00 -0.22651208586E+03  0.22651208586E+03  0.00000000000E+00 0.  1.
         36    2    1    2    0    0 -0.71054273576E-14  0.00000000000E+00  0.87385721161E+03  0.13268813833E+04  0.99849275368E+03 0.  0.
         25    2    3    3    0    0 -0.50152328782E+02  0.57160542692E+02  0.31650988746E+03  0.34860468038E+03  0.12475628481E+03 0.  0.
         35    2    3    3    0    0  0.50152328782E+02 -0.57160542692E+02  0.55734732415E+03  0.97827670295E+03  0.80037908773E+03 0.  0.
         22    1    5    5    0    0  0.16002724454E+03 -0.10035034359E+02 -0.17435382873E+03  0.23687270527E+03  0.00000000000E+00 0. -1.
         22    1    5    5    0    0 -0.10987491575E+03 -0.47125508333E+02  0.73170115288E+03  0.74140399768E+03  0.00000000000E+00 0. -1.
          5    1    4    4  502    0  0.17559533607E+02 -0.22750170447E+02  0.14253409209E+03  0.14547840006E+03  0.47000000000E+01 0. -1.
         -5    1    4    4    0  502 -0.67711862389E+02  0.79910713139E+02  0.17397579537E+03  0.20312628032E+03  0.47000000000E+01 0. -1.
<mgrwt>
<rscale>  0 0.99849275E+03</rscale>
<asrwt>0</asrwt>
<pdfrwt beam="1">  1        4 0.34848014E-01 0.99849275E+03</pdfrwt>
<pdfrwt beam="2">  1       -4 0.16928758E+00 0.99849275E+03</pdfrwt>
<totfact> 0.32860374E+00</totfact>
</mgrwt>
</event>
<event>
 9    1  0.4307774E-036  0.1002081E+04  0.7818608E-02  0.8679059E-01
         -2   -1    0    0    0  501 -0.00000000000E+00  0.00000000000E+00  0.16673570936E+03  0.16673570936E+03  0.00000000000E+00 0.  1.
          2   -1    0    0  501    0  0.00000000000E+00 -0.00000000000E+00 -0.15056244614E+04  0.15056244614E+04  0.00000000000E+00 0.  1.
         36    2    1    2    0    0  0.00000000000E+00 -0.14210854715E-13 -0.13388887520E+04  0.16723601707E+04  0.10020805608E+04 0.  0.
         25    2    3    3    0    0  0.12571005607E+03  0.62615317076E+02 -0.30923388736E+03  0.36197084754E+03  0.12519425407E+03 0.  0.
         35    2    3    3    0    0 -0.12571005607E+03 -0.62615317076E+02 -0.10296548646E+04  0.13103893232E+04  0.79825268049E+03 0.  0.
         22    1    5    5    0    0 -0.50110846776E+00 -0.28276156303E+03 -0.36092356247E+02  0.28505615379E+03  0.00000000000E+00 0.  1.
         22    1    5    5    0    0 -0.12520894760E+03  0.22014624595E+03 -0.99356250839E+03  0.10253331694E+04  0.00000000000E+00 0.  1.
          5    1    4    4  502    0  0.12165465737E+03  0.36283087160E+02 -0.13394619891E+03  0.18460767123E+03  0.47000000000E+01 0.  1.
         -5    1    4    4    0  502  0.40553986957E+01  0.26332229916E+02 -0.17528768844E+03  0.17736317631E+03  0.47000000000E+01 0.  1.
<mgrwt>
<rscale>  0 0.10020806E+04</rscale>
<asrwt>0</asrwt>
<pdfrwt beam="1">  1        2 0.23163453E+00 0.10020806E+04</pdfrwt>
<pdfrwt beam="2">  1       -2 0.25651648E-01 0.10020806E+04</pdfrwt>
<totfact> 0.20610775E+02</totfact>
</mgrwt>
</event>
<event>
 9    1  0.4307774E-036  0.1000976E+04  0.7818608E-02  0.8680109E-01
          2   -1    0    0  501    0  0.00000000000E+00  0.00000000000E+00  0.64387793821E+03  0.64387793821E+03  0.00000000000E+00 0. -1.
         -2   -1    0    0    0  501 -0.00000000000E+00 -0.00000000000E+00 -0.38903094456E+03  0.38903094456E+03  0.00000000000E+00 0. -1.
         36    2    1    2    0    0 -0.28421709430E-13 -0.14210854715E-13  0.25484699366E+03  0.10329088828E+04  0.10009764083E+04 0.  0.
         25    2    3    3    0    0  0.12847958506E+03 -0.52893586659E+02  0.73337746640E+02  0.20096609902E+03  0.12531644979E+03 0.  0.
         35    2    3    3    0    0 -0.12847958506E+03  0.52893586659E+02  0.18150924702E+03  0.83194278374E+03  0.79992402976E+03 0.  0.
         22    1    5    5    0    0  0.10325035003E+03  0.22262726917E+03  0.40121038561E+03  0.47031192764E+03  0.00000000000E+00 0.  1.
         22    1    5    5    0    0 -0.23172993509E+03 -0.16973368251E+03 -0.21970113859E+03  0.36163085611E+03  0.00000000000E+00 0.  1.
          5    1    4    4  502    0  0.79827965074E+02 -0.50509730176E+01  0.99487854705E+02  0.12774169081E+03  0.47000000000E+01 0. -1.
         -5    1    4    4    0  502  0.48651619984E+02 -0.47842613642E+02 -0.26150108064E+02  0.73224408218E+02  0.47000000000E+01 0. -1.
<mgrwt>
<rscale>  0 0.10009764E+04</rscale>
<asrwt>0</asrwt>
<pdfrwt beam="1">  1        2 0.99058144E-01 0.10009764E+04</pdfrwt>
<pdfrwt beam="2">  1       -2 0.59850915E-01 0.10009764E+04</pdfrwt>
<totfact> 0.14331541E+02</totfact>
</mgrwt>
</event>
<event>
 9    1  0.4307774E-036  0.9999806E+03  0.7818608E-02  0.8681056E-01
         -2   -1    0    0    0  501 -0.00000000000E+00  0.00000000000E+00  0.17997759357E+03  0.17997759357E+03  0.00000000000E+00 0. -1.
          2   -1    0    0  501    0  0.00000000000E+00 -0.00000000000E+00 -0.13890078339E+04  0.13890078339E+04  0.00000000000E+00 0. -1.
         36    2    1    2    0    0 -0.71054273576E-14  0.14210854715E-13 -0.12090302403E+04  0.15689854275E+04  0.99998057459E+03 0.  0.
         25    2    3    3    0    0  0.49931535271E+02  0.30232083402E+01 -0.22577871693E+02  0.13679503401E+03  0.12530292509E+03 0.  0.
         35    2    3    3    0    0 -0.49931535271E+02 -0.30232083402E+01 -0.11864523686E+04  0.14321903935E+04  0.80062338340E+03 0.  0.
         22    1    5    5    0    0 -0.12790591616E+03  0.22817526981E+03 -0.45582701189E+02  0.26552148649E+03  0.00000000000E+00 0.  1.
         22    1    5    5    0    0  0.77974380890E+02 -0.23119847815E+03 -0.11408696674E+04  0.11666689070E+04  0.00000000000E+00 0.  1.
          5    1    4    4  502    0  0.56101211058E+02 -0.45157720646E+02 -0.42869673431E+02  0.83943221979E+02  0.47000000000E+01 0.  1.
         -5    1    4    4    0  502 -0.61696757871E+01  0.48180928986E+02  0.20291801738E+02  0.52851812032E+02  0.47000000000E+01 0.  1.
<mgrwt>
<rscale>  0 0.99998057E+03</rscale>
<asrwt>0</asrwt>
<pdfrwt beam="1">  1        2 0.21369350E+00 0.99998057E+03</pdfrwt>
<pdfrwt beam="2">  1       -2 0.27688862E-01 0.99998057E+03</pdfrwt>
<totfact> 0.20941448E+02</totfact>
</mgrwt>
</event>
<event>
 9    1  0.4307774E-036  0.9994764E+03  0.7818608E-02  0.8681537E-01
         -2   -1    0    0    0  501 -0.00000000000E+00  0.00000000000E+00  0.32766037924E+03  0.32766037924E+03  0.00000000000E+00 0.  1.
          2   -1    0    0  501    0  0.00000000000E+00 -0.00000000000E+00 -0.76218636333E+03  0.76218636333E+03  0.00000000000E+00 0.  1.
         36    2    1    2    0    0  0.17763568394E-14 -0.28421709430E-13 -0.43452598409E+03  0.10898467426E+04  0.99947640864E+03 0.  0.
         25    2    3    3    0    0  0.11372678616E+02  0.12622905271E+03 -0.18868868618E+02  0.17916966866E+03  0.12523028546E+03 0.  0.
         35    2    3    3    0    0 -0.11372678616E+02 -0.12622905271E+03 -0.41565711547E+03  0.91067707391E+03  0.80031167912E+03 0.  0.
         22    1    5    5    0    0 -0.20657941408E+03 -0.26054048135E+03  0.96620263098E+02  0.34625405699E+03  0.00000000000E+00 0. -1.
         22    1    5    5    0    0  0.19520673546E+03  0.13431142864E+03 -0.51227737857E+03  0.56442301692E+03  0.00000000000E+00 0. -1.
          5    1    4    4  502    0  0.93135722098E+00  0.10347174345E+03  0.43082359629E+02  0.11218488681E+03  0.47000000000E+01 0.  1.
         -5    1    4    4    0  502  0.10441321395E+02  0.22757309260E+02 -0.61951228246E+02  0.66984781842E+02  0.47000000000E+01 0.  1.
<mgrwt>
<rscale>  0 0.99947641E+03</rscale>
<asrwt>0</asrwt>
<pdfrwt beam="1">  1        2 0.11725944E+00 0.99947641E+03</pdfrwt>
<pdfrwt beam="2">  1       -2 0.50409290E-01 0.99947641E+03</pdfrwt>
<totfact> 0.16541015E+02</totfact>
</mgrwt>
</event>
<event>
 9    1  0.4307774E-036  0.1000226E+04  0.7818608E-02  0.8680823E-01
         -2   -1    0    0    0  501 -0.00000000000E+00  0.00000000000E+00  0.52037559803E+03  0.52037559803E+03  0.00000000000E+00 0.  1.
          2   -1    0    0  501    0  0.00000000000E+00 -0.00000000000E+00 -0.48063917793E+03  0.48063917793E+03  0.00000000000E+00 0.  1.
         36    2    1    2    0    0 -0.28421709430E-13 -0.71054273576E-14  0.39736420100E+02  0.10010147760E+04  0.10002257738E+04 0.  0.
         25    2    3    3    0    0 -0.12273686704E+03  0.48462214352E+00  0.72483865397E+02  0.18990710824E+03  0.12548396562E+03 0.  0.
         35    2    3    3    0    0  0.12273686704E+03 -0.48462214352E+00 -0.32747445298E+02  0.81110766772E+03  0.80109842096E+03 0.  0.
         22    1    5    5    0    0 -0.12013606750E+03 -0.32122519599E+03  0.14363796557E+03  0.37182007262E+03  0.00000000000E+00 0. -1.
         22    1    5    5    0    0  0.24287293454E+03  0.32074057384E+03 -0.17638541087E+03  0.43928759510E+03  0.00000000000E+00 0. -1.
          5    1    4    4  502    0  0.76078838412E+01 -0.37711914120E+02  0.84407341694E+01  0.39666161353E+02  0.47000000000E+01 0. -1.
         -5    1    4    4    0  502 -0.13034475088E+03  0.38196536263E+02  0.64043131228E+02  0.15024094689E+03  0.47000000000E+01 0. -1.
<mgrwt>
<rscale>  0 0.10002258E+04</rscale>
<asrwt>0</asrwt>
<pdfrwt beam="1">  1        2 0.73944490E-01 0.10002258E+04</pdfrwt>
<pdfrwt beam="2">  1       -2 0.80057784E-01 0.10002258E+04</pdfrwt>
<totfact> 0.10718230E+02</totfact>
</mgrwt>
</event>
<event>
 9    1  0.4307774E-036  0.9989903E+03  0.7818608E-02  0.8682000E-01
          2   -1    0    0  501    0  0.00000000000E+00  0.00000000000E+00  0.34853703684E+03  0.34853703684E+03  0.00000000000E+00 0. -1.
         -2   -1    0    0    0  501 -0.00000000000E+00 -0.00000000000E+00 -0.71583611668E+03  0.71583611668E+03  0.00000000000E+00 0. -1.
         36    2    1    2    0    0  0.14210854715E-13  0.71054273576E-14 -0.36729907984E+03  0.10643731535E+04  0.99899028818E+03 0.  0.
         25    2    3    3    0    0  0.83567046400E+02  0.20015821305E+02 -0.18506162751E+03  0.23926724692E+03  0.12496769632E+03 0.  0.
         35    2    3    3    0    0 -0.83567046400E+02 -0.20015821305E+02 -0.18223745233E+03  0.82510590660E+03  0.80012822956E+03 0.  0.
         22    1    5    5    0    0 -0.10276956918E+03 -0.20662941724E+03  0.25824727526E+03  0.34633647743E+03  0.00000000000E+00 0.  1.
         22    1    5    5    0    0  0.19202522782E+02  0.18661359594E+03 -0.44048472759E+03  0.47876942917E+03  0.00000000000E+00 0.  1.
          5    1    4    4  502    0 -0.27427660323E+02  0.47636808971E+01 -0.82886042541E+02  0.87562293567E+02  0.47000000000E+01 0.  1.
         -5    1    4    4    0  502  0.11099470672E+03  0.15252140408E+02 -0.10217558497E+03  0.15170495335E+03  0.47000000000E+01 0.  1.
<mgrwt>
<rscale>  0 0.99899029E+03</rscale>
<asrwt>0</asrwt>
<pdfrwt beam="1">  1        2 0.53621083E-01 0.99899029E+03</pdfrwt>
<pdfrwt beam="2">  1       -2 0.11012863E+00 0.99899029E+03</pdfrwt>
<totfact> 0.71681049E+01</totfact>
</mgrwt>
</event>
<event>
 9    1  0.4307774E-036  0.1002808E+04  0.7818608E-02  0.8678369E-01
         -2   -1    0    0    0  501 -0.00000000000E+00  0.00000000000E+00  0.69028252269E+02  0.69028252269E+02  0.00000000000E+00 0. -1.
          2   -1    0    0  501    0  0.00000000000E+00 -0.00000000000E+00 -0.36420731196E+04  0.36420731196E+04  0.00000000000E+00 0. -1.
         36    2    1    2    0    0  0.00000000000E+00 -0.10658141036E-13 -0.35730448673E+04  0.37111013718E+04  0.10028079419E+04 0.  0.
         25    2    3    3    0    0 -0.11821184090E+03 -0.22865423646E+02 -0.94032284821E+03  0.95627028015E+03  0.12549471260E+03 0.  0.
         35    2    3    3    0    0  0.11821184090E+03  0.22865423646E+02 -0.26327220191E+04  0.27548310917E+04  0.80210488531E+03 0.  0.
         22    1    5    5    0    0 -0.16767155064E+03 -0.27876305539E+03 -0.17396002086E+04  0.17697546371E+04  0.00000000000E+00 0. -1.
         22    1    5    5    0    0  0.28588339154E+03  0.30162847904E+03 -0.89312181049E+03  0.98507645455E+03  0.00000000000E+00 0. -1.
          5    1    4    4  502    0 -0.59464412671E+02  0.24771714557E+02 -0.72744025724E+03  0.73030204167E+03  0.47000000000E+01 0.  1.
         -5    1    4    4    0  502 -0.58747428230E+02 -0.47637138203E+02 -0.21288259097E+03  0.22596823847E+03  0.47000000000E+01 0.  1.
<mgrwt>
<rscale>  0 0.10028079E+04</rscale>
<asrwt>0</asrwt>
<pdfrwt beam="1">  1        2 0.56031901E+00 0.10028079E+04</pdfrwt>
<pdfrwt beam="2">  1       -2 0.10619730E-01 0.10028079E+04</pdfrwt>
<totfact> 0.40656903E+01</totfact>
</mgrwt>
</event>
<event>
 9    1  0.4307774E-036  0.1000912E+04  0.7818608E-02  0.8680170E-01
         -2   -1    0    0    0  501 -0.00000000000E+00  0.00000000000E+00  0.76563040052E+02  0.76563040052E+02  0.00000000000E+00 0. -1.
          2   -1    0    0  501    0  0.00000000000E+00 -0.00000000000E+00 -0.32712395813E+04  0.32712395813E+04  0.00000000000E+00 0. -1.
         36    2    1    2    0    0  0.00000000000E+00  0.00000000000E+00 -0.31946765412E+04  0.33478026213E+04  0.10009116786E+04 0.  0.
         25    2    3    3    0    0  0.13915985000E+03 -0.23666829498E+02 -0.57326723949E+03  0.60358016957E+03  0.12549147601E+03 0.  0.
         35    2    3    3    0    0 -0.13915985000E+03  0.23666829498E+02 -0.26214093017E+04  0.27442224518E+04  0.79940262375E+03 0.  0.
         22    1    5    5    0    0 -0.13153412396E+02 -0.77310727141E+02  0.32873056963E+02  0.85032926933E+02  0.00000000000E+00 0. -1.
         22    1    5    5    0    0 -0.12600643761E+03  0.10097755664E+03 -0.26542823587E+04  0.26591895248E+04  0.00000000000E+00 0. -1.
          5    1    4    4  502    0  0.17479952878E+02  0.31890284801E+02 -0.26479077961E+03  0.26731776219E+03  0.47000000000E+01 0.  1.
         -5    1    4    4    0  502  0.12167989713E+03 -0.55557114299E+02 -0.30847645988E+03  0.33626240738E+03  0.47000000000E+01 0.  1.
<mgrwt>
<rscale>  0 0.10009117E+04</rscale>
<asrwt>0</asrwt>
<pdfrwt beam="1">  1        2 0.50326758E+00 0.10009117E+04</pdfrwt>
<pdfrwt beam="2">  1       -2 0.11778930E-01 0.10009117E+04</pdfrwt>
<totfact> 0.64994920E+01</totfact>
</mgrwt>
</event>
<event>
 9    1  0.4307774E-036  0.1000030E+04  0.7818608E-02  0.8681009E-01
          2   -1    0    0  501    0  0.00000000000E+00  0.00000000000E+00  0.49769846641E+03  0.49769846641E+03  0.00000000000E+00 0.  1.
         -2   -1    0    0    0  501 -0.00000000000E+00 -0.00000000000E+00 -0.50234267483E+03  0.50234267483E+03  0.00000000000E+00 0.  1.
         36    2    1    2    0    0  0.00000000000E+00  0.00000000000E+00 -0.46442084133E+01  0.10000411412E+04  0.10000303573E+04 0.  0.
         25    2    3    3    0    0 -0.26118388372E+02 -0.65067698263E+02 -0.12263208613E+03  0.18845539880E+03  0.12474306882E+03 0.  0.
         35    2    3    3    0    0  0.26118388372E+02  0.65067698263E+02  0.11798787772E+03  0.81158574244E+03  0.79989643234E+03 0.  0.
         22    1    5    5    0    0  0.33545682710E+02 -0.16887462257E+03  0.40568172393E+03  0.44070581130E+03  0.00000000000E+00 0. -1.
         22    1    5    5    0    0 -0.74272943378E+01  0.23394232083E+03 -0.28769384621E+03  0.37087993115E+03  0.00000000000E+00 0. -1.
          5    1    4    4  502    0 -0.15653228724E+02  0.36207270387E+02 -0.46982761800E+02  0.61526091252E+02  0.47000000000E+01 0. -1.
         -5    1    4    4    0  502 -0.10465159647E+02 -0.10127496865E+03 -0.75649324334E+02  0.12692930754E+03  0.47000000000E+01 0. -1.
<mgrwt>
<rscale>  0 0.10000304E+04</rscale>
<asrwt>0</asrwt>
<pdfrwt beam="1">  1        2 0.76568995E-01 0.10000304E+04</pdfrwt>
<pdfrwt beam="2">  1       -2 0.77283488E-01 0.10000304E+04</pdfrwt>
<totfact> 0.11159958E+02</totfact>
</mgrwt>
</event>
<event>
 9    1  0.4307774E-036  0.1000546E+04  0.7818608E-02  0.8680518E-01
         -1   -1    0    0    0  501 -0.00000000000E+00  0.00000000000E+00  0.18301662842E+03  0.18301662842E+03  0.00000000000E+00 0.  1.
          1   -1    0    0  501    0  0.00000000000E+00 -0.00000000000E+00 -0.13674879610E+04  0.13674879610E+04  0.00000000000E+00 0.  1.
         36    2    1    2    0    0  0.28421709430E-13 -0.28421709430E-13 -0.11844713326E+04  0.15505045894E+04  0.10005459230E+04 0.  0.
         25    2    3    3    0    0 -0.61988272526E+02 -0.11537999545E+03 -0.14456928968E+03  0.23183905304E+03  0.12527560702E+03 0.  0.
         35    2    3    3    0    0  0.61988272526E+02  0.11537999545E+03 -0.10399020429E+04  0.13186655364E+04  0.80020462927E+03 0.  0.
         22    1    5    5    0    0 -0.19717684494E+03  0.38766358467E+03 -0.56243959411E+03  0.71098527417E+03  0.00000000000E+00 0.  1.
         22    1    5    5    0    0  0.25916511746E+03 -0.27228358922E+03 -0.47746244877E+03  0.60768026219E+03  0.00000000000E+00 0.  1.
          5    1    4    4  502    0  0.13524554681E+01  0.17794131212E+02 -0.57792934631E+02  0.60667730587E+02  0.47000000000E+01 0.  1.
         -5    1    4    4    0  502 -0.63340727994E+02 -0.13317412666E+03 -0.86776355054E+02  0.17117132246E+03  0.47000000000E+01 0.  1.
<mgrwt>
<rscale>  0 0.10005459E+04</rscale>
<asrwt>0</asrwt>
<pdfrwt beam="1">  1        1 0.21038277E+00 0.10005459E+04</pdfrwt>
<pdfrwt beam="2">  1       -1 0.28156404E-01 0.10005459E+04</pdfrwt>
<totfact> 0.10060591E+02</totfact>
</mgrwt>
</event>
<event>
 9    1  0.4307774E-036  0.9994696E+03  0.7818608E-02  0.8681543E-01
         -2   -1    0    0    0  501 -0.00000000000E+00  0.00000000000E+00  0.30182150442E+03  0.30182150442E+03  0.00000000000E+00 0. -1.
          2   -1    0    0  501    0  0.00000000000E+00 -0.00000000000E+00 -0.82742563418E+03  0.82742563418E+03  0.00000000000E+00 0. -1.
         36    2    1    2    0    0  0.00000000000E+00  0.00000000000E+00 -0.52560412975E+03  0.11292471386E+04  0.99946955873E+03 0.  0.
         25    2    3    3    0    0  0.13477237784E+03 -0.39076050086E+02 -0.82293546360E+02  0.20533668330E+03  0.12530121395E+03 0.  0.
         35    2    3    3    0    0 -0.13477237784E+03  0.39076050086E+02 -0.44331058339E+03  0.92391045530E+03  0.79837066864E+03 0.  0.
         22    1    5    5    0    0 -0.44956644460E+03  0.66668164854E+01 -0.10710585363E+03  0.46219703421E+03  0.00000000000E+00 0. -1.
         22    1    5    5    0    0  0.31479406677E+03  0.32409233600E+02 -0.33620472977E+03  0.46171342109E+03  0.00000000000E+00 0. -1.
          5    1    4    4  502    0 -0.14034508429E+02  0.22565961798E+02 -0.11975306349E+02  0.29524363174E+02  0.47000000000E+01 0.  1.
         -5    1    4    4    0  502  0.14880688627E+03 -0.61642011883E+02 -0.70318240012E+02  0.17581232013E+03  0.47000000000E+01 0.  1.
<mgrwt>
<rscale>  0 0.99946956E+03</rscale>
<asrwt>0</asrwt>
<pdfrwt beam="1">  1        2 0.12729625E+00 0.99946956E+03</pdfrwt>
<pdfrwt beam="2">  1       -2 0.46434078E-01 0.99946956E+03</pdfrwt>
<totfact> 0.17518909E+02</totfact>
</mgrwt>
</event>
<event>
 9    1  0.4307774E-036  0.9992229E+03  0.7818608E-02  0.8681778E-01
         -1   -1    0    0    0  501 -0.00000000000E+00  0.00000000000E+00  0.17525047531E+03  0.17525047531E+03  0.00000000000E+00 0. -1.
          1   -1    0    0  501    0  0.00000000000E+00 -0.00000000000E+00 -0.14243134764E+04  0.14243134764E+04  0.00000000000E+00 0. -1.
         36    2    1    2    0    0 -0.14210854715E-13  0.28421709430E-13 -0.12490630011E+04  0.15995639517E+04  0.99922292552E+03 0.  0.
         25    2    3    3    0    0 -0.63286278233E+02 -0.13186292932E+03 -0.22292086213E+03  0.29446513058E+03  0.12499206860E+03 0.  0.
         35    2    3    3    0    0  0.63286278233E+02  0.13186292932E+03 -0.10261421389E+04  0.13050988211E+04  0.79304618932E+03 0.  0.
         22    1    5    5    0    0 -0.12402180848E+03  0.21845907695E+03 -0.10657663273E+04  0.10949719822E+04  0.00000000000E+00 0.  1.
         22    1    5    5    0    0  0.18730808672E+03 -0.86596147629E+02  0.39624188385E+02  0.21012683893E+03  0.00000000000E+00 0.  1.
          5    1    4    4  502    0 -0.74849600260E+02 -0.29791252044E+02 -0.55341703397E+02  0.97850781766E+02  0.47000000000E+01 0. -1.
         -5    1    4    4    0  502  0.11563322027E+02 -0.10207167728E+03 -0.16757915873E+03  0.19661434882E+03  0.47000000000E+01 0. -1.
<mgrwt>
<rscale>  0 0.99922293E+03</rscale>
<asrwt>0</asrwt>
<pdfrwt beam="1">  1        1 0.21912515E+00 0.99922293E+03</pdfrwt>
<pdfrwt beam="2">  1       -1 0.26961612E-01 0.99922293E+03</pdfrwt>
<totfact> 0.98561001E+01</totfact>
</mgrwt>
</event>
<event>
 9    1  0.4307774E-036  0.9998091E+03  0.7818608E-02  0.8681220E-01
         -1   -1    0    0    0  501 -0.00000000000E+00  0.00000000000E+00  0.14885289754E+03  0.14885289754E+03  0.00000000000E+00 0. -1.
          1   -1    0    0  501    0  0.00000000000E+00 -0.00000000000E+00 -0.16788692889E+04  0.16788692889E+04  0.00000000000E+00 0. -1.
         36    2    1    2    0    0 -0.14210854715E-13  0.71054273576E-14 -0.15300163913E+04  0.18277221864E+04  0.99980909826E+03 0.  0.
         25    2    3    3    0    0  0.94938206985E+02 -0.34277035229E+02 -0.11549294066E+03  0.19946824214E+03  0.12751777127E+03 0.  0.
         35    2    3    3    0    0 -0.94938206985E+02  0.34277035229E+02 -0.14145234507E+04  0.16282539443E+04  0.80009132995E+03 0.  0.
         22    1    5    5    0    0 -0.29330604193E+03  0.24657209814E+03 -0.12195964368E+04  0.12783746331E+04  0.00000000000E+00 0. -1.
         22    1    5    5    0    0  0.19836783495E+03 -0.21229506291E+03 -0.19492701390E+03  0.34987931123E+03  0.00000000000E+00 0. -1.
          5    1    4    4  502    0  0.73810548666E+02 -0.26009329401E+02 -0.14325681074E+03  0.16330672409E+03  0.47000000000E+01 0.  1.
         -5    1    4    4    0  502  0.21127658320E+02 -0.82677058281E+01  0.27763870078E+02  0.36161518047E+02  0.47000000000E+01 0.  1.
<mgrwt>
<rscale>  0 0.99980910E+03</rscale>
<asrwt>0</asrwt>
<pdfrwt beam="1">  1        1 0.25828759E+00 0.99980910E+03</pdfrwt>
<pdfrwt beam="2">  1       -1 0.22900445E-01 0.99980910E+03</pdfrwt>
<totfact> 0.85495564E+01</totfact>
</mgrwt>
</event>
<event>
 9    1  0.4307774E-036  0.9999387E+03  0.7818608E-02  0.8681096E-01
         -1   -1    0    0    0  501 -0.00000000000E+00  0.00000000000E+00  0.79789634259E+02  0.79789634259E+02  0.00000000000E+00 0.  1.
          1   -1    0    0  501    0  0.00000000000E+00 -0.00000000000E+00 -0.31328551797E+04  0.31328551797E+04  0.00000000000E+00 0.  1.
         36    2    1    2    0    0  0.00000000000E+00  0.00000000000E+00 -0.30530655455E+04  0.32126448140E+04  0.99993873608E+03 0.  0.
         25    2    3    3    0    0 -0.68846331630E+02  0.61097974407E+02 -0.88947458924E+03  0.90461279502E+03  0.13669851557E+03 0.  0.
         35    2    3    3    0    0  0.68846331630E+02 -0.61097974407E+02 -0.21635909562E+04  0.23080320190E+04  0.79838160978E+03 0.  0.
         22    1    5    5    0    0  0.73741141436E+02 -0.17930753107E+03 -0.62631630144E+02  0.20374412319E+03  0.00000000000E+00 0. -1.
         22    1    5    5    0    0 -0.48948098059E+01  0.11820955666E+03 -0.21009593261E+04  0.21042878958E+04  0.00000000000E+00 0. -1.
          5    1    4    4  502    0 -0.12965837255E+01  0.90745598511E+02 -0.48697433806E+03  0.49538120747E+03  0.47000000000E+01 0.  1.
         -5    1    4    4    0  502 -0.67549747905E+02 -0.29647624104E+02 -0.40250025117E+03  0.40923158755E+03  0.47000000000E+01 0.  1.
<mgrwt>
<rscale>  0 0.99993874E+03</rscale>
<asrwt>0</asrwt>
<pdfrwt beam="1">  1        1 0.48197772E+00 0.99993874E+03</pdfrwt>
<pdfrwt beam="2">  1       -1 0.12275328E-01 0.99993874E+03</pdfrwt>
<totfact> 0.22100358E+01</totfact>
</mgrwt>
</event>
<event>
 9    1  0.4307774E-036  0.9991204E+03  0.7818608E-02  0.8681876E-01
         -1   -1    0    0    0  501 -0.00000000000E+00  0.00000000000E+00  0.88142947040E+03  0.88142947040E+03  0.00000000000E+00 0.  1.
          1   -1    0    0  501    0  0.00000000000E+00 -0.00000000000E+00 -0.28313141551E+03  0.28313141551E+03  0.00000000000E+00 0.  1.
         36    2    1    2    0    0  0.00000000000E+00  0.56843418861E-13  0.59829805489E+03  0.11645608859E+04  0.99912036037E+03 0.  0.
         25    2    3    3    0    0 -0.75170856631E+01  0.13412930795E+03  0.69997721874E+02  0.19663498241E+03  0.12537327231E+03 0.  0.
         35    2    3    3    0    0  0.75170856631E+01 -0.13412930795E+03  0.52830033302E+03  0.96792590351E+03  0.79983256685E+03 0.  0.
         22    1    5    5    0    0  0.25525324710E+03  0.21592622420E+03  0.72518532924E+02  0.34210713536E+03  0.00000000000E+00 0.  1.
         22    1    5    5    0    0 -0.24773616144E+03 -0.35005553214E+03  0.45578180009E+03  0.62581876814E+03  0.00000000000E+00 0.  1.
          5    1    4    4  502    0 -0.46576680316E+01  0.77392124386E+02  0.10434643941E+03  0.13008268219E+03  0.47000000000E+01 0. -1.
         -5    1    4    4    0  502 -0.28594176315E+01  0.56737183561E+02 -0.34348717535E+02  0.66552300215E+02  0.47000000000E+01 0. -1.
<mgrwt>
<rscale>  0 0.99912036E+03</rscale>
<asrwt>0</asrwt>
<pdfrwt beam="1">  1        1 0.43558680E-01 0.99912036E+03</pdfrwt>
<pdfrwt beam="2">  1       -1 0.13560453E+00 0.99912036E+03</pdfrwt>
<totfact> 0.51365771E+01</totfact>
</mgrwt>
</event>
<event>
 9    1  0.4307774E-036  0.9999160E+03  0.7818608E-02  0.8681118E-01
          1   -1    0    0  501    0  0.00000000000E+00  0.00000000000E+00  0.10920498825E+04  0.10920498825E+04  0.00000000000E+00 0. -1.
         -1   -1    0    0    0  501 -0.00000000000E+00 -0.00000000000E+00 -0.22888882167E+03  0.22888882167E+03  0.00000000000E+00 0. -1.
         36    2    1    2    0    0  0.00000000000E+00 -0.14210854715E-13  0.86316106082E+03  0.13209387042E+04  0.99991601810E+03 0.  0.
         25    2    3    3    0    0  0.79824721069E+02 -0.88961703361E+02  0.25837383941E+03  0.31104759964E+03  0.12532915700E+03 0.  0.
         35    2    3    3    0    0 -0.79824721069E+02  0.88961703361E+02  0.60478722142E+03  0.10098911045E+04  0.79989142329E+03 0.  0.
         22    1    5    5    0    0  0.76338768121E-01  0.14526652654E+03 -0.17304815450E+03  0.22593811837E+03  0.00000000000E+00 0.  1.
         22    1    5    5    0    0 -0.79901059837E+02 -0.56304823177E+02  0.77783537591E+03  0.78395298615E+03  0.00000000000E+00 0.  1.
          5    1    4    4  502    0 -0.12183742367E+02 -0.65779109355E+01  0.13715688572E+03  0.13793409220E+03  0.47000000000E+01 0. -1.
         -5    1    4    4    0  502  0.92008463436E+02 -0.82383792425E+02  0.12121695368E+03  0.17311350744E+03  0.47000000000E+01 0. -1.
<mgrwt>
<rscale>  0 0.99991602E+03</rscale>
<asrwt>0</asrwt>
<pdfrwt beam="1">  1        1 0.16800767E+00 0.99991602E+03</pdfrwt>
<pdfrwt beam="2">  1       -1 0.35213666E-01 0.99991602E+03</pdfrwt>
<totfact> 0.10965669E+02</totfact>
</mgrwt>
</event>
<event>
 9    1  0.4307774E-036  0.1000586E+04  0.7818608E-02  0.8680480E-01
         -1   -1    0    0    0  501 -0.00000000000E+00  0.00000000000E+00  0.17310298988E+03  0.17310298988E+03  0.00000000000E+00 0. -1.
          1   -1    0    0  501    0  0.00000000000E+00 -0.00000000000E+00 -0.14459197712E+04  0.14459197712E+04  0.00000000000E+00 0. -1.
         36    2    1    2    0    0 -0.17763568394E-14  0.14210854715E-13 -0.12728167814E+04  0.16190227611E+04  0.10005858994E+04 0.  0.
         25    2    3    3    0    0  0.10138164978E+02  0.11190070661E+03 -0.37824388063E+03  0.41386734708E+03  0.12487272407E+03 0.  0.
         35    2    3    3    0    0 -0.10138164978E+02 -0.11190070661E+03 -0.89457290074E+03  0.12051554140E+04  0.79969640910E+03 0.  0.
         22    1    5    5    0    0 -0.74172414735E+01 -0.17502237220E+03  0.10457027990E+03  0.20401664069E+03  0.00000000000E+00 0. -1.
         22    1    5    5    0    0 -0.27209235045E+01  0.63121665591E+02 -0.99914318064E+03  0.10011387734E+04  0.00000000000E+00 0. -1.
          5    1    4    4  502    0  0.12894847487E+02 -0.20231881664E+02 -0.18717042620E+02  0.30789995320E+02  0.47000000000E+01 0.  1.
         -5    1    4    4    0  502 -0.27566825087E+01  0.13213258827E+03 -0.35952683801E+03  0.38307735176E+03  0.47000000000E+01 0.  1.
<mgrwt>
<rscale>  0 0.10005859E+04</rscale>
<asrwt>0</asrwt>
<pdfrwt beam="1">  1        1 0.22244919E+00 0.10005859E+04</pdfrwt>
<pdfrwt beam="2">  1       -1 0.26631229E-01 0.10005859E+04</pdfrwt>
<totfact> 0.97100824E+01</totfact>
</mgrwt>
</event>
<event>
 9    1  0.4307774E-036  0.1000427E+04  0.7818608E-02  0.8680632E-01
         -1   -1    0    0    0  501 -0.00000000000E+00  0.00000000000E+00  0.79383638228E+03  0.79383638228E+03  0.00000000000E+00 0.  1.
          1   -1    0    0  501    0  0.00000000000E+00 -0.00000000000E+00 -0.31519519490E+03  0.31519519490E+03  0.00000000000E+00 0.  1.
         36    2    1    2    0    0  0.00000000000E+00  0.00000000000E+00  0.47864118738E+03  0.11090315772E+04  0.10004267354E+04 0.  0.
         25    2    3    3    0    0 -0.43682323958E+02  0.52719028125E+02  0.22962814428E+03  0.26983948547E+03  0.12408393094E+03 0.  0.
         35    2    3    3    0    0  0.43682323958E+02 -0.52719028125E+02  0.24901304309E+03  0.83919209171E+03  0.79846629848E+03 0.  0.
         22    1    5    5    0    0  0.17927307093E+03 -0.29136534086E+03 -0.13448993263E+03  0.36758691189E+03  0.00000000000E+00 0.  1.
         22    1    5    5    0    0 -0.13559074697E+03  0.23864631273E+03  0.38350297572E+03  0.47160517982E+03  0.00000000000E+00 0.  1.
          5    1    4    4  502    0 -0.62144993744E+02  0.19944931256E+02  0.40513147900E+02  0.76962365367E+02  0.47000000000E+01 0.  1.
         -5    1    4    4    0  502  0.18462669785E+02  0.32774096869E+02  0.18911499639E+03  0.19287712010E+03  0.47000000000E+01 0.  1.
<mgrwt>
<rscale>  0 0.10004267E+04</rscale>
<asrwt>0</asrwt>
<pdfrwt beam="1">  1        1 0.48491569E-01 0.10004267E+04</pdfrwt>
<pdfrwt beam="2">  1       -1 0.12212867E+00 0.10004267E+04</pdfrwt>
<totfact> 0.58534745E+01</totfact>
</mgrwt>
</event>
<event>
 9    1  0.4307774E-036  0.9985297E+03  0.7818608E-02  0.8682439E-01
         -2   -1    0    0    0  501 -0.00000000000E+00  0.00000000000E+00  0.22629578835E+03  0.22629578835E+03  0.00000000000E+00 0.  1.
          2   -1    0    0  501    0  0.00000000000E+00 -0.00000000000E+00 -0.11015025365E+04  0.11015025365E+04  0.00000000000E+00 0.  1.
         36    2    1    2    0    0  0.00000000000E+00  0.00000000000E+00 -0.87520674818E+03  0.13277983249E+04  0.99852968885E+03 0.  0.
         25    2    3    3    0    0 -0.79064409187E+02 -0.84970937677E+02 -0.26412472972E+03  0.31426720342E+03  0.12462247489E+03 0.  0.
         35    2    3    3    0    0  0.79064409187E+02  0.84970937677E+02 -0.61108201846E+03  0.10135311215E+04  0.80022050701E+03 0.  0.
         22    1    5    5    0    0  0.16884510817E+03  0.10266007506E+03  0.14929823940E+03  0.24766454298E+03  0.00000000000E+00 0. -1.
         22    1    5    5    0    0 -0.89780698978E+02 -0.17689137382E+02 -0.76038025786E+03  0.76586657848E+03  0.00000000000E+00 0. -1.
          5    1    4    4  502    0  0.17554176115E+02 -0.53622948776E+02 -0.15544086118E+03  0.16543131825E+03  0.47000000000E+01 0. -1.
         -5    1    4    4    0  502 -0.96618585302E+02 -0.31347988901E+02 -0.10868386854E+03  0.14883588517E+03  0.47000000000E+01 0. -1.
<mgrwt>
<rscale>  0 0.99852969E+03</rscale>
<asrwt>0</asrwt>
<pdfrwt beam="1">  1        2 0.16946193E+00 0.99852969E+03</pdfrwt>
<pdfrwt beam="2">  1       -2 0.34814737E-01 0.99852969E+03</pdfrwt>
<totfact> 0.20299681E+02</totfact>
</mgrwt>
</event>
<event>
 9    1  0.4307774E-036  0.1001834E+04  0.7818608E-02  0.8679293E-01
          2   -1    0    0  501    0  0.00000000000E+00  0.00000000000E+00  0.58297761578E+03  0.58297761578E+03  0.00000000000E+00 0.  1.
         -2   -1    0    0    0  501 -0.00000000000E+00 -0.00000000000E+00 -0.43040765752E+03  0.43040765752E+03  0.00000000000E+00 0.  1.
         36    2    1    2    0    0  0.21316282073E-13  0.00000000000E+00  0.15256995826E+03  0.10133852733E+04  0.10018343775E+04 0.  0.
         25    2    3    3    0    0 -0.22346982814E+02 -0.13905879456E+03  0.21898992178E+02  0.19018401613E+03  0.12591131064E+03 0.  0.
         35    2    3    3    0    0  0.22346982814E+02  0.13905879456E+03  0.13067096608E+03  0.82320125717E+03  0.80046778351E+03 0.  0.
         22    1    5    5    0    0 -0.25261760218E+03  0.15586826545E+03 -0.22561009302E+03  0.37284109642E+03  0.00000000000E+00 0. -1.
         22    1    5    5    0    0  0.27496458499E+03 -0.16809470893E+02  0.35628105910E+03  0.45036016075E+03  0.00000000000E+00 0. -1.
          5    1    4    4  502    0  0.41715732316E+02 -0.10337767329E+03 -0.56266903029E+01  0.11171792740E+03  0.47000000000E+01 0. -1.
         -5    1    4    4    0  502 -0.64062715131E+02 -0.35681121264E+02  0.27525682481E+02  0.78466088730E+02  0.47000000000E+01 0. -1.
<mgrwt>
<rscale>  0 0.10018344E+04</rscale>
<asrwt>0</asrwt>
<pdfrwt beam="1">  1        2 0.89688864E-01 0.10018344E+04</pdfrwt>
<pdfrwt beam="2">  1       -2 0.66216563E-01 0.10018344E+04</pdfrwt>
<totfact> 0.13032181E+02</totfact>
</mgrwt>
</event>
<event>
 9    1  0.4307774E-036  0.1000133E+04  0.7818608E-02  0.8680912E-01
          2   -1    0    0  501    0  0.00000000000E+00  0.00000000000E+00  0.61993713963E+03  0.61993713963E+03  0.00000000000E+00 0. -1.
         -2   -1    0    0    0  501 -0.00000000000E+00 -0.00000000000E+00 -0.40337363893E+03  0.40337363893E+03  0.00000000000E+00 0. -1.
         36    2    1    2    0    0  0.28421709430E-13  0.14210854715E-13  0.21656350070E+03  0.10233107786E+04  0.10001325911E+04 0.  0.
         25    2    3    3    0    0 -0.86660947028E+02  0.11150454007E+03  0.30624352305E+02  0.19056939427E+03  0.12423953027E+03 0.  0.
         35    2    3    3    0    0  0.86660947028E+02 -0.11150454007E+03  0.18593914839E+03  0.83274138429E+03  0.79933814122E+03 0.  0.
         22    1    5    5    0    0  0.38211254276E+03 -0.27449376885E+03  0.68418433002E+02  0.47543443969E+03  0.00000000000E+00 0.  1.
         22    1    5    5    0    0 -0.29545159573E+03  0.16298922877E+03  0.11752071539E+03  0.35730694460E+03  0.00000000000E+00 0.  1.
          5    1    4    4  502    0 -0.20177269339E+02  0.42261235151E+02  0.71930507227E+02  0.85960584365E+02  0.47000000000E+01 0.  1.
         -5    1    4    4    0  502 -0.66483677689E+02  0.69243304923E+02 -0.41306154922E+02  0.10460880991E+03  0.47000000000E+01 0.  1.
<mgrwt>
<rscale>  0 0.10001326E+04</rscale>
<asrwt>0</asrwt>
<pdfrwt beam="1">  1        2 0.95374944E-01 0.10001326E+04</pdfrwt>
<pdfrwt beam="2">  1       -2 0.62057483E-01 0.10001326E+04</pdfrwt>
<totfact> 0.13903210E+02</totfact>
</mgrwt>
</event>
<event>
 9    1  0.4307774E-036  0.9996469E+03  0.7818608E-02  0.8681374E-01
          2   -1    0    0  501    0  0.00000000000E+00  0.00000000000E+00  0.55665958033E+03  0.55665958033E+03  0.00000000000E+00 0. -1.
         -2   -1    0    0    0  501 -0.00000000000E+00 -0.00000000000E+00 -0.44879042036E+03  0.44879042036E+03  0.00000000000E+00 0. -1.
         36    2    1    2    0    0  0.46185277824E-13  0.00000000000E+00  0.10786915997E+03  0.10054500007E+04  0.99964691177E+03 0.  0.
         25    2    3    3    0    0 -0.94873403752E+01 -0.13846901247E+03  0.10295092515E+02  0.18725865389E+03  0.12528422680E+03 0.  0.
         35    2    3    3    0    0  0.94873403752E+01  0.13846901247E+03  0.97574067453E+02  0.81819134680E+03  0.80040783623E+03 0.  0.
         22    1    5    5    0    0 -0.31853859703E+03 -0.14555498458E+03  0.15028073265E+03  0.38110023608E+03  0.00000000000E+00 0. -1.
         22    1    5    5    0    0  0.32802593740E+03  0.28402399705E+03 -0.52706665201E+02  0.43709111072E+03  0.00000000000E+00 0. -1.
          5    1    4    4  502    0  0.16797426563E+02 -0.13165351012E+03 -0.32161254250E+02  0.13664273321E+03  0.47000000000E+01 0.  1.
         -5    1    4    4    0  502 -0.26284766938E+02 -0.68155023515E+01  0.42456346765E+02  0.50615920677E+02  0.47000000000E+01 0.  1.
<mgrwt>
<rscale>  0 0.99964691E+03</rscale>
<asrwt>0</asrwt>
<pdfrwt beam="1">  1        2 0.85639936E-01 0.99964691E+03</pdfrwt>
<pdfrwt beam="2">  1       -2 0.69044680E-01 0.99964691E+03</pdfrwt>
<totfact> 0.12574714E+02</totfact>
</mgrwt>
</event>
<event>
 9    1  0.4307774E-036  0.1000443E+04  0.7818608E-02  0.8680616E-01
         -2   -1    0    0    0  501 -0.00000000000E+00  0.00000000000E+00  0.28669520565E+03  0.28669520565E+03  0.00000000000E+00 0.  1.
          2   -1    0    0  501    0  0.00000000000E+00 -0.00000000000E+00 -0.87277903211E+03  0.87277903211E+03  0.00000000000E+00 0.  1.
         36    2    1    2    0    0 -0.71054273576E-14  0.00000000000E+00 -0.58608382646E+03  0.11594742378E+04  0.10004430301E+04 0.  0.
         25    2    3    3    0    0  0.60443017571E+02 -0.10503334252E+03 -0.18288948356E+03  0.25541158741E+03  0.13077138209E+03 0.  0.
         35    2    3    3    0    0 -0.60443017571E+02  0.10503334252E+03 -0.40319434290E+03  0.90406265035E+03  0.80004889613E+03 0.  0.
         22    1    5    5    0    0  0.12210273428E+02  0.15490632199E+03  0.22294481489E+03  0.27175255262E+03  0.00000000000E+00 0.  1.
         22    1    5    5    0    0 -0.72653290999E+02 -0.49872979472E+02 -0.62613915779E+03  0.63231009773E+03  0.00000000000E+00 0.  1.
          5    1    4    4  502    0 -0.22026641636E+02 -0.66070774038E+02 -0.13571954850E+03  0.15261849812E+03  0.47000000000E+01 0. -1.
         -5    1    4    4    0  502  0.82469659207E+02 -0.38962568483E+02 -0.47169935054E+02  0.10279308929E+03  0.47000000000E+01 0. -1.
<mgrwt>
<rscale>  0 0.10004430E+04</rscale>
<asrwt>0</asrwt>
<pdfrwt beam="1">  1        2 0.13427370E+00 0.10004430E+04</pdfrwt>
<pdfrwt beam="2">  1       -2 0.44106955E-01 0.10004430E+04</pdfrwt>
<totfact> 0.18051778E+02</totfact>
</mgrwt>
</event>
<event>
 9    1  0.4307774E-036  0.1000157E+04  0.7818608E-02  0.8680889E-01
          1   -1    0    0  501    0  0.00000000000E+00  0.00000000000E+00  0.30103222707E+04  0.30103222707E+04  0.00000000000E+00 0. -1.
         -1   -1    0    0    0  501 -0.00000000000E+00 -0.00000000000E+00 -0.83073651962E+02  0.83073651962E+02  0.00000000000E+00 0. -1.
         36    2    1    2    0    0  0.28421709430E-13  0.00000000000E+00  0.29272486188E+04  0.30933959227E+04  0.10001569169E+04 0.  0.
         25    2    3    3    0    0  0.91593704129E+02  0.20404303052E+02  0.22416497873E+03  0.27324651070E+03  0.12493188425E+03 0.  0.
         35    2    3    3    0    0 -0.91593704129E+02 -0.20404303052E+02  0.27030836400E+04  0.28201494120E+04  0.79860866430E+03 0.  0.
         22    1    5    5    0    0 -0.34944455310E+03  0.17528088322E+03  0.80785904389E+03  0.89748042793E+03  0.00000000000E+00 0. -1.
         22    1    5    5    0    0  0.25785084897E+03 -0.19568518627E+03  0.18952245961E+04  0.19226689841E+04  0.00000000000E+00 0. -1.
          5    1    4    4  502    0  0.28284840239E+01 -0.26343217339E+02  0.13895650288E+03  0.14153785753E+03  0.47000000000E+01 0. -1.
         -5    1    4    4    0  502  0.88765220105E+02  0.46747520391E+02  0.85208475848E+02  0.13170865317E+03  0.47000000000E+01 0. -1.
<mgrwt>
<rscale>  0 0.10001569E+04</rscale>
<asrwt>0</asrwt>
<pdfrwt beam="1">  1        1 0.46312642E+00 0.10001569E+04</pdfrwt>
<pdfrwt beam="2">  1       -1 0.12780564E-01 0.10001569E+04</pdfrwt>
<totfact> 0.25460662E+01</totfact>
</mgrwt>
</event>
<event>
 9    1  0.4307774E-036  0.1013296E+04  0.7818608E-02  0.8668478E-01
          2   -1    0    0  501    0  0.00000000000E+00  0.00000000000E+00  0.53524668710E+03  0.53524668710E+03  0.00000000000E+00 0. -1.
         -2   -1    0    0    0  501 -0.00000000000E+00 -0.00000000000E+00 -0.47957744448E+03  0.47957744448E+03  0.00000000000E+00 0. -1.
         36    2    1    2    0    0  0.28421709430E-13  0.00000000000E+00  0.55669242622E+02  0.10148241316E+04  0.10132960838E+04 0.  0.
         25    2    3    3    0    0  0.10635926980E+03  0.25467145520E+02  0.12816576416E+03  0.20379570621E+03  0.11465320315E+03 0.  0.
         35    2    3    3    0    0 -0.10635926980E+03 -0.25467145520E+02 -0.72496521536E+02  0.81102842538E+03  0.80034398315E+03 0.  0.
         22    1    5    5    0    0 -0.37124522859E+03 -0.47106760560E+02  0.20508266885E+03  0.42673289972E+03  0.00000000000E+00 0.  1.
         22    1    5    5    0    0  0.26488595879E+03  0.21639615039E+02 -0.27757919039E+03  0.38429552566E+03  0.00000000000E+00 0.  1.
          5    1    4    4  502    0  0.20062715275E+02 -0.35778601085E+02  0.53858188176E+01  0.41637938039E+02  0.47000000000E+01 0.  1.
         -5    1    4    4    0  502  0.86296554522E+02  0.61245746605E+02  0.12277994534E+03  0.16215776817E+03  0.47000000000E+01 0.  1.
<mgrwt>
<rscale>  0 0.10132961E+04</rscale>
<asrwt>0</asrwt>
<pdfrwt beam="1">  1        2 0.82345644E-01 0.10132961E+04</pdfrwt>
<pdfrwt beam="2">  1       -2 0.73781145E-01 0.10132961E+04</pdfrwt>
<totfact> 0.11377919E+02</totfact>
</mgrwt>
</event>
<event>
 9    1  0.4307774E-036  0.1000430E+04  0.7818608E-02  0.8680628E-01
         -2   -1    0    0    0  501 -0.00000000000E+00  0.00000000000E+00  0.36572210983E+03  0.36572210983E+03  0.00000000000E+00 0.  1.
          2   -1    0    0  501    0  0.00000000000E+00 -0.00000000000E+00 -0.68416752484E+03  0.68416752484E+03  0.00000000000E+00 0.  1.
         36    2    1    2    0    0 -0.14210854715E-13 -0.42632564146E-13 -0.31844541502E+03  0.10498896347E+04  0.10004302887E+04 0.  0.
         25    2    3    3    0    0  0.16631919972E+02 -0.99184331137E+02 -0.18528037337E+03  0.24466037839E+03  0.12416010508E+03 0.  0.
         35    2    3    3    0    0 -0.16631919972E+02  0.99184331137E+02 -0.13316504164E+03  0.80522925628E+03  0.78774810349E+03 0.  0.
         22    1    5    5    0    0 -0.15378640117E+03  0.40249316218E+03  0.34988497041E+02  0.43229064032E+03  0.00000000000E+00 0. -1.
         22    1    5    5    0    0  0.13715448120E+03 -0.30330883104E+03 -0.16815353868E+03  0.37293861596E+03  0.00000000000E+00 0. -1.
          5    1    4    4  502    0 -0.52490171082E+01 -0.12214289418E+03 -0.11727281031E+03  0.16947401222E+03  0.47000000000E+01 0. -1.
         -5    1    4    4    0  502  0.21880937081E+02  0.22958563043E+02 -0.68007563064E+02  0.75186366174E+02  0.47000000000E+01 0. -1.
<mgrwt>
<rscale>  0 0.10004303E+04</rscale>
<asrwt>0</asrwt>
<pdfrwt beam="1">  1        2 0.10525654E+00 0.10004303E+04</pdfrwt>
<pdfrwt beam="2">  1       -2 0.56264940E-01 0.10004303E+04</pdfrwt>
<totfact> 0.15132504E+02</totfact>
</mgrwt>
</event>
<event>
 9    1  0.4307774E-036  0.1001529E+04  0.7818608E-02  0.8679584E-01
         -2   -1    0    0    0  501 -0.00000000000E+00  0.00000000000E+00  0.25252058268E+03  0.25252058268E+03  0.00000000000E+00 0.  1.
          2   -1    0    0  501    0  0.00000000000E+00 -0.00000000000E+00 -0.99304750830E+03  0.99304750830E+03  0.00000000000E+00 0.  1.
         36    2    1    2    0    0  0.00000000000E+00  0.00000000000E+00 -0.74052692562E+03  0.12455680910E+04  0.10015287024E+04 0.  0.
         25    2    3    3    0    0 -0.26663940160E+02  0.14037605131E+03 -0.13267027266E+03  0.23148477168E+03  0.12476937439E+03 0.  0.
         35    2    3    3    0    0  0.26663940160E+02 -0.14037605131E+03 -0.60785665296E+03  0.10140833193E+04  0.79903621097E+03 0.  0.
         22    1    5    5    0    0 -0.15579679658E+03  0.78633592668E+02 -0.69454696595E+03  0.71613641971E+03  0.00000000000E+00 0.  1.
         22    1    5    5    0    0  0.18246073674E+03 -0.21900964397E+03  0.86690312993E+02  0.29794689959E+03  0.00000000000E+00 0.  1.
          5    1    4    4  502    0 -0.31889016163E+02  0.10133139440E+03 -0.15099813625E+02  0.10740137436E+03  0.47000000000E+01 0.  1.
         -5    1    4    4    0  502  0.52250760027E+01  0.39044656905E+02 -0.11757045904E+03  0.12408339732E+03  0.47000000000E+01 0.  1.
<mgrwt>
<rscale>  0 0.10015287E+04</rscale>
<asrwt>0</asrwt>
<pdfrwt beam="1">  1        2 0.15277654E+00 0.10015287E+04</pdfrwt>
<pdfrwt beam="2">  1       -2 0.38849320E-01 0.10015287E+04</pdfrwt>
<totfact> 0.19264972E+02</totfact>
</mgrwt>
</event>
<event>
 9    1  0.4307774E-036  0.1000068E+04  0.7818608E-02  0.8680973E-01
          1   -1    0    0  501    0  0.00000000000E+00  0.00000000000E+00  0.21346169824E+03  0.21346169824E+03  0.00000000000E+00 0. -1.
         -1   -1    0    0    0  501 -0.00000000000E+00 -0.00000000000E+00 -0.11713291540E+04  0.11713291540E+04  0.00000000000E+00 0. -1.
         36    2    1    2    0    0  0.35527136788E-14  0.28421709430E-13 -0.95786745574E+03  0.13847908522E+04  0.10000678185E+04 0.  0.
         25    2    3    3    0    0  0.11008294616E+01  0.13420444522E+03 -0.12025339642E+03  0.21962205743E+03  0.12554251798E+03 0.  0.
         35    2    3    3    0    0 -0.11008294616E+01 -0.13420444522E+03 -0.83761405932E+03  0.11651687948E+04  0.79875463256E+03 0.  0.
         22    1    5    5    0    0 -0.88590015089E+02 -0.39829419962E+03 -0.78114511572E+03  0.88129118459E+03  0.00000000000E+00 0.  1.
         22    1    5    5    0    0  0.87489185627E+02  0.26408975440E+03 -0.56468943596E+02  0.28387761020E+03  0.00000000000E+00 0.  1.
          5    1    4    4  502    0 -0.31387671042E+02  0.45611738115E+02  0.12233889025E+02  0.56897931315E+02  0.47000000000E+01 0. -1.
         -5    1    4    4    0  502  0.32488500504E+02  0.88592707101E+02 -0.13248728544E+03  0.16272412612E+03  0.47000000000E+01 0. -1.
<mgrwt>
<rscale>  0 0.10000678E+04</rscale>
<asrwt>0</asrwt>
<pdfrwt beam="1">  1        1 0.32840262E-01 0.10000678E+04</pdfrwt>
<pdfrwt beam="2">  1       -1 0.18020448E+00 0.10000678E+04</pdfrwt>
<totfact> 0.31261910E+01</totfact>
</mgrwt>
</event>
<event>
 9    1  0.4307774E-036  0.1000844E+04  0.7818608E-02  0.8680234E-01
          3   -1    0    0  501    0  0.00000000000E+00  0.00000000000E+00  0.58206612861E+03  0.58206612861E+03  0.00000000000E+00 0.  1.
         -3   -1    0    0    0  501 -0.00000000000E+00 -0.00000000000E+00 -0.43023007719E+03  0.43023007719E+03  0.00000000000E+00 0.  1.
         36    2    1    2    0    0 -0.14210854715E-13 -0.35527136788E-14  0.15183605142E+03  0.10122962058E+04  0.10008443544E+04 0.  0.
         25    2    3    3    0    0  0.11537607109E+03 -0.10069312998E+02  0.11106293653E+03  0.20419673667E+03  0.12628658896E+03 0.  0.
         35    2    3    3    0    0 -0.11537607109E+03  0.10069312998E+02  0.40773114894E+02  0.80809946913E+03  0.79871726929E+03 0.  0.
         22    1    5    5    0    0  0.16520498648E+03 -0.19891148941E+02  0.35117838583E+03  0.38860597530E+03  0.00000000000E+00 0.  1.
         22    1    5    5    0    0 -0.28058105756E+03  0.29960461939E+02 -0.31040527094E+03  0.41949349383E+03  0.00000000000E+00 0.  1.
          5    1    4    4  502    0  0.51142540418E+02  0.57393312791E+02  0.38984902840E+02  0.86321865381E+02  0.47000000000E+01 0.  1.
         -5    1    4    4    0  502  0.64233530670E+02 -0.67462625789E+02  0.72078033686E+02  0.11787487129E+03  0.47000000000E+01 0.  1.
<mgrwt>
<rscale>  0 0.10008444E+04</rscale>
<asrwt>0</asrwt>
<pdfrwt beam="1">  1        3 0.89548635E-01 0.10008444E+04</pdfrwt>
<pdfrwt beam="2">  1       -3 0.66189243E-01 0.10008444E+04</pdfrwt>
<totfact> 0.10123045E+01</totfact>
</mgrwt>
</event>
<event>
 9    1  0.4307774E-036  0.9994107E+03  0.7818608E-02  0.8681599E-01
          1   -1    0    0  501    0  0.00000000000E+00  0.00000000000E+00  0.45935137599E+03  0.45935137599E+03  0.00000000000E+00 0.  1.
         -1   -1    0    0    0  501 -0.00000000000E+00 -0.00000000000E+00 -0.54360439714E+03  0.54360439714E+03  0.00000000000E+00 0.  1.
         36    2    1    2    0    0  0.00000000000E+00  0.14210854715E-13 -0.84253021153E+02  0.10029557731E+04  0.99941068199E+03 0.  0.
         25    2    3    3    0    0  0.28948048348E+02 -0.75824411548E+02  0.98288841142E+02  0.17884461074E+03  0.12544866523E+03 0.  0.
         35    2    3    3    0    0 -0.28948048348E+02  0.75824411548E+02 -0.18254186229E+03  0.82411116239E+03  0.79953132871E+03 0.  0.
         22    1    5    5    0    0 -0.12054768510E+03  0.42539404673E+03 -0.93238885683E+02  0.45186870790E+03  0.00000000000E+00 0. -1.
         22    1    5    5    0    0  0.91599636752E+02 -0.34956963518E+03 -0.89302976612E+02  0.37224245449E+03  0.00000000000E+00 0. -1.
          5    1    4    4  502    0  0.11309555150E+02 -0.18329753896E+02 -0.29913751471E+02  0.37159230922E+02  0.47000000000E+01 0. -1.
         -5    1    4    4    0  502  0.17638493198E+02 -0.57494657651E+02  0.12820259261E+03  0.14168537982E+03  0.47000000000E+01 0. -1.
<mgrwt>
<rscale>  0 0.99941068E+03</rscale>
<asrwt>0</asrwt>
<pdfrwt beam="1">  1        1 0.70669443E-01 0.99941068E+03</pdfrwt>
<pdfrwt beam="2">  1       -1 0.83631445E-01 0.99941068E+03</pdfrwt>
<totfact> 0.83698487E+01</totfact>
</mgrwt>
</event>
<event>
 9    1  0.4307774E-036  0.1000975E+04  0.7818608E-02  0.8680110E-01
          2   -1    0    0  501    0  0.00000000000E+00  0.00000000000E+00  0.22417309578E+04  0.22417309578E+04  0.00000000000E+00 0. -1.
         -2   -1    0    0    0  501 -0.00000000000E+00 -0.00000000000E+00 -0.11173857667E+03  0.11173857667E+03  0.00000000000E+00 0. -1.
         36    2    1    2    0    0 -0.42632564146E-13 -0.14210854715E-13  0.21299923811E+04  0.23534695345E+04  0.10009751775E+04 0.  0.
         25    2    3    3    0    0  0.70206343200E+02  0.11481460651E+03  0.27974658474E+03  0.33348218744E+03  0.12182320457E+03 0.  0.
         35    2    3    3    0    0 -0.70206343200E+02 -0.11481460651E+03  0.18502457964E+04  0.20199873470E+04  0.79926719601E+03 0.  0.
         22    1    5    5    0    0 -0.42641282023E+03 -0.11242024325E+03  0.12016419331E+04  0.12800037264E+04  0.00000000000E+00 0. -1.
         22    1    5    5    0    0  0.35620647703E+03 -0.23943632568E+01  0.64860386329E+03  0.73998362058E+03  0.00000000000E+00 0. -1.
          5    1    4    4  502    0  0.62314395816E+01 -0.25801211906E+02  0.43089741019E+02  0.50826657928E+02  0.47000000000E+01 0.  1.
         -5    1    4    4    0  502  0.63974903618E+02  0.14061581842E+03  0.23665684372E+03  0.28265552951E+03  0.47000000000E+01 0.  1.
<mgrwt>
<rscale>  0 0.10009752E+04</rscale>
<asrwt>0</asrwt>
<pdfrwt beam="1">  1        2 0.34488165E+00 0.10009752E+04</pdfrwt>
<pdfrwt beam="2">  1       -2 0.17190552E-01 0.10009752E+04</pdfrwt>
<totfact> 0.15768380E+02</totfact>
</mgrwt>
</event>
<event>
 9    1  0.4307774E-036  0.1000975E+04  0.7818608E-02  0.8680110E-01
         -2   -1    0    0    0  501 -0.00000000000E+00  0.00000000000E+00  0.21263552255E+04  0.21263552255E+04  0.00000000000E+00 0.  1.
          2   -1    0    0  501    0  0.00000000000E+00 -0.00000000000E+00 -0.11780149455E+03  0.11780149455E+03  0.00000000000E+00 0.  1.
         36    2    1    2    0    0 -0.14210854715E-13 -0.42632564146E-13  0.20085537310E+04  0.22441567201E+04  0.10009751715E+04 0.  0.
         25    2    3    3    0    0  0.45686722059E+02  0.74758416041E+02  0.13038298958E+03  0.20072185757E+03  0.12495376263E+03 0.  0.
         35    2    3    3    0    0 -0.45686722059E+02 -0.74758416041E+02  0.18781707414E+04  0.20434348625E+04  0.80026533482E+03 0.  0.
         22    1    5    5    0    0 -0.11225802042E+03  0.34741785162E+03  0.68839209070E+03  0.77922057039E+03  0.00000000000E+00 0. -1.
         22    1    5    5    0    0  0.66571298362E+02 -0.42217626766E+03  0.11897786507E+04  0.12642142921E+04  0.00000000000E+00 0. -1.
          5    1    4    4  502    0 -0.13251971483E+02  0.57008329037E+02  0.12578917132E+03  0.13881847841E+03  0.47000000000E+01 0.  1.
         -5    1    4    4    0  502  0.58938693542E+02  0.17750087004E+02  0.45938182563E+01  0.61903379159E+02  0.47000000000E+01 0.  1.
<mgrwt>
<rscale>  0 0.10009752E+04</rscale>
<asrwt>0</asrwt>
<pdfrwt beam="1">  1        2 0.18123309E-01 0.10009752E+04</pdfrwt>
<pdfrwt beam="2">  1       -2 0.32713154E+00 0.10009752E+04</pdfrwt>
<totfact> 0.79629079E+00</totfact>
</mgrwt>
</event>
<event>
 9    1  0.4307774E-036  0.9999230E+03  0.7818608E-02  0.8681111E-01
         -1   -1    0    0    0  501 -0.00000000000E+00  0.00000000000E+00  0.34597846266E+03  0.34597846266E+03  0.00000000000E+00 0.  1.
          1   -1    0    0  501    0  0.00000000000E+00 -0.00000000000E+00 -0.72247704766E+03  0.72247704766E+03  0.00000000000E+00 0.  1.
         36    2    1    2    0    0  0.35527136788E-14 -0.14210854715E-13 -0.37649858500E+03  0.10684555103E+04  0.99992299355E+03 0.  0.
         25    2    3    3    0    0  0.24441173676E+02  0.67359053755E+02 -0.19848720209E+03  0.24596158023E+03  0.12635393331E+03 0.  0.
         35    2    3    3    0    0 -0.24441173676E+02 -0.67359053755E+02 -0.17801138291E+03  0.82249393009E+03  0.79979597366E+03 0.  0.
         22    1    5    5    0    0  0.23173591820E+02 -0.10335862324E+03 -0.49180019247E+03  0.50307797573E+03  0.00000000000E+00 0. -1.
         22    1    5    5    0    0 -0.47614765495E+02  0.35999569487E+02  0.31378880955E+03  0.31941595436E+03  0.00000000000E+00 0. -1.
          5    1    4    4  502    0  0.64288353455E+01  0.91754029780E+02 -0.75162672757E+02  0.11887661368E+03  0.47000000000E+01 0.  1.
         -5    1    4    4    0  502  0.18012338330E+02 -0.24394976026E+02 -0.12332452933E+03  0.12708496655E+03  0.47000000000E+01 0.  1.
<mgrwt>
<rscale>  0 0.99992299E+03</rscale>
<asrwt>0</asrwt>
<pdfrwt beam="1">  1        1 0.11115031E+00 0.99992299E+03</pdfrwt>
<pdfrwt beam="2">  1       -1 0.53227457E-01 0.99992299E+03</pdfrwt>
<totfact> 0.10603803E+02</totfact>
</mgrwt>
</event>
<event>
 9    1  0.4307774E-036  0.1000776E+04  0.7818608E-02  0.8680300E-01
         -2   -1    0    0    0  501 -0.00000000000E+00  0.00000000000E+00  0.46144708839E+03  0.46144708839E+03  0.00000000000E+00 0.  1.
          2   -1    0    0  501    0  0.00000000000E+00 -0.00000000000E+00 -0.54261461554E+03  0.54261461554E+03  0.00000000000E+00 0.  1.
         36    2    1    2    0    0 -0.71054273576E-14  0.00000000000E+00 -0.81167527148E+02  0.10040617039E+04  0.10007755682E+04 0.  0.
         25    2    3    3    0    0  0.48568344708E+02 -0.96321897627E+02  0.75128320802E+02  0.18163921088E+03  0.12534650483E+03 0.  0.
         35    2    3    3    0    0 -0.48568344708E+02  0.96321897627E+02 -0.15629584795E+03  0.82242249305E+03  0.80019595908E+03 0.  0.
         22    1    5    5    0    0  0.90181606993E+02 -0.23738604401E+03  0.19365466121E+03  0.31935401037E+03  0.00000000000E+00 0. -1.
         22    1    5    5    0    0 -0.13874995170E+03  0.33370794164E+03 -0.34995050916E+03  0.50306848268E+03  0.00000000000E+00 0. -1.
          5    1    4    4  502    0  0.31500488989E+02 -0.93108827207E+02 -0.59532606232E+01  0.98585322551E+02  0.47000000000E+01 0. -1.
         -5    1    4    4    0  502  0.17067855719E+02 -0.32130704200E+01  0.81081581425E+02  0.83053888330E+02  0.47000000000E+01 0. -1.
<mgrwt>
<rscale>  0 0.10007756E+04</rscale>
<asrwt>0</asrwt>
<pdfrwt beam="1">  1        2 0.83479172E-01 0.10007756E+04</pdfrwt>
<pdfrwt beam="2">  1       -2 0.70991860E-01 0.10007756E+04</pdfrwt>
<totfact> 0.12194314E+02</totfact>
</mgrwt>
</event>
<event>
 9    1  0.4307774E-036  0.1004038E+04  0.7818608E-02  0.8677202E-01
         -1   -1    0    0    0  501 -0.00000000000E+00  0.00000000000E+00  0.33859655297E+03  0.33859655297E+03  0.00000000000E+00 0. -1.
          1   -1    0    0  501    0  0.00000000000E+00 -0.00000000000E+00 -0.74431677341E+03  0.74431677341E+03  0.00000000000E+00 0. -1.
         36    2    1    2    0    0  0.00000000000E+00  0.00000000000E+00 -0.40572022044E+03  0.10829133264E+04  0.10040380347E+04 0.  0.
         25    2    3    3    0    0  0.13080056017E+03 -0.36886180283E+02 -0.13688691026E+03  0.22967684304E+03  0.12467577628E+03 0.  0.
         35    2    3    3    0    0 -0.13080056017E+03  0.36886180283E+02 -0.26883331018E+03  0.85323648335E+03  0.79829303581E+03 0.  0.
         22    1    5    5    0    0  0.28646342819E+03 -0.82238644576E+02  0.65857240354E+02  0.30522396114E+03  0.00000000000E+00 0.  1.
         22    1    5    5    0    0 -0.41726398836E+03  0.11912482486E+03 -0.33469055053E+03  0.54801252220E+03  0.00000000000E+00 0.  1.
          5    1    4    4  502    0  0.76643835491E+02 -0.59943708124E+02 -0.13998838031E+03  0.17054724356E+03  0.47000000000E+01 0. -1.
         -5    1    4    4    0  502  0.54156724681E+02  0.23057527842E+02  0.31014700505E+01  0.59129599481E+02  0.47000000000E+01 0. -1.
<mgrwt>
<rscale>  0 0.10040380E+04</rscale>
<asrwt>0</asrwt>
<pdfrwt beam="1">  1        1 0.11451027E+00 0.10040380E+04</pdfrwt>
<pdfrwt beam="2">  1       -1 0.52091777E-01 0.10040380E+04</pdfrwt>
<totfact> 0.10532786E+02</totfact>
</mgrwt>
</event>
<event>
 9    1  0.4307774E-036  0.1000158E+04  0.7818608E-02  0.8680888E-01
         -1   -1    0    0    0  501 -0.00000000000E+00  0.00000000000E+00  0.16875524946E+04  0.16875524946E+04  0.00000000000E+00 0. -1.
          1   -1    0    0  501    0  0.00000000000E+00 -0.00000000000E+00 -0.14819029244E+03  0.14819029244E+03  0.00000000000E+00 0. -1.
         36    2    1    2    0    0 -0.14210854715E-13  0.00000000000E+00  0.15393622021E+04  0.18357427870E+04  0.10001577829E+04 0.  0.
         25    2    3    3    0    0  0.10021416933E+03 -0.58076288745E+02  0.43713287665E+03  0.46909590106E+03  0.12469994987E+03 0.  0.
         35    2    3    3    0    0 -0.10021416933E+03  0.58076288745E+02  0.11022293255E+04  0.13666468860E+04  0.79962396779E+03 0.  0.
         22    1    5    5    0    0  0.26584632251E+03 -0.18911474231E+03  0.26606502857E+03  0.42098604772E+03  0.00000000000E+00 0.  1.
         22    1    5    5    0    0 -0.36606049184E+03  0.24719103106E+03  0.83616429693E+03  0.94566083824E+03  0.00000000000E+00 0.  1.
          5    1    4    4  502    0  0.22299065150E+02 -0.14405893981E+01  0.14645090613E+01  0.22881398366E+02  0.47000000000E+01 0.  1.
         -5    1    4    4    0  502  0.77915104181E+02 -0.56635699347E+02  0.43566836759E+03  0.44621450270E+03  0.47000000000E+01 0.  1.
<mgrwt>
<rscale>  0 0.10001578E+04</rscale>
<asrwt>0</asrwt>
<pdfrwt beam="1">  1        1 0.22798508E-01 0.10001578E+04</pdfrwt>
<pdfrwt beam="2">  1       -1 0.25962345E+00 0.10001578E+04</pdfrwt>
<totfact> 0.99991566E+00</totfact>
</mgrwt>
</event>
<event>
 9    1  0.4307774E-036  0.9996421E+03  0.7818608E-02  0.8681379E-01
         -1   -1    0    0    0  501 -0.00000000000E+00  0.00000000000E+00  0.14529067312E+03  0.14529067312E+03  0.00000000000E+00 0. -1.
          1   -1    0    0  501    0  0.00000000000E+00 -0.00000000000E+00 -0.17194571193E+04  0.17194571193E+04  0.00000000000E+00 0. -1.
         36    2    1    2    0    0  0.35527136788E-14  0.28421709430E-13 -0.15741664462E+04  0.18647477924E+04  0.99964210048E+03 0.  0.
         25    2    3    3    0    0  0.15577235395E+02 -0.11778551730E+03 -0.15077941593E+03  0.22952756706E+03  0.12582683904E+03 0.  0.
         35    2    3    3    0    0 -0.15577235395E+02  0.11778551730E+03 -0.14233870303E+04  0.16352202254E+04  0.79611460808E+03 0.  0.
         22    1    5    5    0    0 -0.19555830317E+03  0.14429761062E+03 -0.47841532632E+02  0.24769671498E+03  0.00000000000E+00 0. -1.
         22    1    5    5    0    0  0.17998106777E+03 -0.26512093318E+02 -0.13755454976E+04  0.13875235104E+04  0.00000000000E+00 0. -1.
          5    1    4    4  502    0  0.43242260278E+02 -0.13293000031E+03 -0.11108813284E+03  0.17861394490E+03  0.47000000000E+01 0.  1.
         -5    1    4    4    0  502 -0.27665024882E+02  0.15144483011E+02 -0.39691283090E+02  0.50913622153E+02  0.47000000000E+01 0.  1.
<mgrwt>
<rscale>  0 0.99964210E+03</rscale>
<asrwt>0</asrwt>
<pdfrwt beam="1">  1        1 0.26453188E+00 0.99964210E+03</pdfrwt>
<pdfrwt beam="2">  1       -1 0.22352410E-01 0.99964210E+03</pdfrwt>
<totfact> 0.83344884E+01</totfact>
</mgrwt>
</event>
<event>
 9    1  0.4307774E-036  0.1000200E+04  0.7818608E-02  0.8680848E-01
          2   -1    0    0  501    0  0.00000000000E+00  0.00000000000E+00  0.12220096027E+04  0.12220096027E+04  0.00000000000E+00 0.  1.
         -2   -1    0    0    0  501 -0.00000000000E+00 -0.00000000000E+00 -0.20466278368E+03  0.20466278368E+03  0.00000000000E+00 0.  1.
         36    2    1    2    0    0 -0.42632564146E-13  0.00000000000E+00  0.10173468190E+04  0.14266723863E+04  0.10001997540E+04 0.  0.
         25    2    3    3    0    0 -0.59413648412E+02  0.12876758029E+03  0.19241493870E+03  0.26981168234E+03  0.12515495972E+03 0.  0.
         35    2    3    3    0    0  0.59413648412E+02 -0.12876758029E+03  0.82493188028E+03  0.11568607040E+04  0.79856309082E+03 0.  0.
         22    1    5    5    0    0 -0.31285200135E+03  0.67069660409E+01  0.65478524984E+03  0.72571694313E+03  0.00000000000E+00 0. -1.
         22    1    5    5    0    0  0.37226564976E+03 -0.13547454633E+03  0.17014663044E+03  0.43114376088E+03  0.00000000000E+00 0. -1.
          5    1    4    4  502    0  0.35344188967E+02  0.11918344781E+02  0.50376221577E+02  0.62857874101E+02  0.47000000000E+01 0. -1.
         -5    1    4    4    0  502 -0.94757837380E+02  0.11684923551E+03  0.14203871712E+03  0.20695380824E+03  0.47000000000E+01 0. -1.
<mgrwt>
<rscale>  0 0.10001998E+04</rscale>
<asrwt>0</asrwt>
<pdfrwt beam="1">  1        2 0.18800147E+00 0.10001998E+04</pdfrwt>
<pdfrwt beam="2">  1       -2 0.31486583E-01 0.10001998E+04</pdfrwt>
<totfact> 0.20715358E+02</totfact>
</mgrwt>
</event>
<event>
 9    1  0.4307774E-036  0.1000615E+04  0.7818608E-02  0.8680452E-01
          2   -1    0    0  501    0  0.00000000000E+00  0.00000000000E+00  0.36928378341E+03  0.36928378341E+03  0.00000000000E+00 0.  1.
         -2   -1    0    0    0  501 -0.00000000000E+00 -0.00000000000E+00 -0.67781938250E+03  0.67781938250E+03  0.00000000000E+00 0.  1.
         36    2    1    2    0    0 -0.53290705182E-13  0.56843418861E-13 -0.30853559908E+03  0.10471031659E+04  0.10006152228E+04 0.  0.
         25    2    3    3    0    0  0.27223018824E+02 -0.13352312777E+03 -0.68482451136E+02  0.19933419846E+03  0.12835403446E+03 0.  0.
         35    2    3    3    0    0 -0.27223018824E+02  0.13352312777E+03 -0.24005314795E+03  0.84776896745E+03  0.80157169980E+03 0.  0.
         22    1    5    5    0    0 -0.33093448587E+03 -0.17765396900E+03 -0.77245718906E+02  0.38346508019E+03  0.00000000000E+00 0. -1.
         22    1    5    5    0    0  0.30371146705E+03  0.31117709676E+03 -0.16280742904E+03  0.46430388725E+03  0.00000000000E+00 0. -1.
          5    1    4    4  502    0 -0.17315610374E+02 -0.11344587557E+03 -0.89829700989E+02  0.14581242137E+03  0.47000000000E+01 0.  1.
         -5    1    4    4    0  502  0.44538629198E+02 -0.20077252193E+02  0.21347249853E+02  0.53521777089E+02  0.47000000000E+01 0.  1.
<mgrwt>
<rscale>  0 0.10006152E+04</rscale>
<asrwt>0</asrwt>
<pdfrwt beam="1">  1        2 0.56812891E-01 0.10006152E+04</pdfrwt>
<pdfrwt beam="2">  1       -2 0.10427990E+00 0.10006152E+04</pdfrwt>
<totfact> 0.76999333E+01</totfact>
</mgrwt>
</event>
<event>
 9    1  0.4307774E-036  0.9993321E+03  0.7818608E-02  0.8681674E-01
          2   -1    0    0  501    0  0.00000000000E+00  0.00000000000E+00  0.11034667074E+04  0.11034667074E+04  0.00000000000E+00 0.  1.
         -2   -1    0    0    0  501 -0.00000000000E+00 -0.00000000000E+00 -0.22625619337E+03  0.22625619337E+03  0.00000000000E+00 0.  1.
         36    2    1    2    0    0  0.00000000000E+00 -0.35527136788E-13  0.87721051402E+03  0.13297229008E+04  0.99933213043E+03 0.  0.
         25    2    3    3    0    0  0.13460482241E+03  0.39051367978E+01  0.11545948223E+03  0.21678446594E+03  0.12462304894E+03 0.  0.
         35    2    3    3    0    0 -0.13460482241E+03 -0.39051367978E+01  0.76175103179E+03  0.11129384348E+04  0.80014599728E+03 0.  0.
         22    1    5    5    0    0  0.64848591475E+02  0.35239250265E+03  0.54062092032E+03  0.64858060041E+03  0.00000000000E+00 0. -1.
         22    1    5    5    0    0 -0.19945341388E+03 -0.35629763944E+03  0.22113011146E+03  0.46435783441E+03  0.00000000000E+00 0. -1.
          5    1    4    4  502    0  0.10368854549E+03  0.43992074261E+02  0.28867737269E+02  0.11637032834E+03  0.47000000000E+01 0.  1.
         -5    1    4    4    0  502  0.30916276923E+02 -0.40086937463E+02  0.86591744966E+02  0.10041413760E+03  0.47000000000E+01 0.  1.
<mgrwt>
<rscale>  0 0.99933213E+03</rscale>
<asrwt>0</asrwt>
<pdfrwt beam="1">  1        2 0.16976411E+00 0.99933213E+03</pdfrwt>
<pdfrwt beam="2">  1       -2 0.34808646E-01 0.99933213E+03</pdfrwt>
<totfact> 0.20250611E+02</totfact>
</mgrwt>
</event>
<event>
 9    1  0.4307774E-036  0.9995916E+03  0.7818608E-02  0.8681427E-01
         -2   -1    0    0    0  501 -0.00000000000E+00  0.00000000000E+00  0.29322646969E+03  0.29322646969E+03  0.00000000000E+00 0. -1.
          2   -1    0    0  501    0  0.00000000000E+00 -0.00000000000E+00 -0.85188707584E+03  0.85188707584E+03  0.00000000000E+00 0. -1.
         36    2    1    2    0    0  0.28421709430E-13  0.00000000000E+00 -0.55866060615E+03  0.11451135455E+04  0.99959159625E+03 0.  0.
         25    2    3    3    0    0  0.11866629391E+03  0.15070653001E+02 -0.23353296085E+02  0.17473950632E+03  0.12521862777E+03 0.  0.
         35    2    3    3    0    0 -0.11866629391E+03 -0.15070653001E+02 -0.53530731007E+03  0.97037403921E+03  0.80047676160E+03 0.  0.
         22    1    5    5    0    0 -0.44964560870E+03 -0.91658106609E+02 -0.38448653868E+03  0.59867543824E+03  0.00000000000E+00 0. -1.
         22    1    5    5    0    0  0.33097931480E+03  0.76587453609E+02 -0.15082077139E+03  0.37169860096E+03  0.00000000000E+00 0. -1.
          5    1    4    4  502    0  0.10960403309E+03 -0.33173190210E+02 -0.41936531318E+02  0.12204207175E+03  0.47000000000E+01 0.  1.
         -5    1    4    4    0  502  0.90622608149E+01  0.48243843210E+02  0.18583235232E+02  0.52697434572E+02  0.47000000000E+01 0.  1.
<mgrwt>
<rscale>  0 0.99959160E+03</rscale>
<asrwt>0</asrwt>
<pdfrwt beam="1">  1        2 0.13105955E+00 0.99959160E+03</pdfrwt>
<pdfrwt beam="2">  1       -2 0.45111765E-01 0.99959160E+03</pdfrwt>
<totfact> 0.17842783E+02</totfact>
</mgrwt>
</event>
<event>
 9    1  0.4307774E-036  0.9999954E+03  0.7818608E-02  0.8681042E-01
          2   -1    0    0  501    0  0.00000000000E+00  0.00000000000E+00  0.10946374179E+04  0.10946374179E+04  0.00000000000E+00 0. -1.
         -2   -1    0    0    0  501 -0.00000000000E+00 -0.00000000000E+00 -0.22838403981E+03  0.22838403981E+03  0.00000000000E+00 0. -1.
         36    2    1    2    0    0  0.14210854715E-13  0.71054273576E-14  0.86625337813E+03  0.13230214577E+04  0.99999543125E+03 0.  0.
         25    2    3    3    0    0 -0.10853080661E+03  0.45981163601E+02  0.26251182742E+03  0.31366593440E+03  0.12482249588E+03 0.  0.
         35    2    3    3    0    0  0.10853080661E+03 -0.45981163601E+02  0.60374155071E+03  0.10093555233E+04  0.80025090382E+03 0.  0.
         22    1    5    5    0    0  0.33129925847E+03 -0.30928608518E+03  0.26047114948E+03  0.52274496732E+03  0.00000000000E+00 0.  1.
         22    1    5    5    0    0 -0.22276845185E+03  0.26330492158E+03  0.34327040123E+03  0.48661055602E+03  0.00000000000E+00 0.  1.
          5    1    4    4  502    0  0.67204358366E+01 -0.16820323416E+02  0.11351952751E+03  0.11505155655E+03  0.47000000000E+01 0. -1.
         -5    1    4    4    0  502 -0.11525124245E+03  0.62801487017E+02  0.14899229990E+03  0.19861437785E+03  0.47000000000E+01 0. -1.
<mgrwt>
<rscale>  0 0.99999543E+03</rscale>
<asrwt>0</asrwt>
<pdfrwt beam="1">  1        2 0.16840575E+00 0.99999543E+03</pdfrwt>
<pdfrwt beam="2">  1       -2 0.35136007E-01 0.99999543E+03</pdfrwt>
<totfact> 0.20146826E+02</totfact>
</mgrwt>
</event>
<event>
 9    1  0.4307774E-036  0.1005498E+04  0.7818608E-02  0.8675820E-01
         -1   -1    0    0    0  501 -0.00000000000E+00  0.00000000000E+00  0.18514943446E+03  0.18514943446E+03  0.00000000000E+00 0.  1.
          1   -1    0    0  501    0  0.00000000000E+00 -0.00000000000E+00 -0.13651488446E+04  0.13651488446E+04  0.00000000000E+00 0.  1.
         36    2    1    2    0    0  0.00000000000E+00 -0.35527136788E-13 -0.11799994101E+04  0.15502982790E+04  0.10054979593E+04 0.  0.
         25    2    3    3    0    0  0.13353369459E+03 -0.39945909205E+02 -0.28850111994E+03  0.34402557229E+03  0.12527479767E+03 0.  0.
         35    2    3    3    0    0 -0.13353369459E+03  0.39945909205E+02 -0.89149829016E+03  0.12062727067E+04  0.80056087738E+03 0.  0.
         22    1    5    5    0    0  0.95344779395E+01  0.39922827695E+03 -0.29957537487E+03  0.49921891853E+03  0.00000000000E+00 0. -1.
         22    1    5    5    0    0 -0.14306817253E+03 -0.35928236775E+03 -0.59192291529E+03  0.70705378820E+03  0.00000000000E+00 0. -1.
          5    1    4    4  502    0  0.34936863287E+02  0.44968263275E+02 -0.84029480629E+02  0.10161580946E+03  0.47000000000E+01 0.  1.
         -5    1    4    4    0  502  0.98596831303E+02 -0.84914172480E+02 -0.20447163931E+03  0.24240976283E+03  0.47000000000E+01 0.  1.
<mgrwt>
<rscale>  0 0.10054980E+04</rscale>
<asrwt>0</asrwt>
<pdfrwt beam="1">  1        1 0.21002291E+00 0.10054980E+04</pdfrwt>
<pdfrwt beam="2">  1       -1 0.28484527E-01 0.10054980E+04</pdfrwt>
<totfact> 0.98984895E+01</totfact>
</mgrwt>
</event>
<event>
 9    1  0.4307774E-036  0.9990297E+03  0.7818608E-02  0.8681963E-01
         -1   -1    0    0    0  501 -0.00000000000E+00  0.00000000000E+00  0.27666853495E+03  0.27666853495E+03  0.00000000000E+00 0.  1.
          1   -1    0    0  501    0  0.00000000000E+00 -0.00000000000E+00 -0.90185559492E+03  0.90185559492E+03  0.00000000000E+00 0.  1.
         36    2    1    2    0    0 -0.14210854715E-13  0.00000000000E+00 -0.62518705997E+03  0.11785241299E+04  0.99902966159E+03 0.  0.
         25    2    3    3    0    0  0.88782395622E+02 -0.86466058125E+02 -0.41545725537E+02  0.18111789090E+03  0.12537523724E+03 0.  0.
         35    2    3    3    0    0 -0.88782395622E+02  0.86466058125E+02 -0.58364133443E+03  0.99740623898E+03  0.79926422747E+03 0.  0.
         22    1    5    5    0    0 -0.19295836384E+03  0.38767587413E+03 -0.14801922474E+03  0.45764091213E+03  0.00000000000E+00 0. -1.
         22    1    5    5    0    0  0.10417596822E+03 -0.30120981601E+03 -0.43562210969E+03  0.53976532685E+03  0.00000000000E+00 0. -1.
          5    1    4    4  502    0  0.16300291062E+01 -0.53736596109E+02 -0.65506843789E+02  0.84873525551E+02  0.47000000000E+01 0.  1.
         -5    1    4    4    0  502  0.87152366516E+02 -0.32729462016E+02  0.23961118252E+02  0.96244365347E+02  0.47000000000E+01 0.  1.
<mgrwt>
<rscale>  0 0.99902966E+03</rscale>
<asrwt>0</asrwt>
<pdfrwt beam="1">  1        1 0.13874701E+00 0.99902966E+03</pdfrwt>
<pdfrwt beam="2">  1       -1 0.42564391E-01 0.99902966E+03</pdfrwt>
<totfact> 0.11113934E+02</totfact>
</mgrwt>
</event>
<event>
 9    1  0.4307774E-036  0.1000709E+04  0.7818608E-02  0.8680363E-01
         -2   -1    0    0    0  501 -0.00000000000E+00  0.00000000000E+00  0.93462116654E+03  0.93462116654E+03  0.00000000000E+00 0. -1.
          2   -1    0    0  501    0  0.00000000000E+00 -0.00000000000E+00 -0.26786766433E+03  0.26786766433E+03  0.00000000000E+00 0. -1.
         36    2    1    2    0    0  0.71054273576E-14  0.28421709430E-13  0.66675350221E+03  0.12024888309E+04  0.10007093263E+04 0.  0.
         25    2    3    3    0    0 -0.19759384130E+02 -0.80598993268E+02  0.26221828287E+03  0.30152163993E+03  0.12357281456E+03 0.  0.
         35    2    3    3    0    0  0.19759384130E+02  0.80598993268E+02  0.40453521935E+03  0.90096719094E+03  0.80075371025E+03 0.  0.
         22    1    5    5    0    0  0.72963390160E+02 -0.35221017998E+03  0.11537794867E+03  0.37774030527E+03  0.00000000000E+00 0. -1.
         22    1    5    5    0    0 -0.53204006030E+02  0.43280917325E+03  0.28915727068E+03  0.52322688567E+03  0.00000000000E+00 0. -1.
          5    1    4    4  502    0 -0.58587365284E+02 -0.66873038474E+02  0.23659316702E+03  0.25279022791E+03  0.47000000000E+01 0. -1.
         -5    1    4    4    0  502  0.38827981154E+02 -0.13725954795E+02  0.25625115848E+02  0.48731412023E+02  0.47000000000E+01 0. -1.
<mgrwt>
<rscale>  0 0.10007093E+04</rscale>
<asrwt>0</asrwt>
<pdfrwt beam="1">  1        2 0.41210411E-01 0.10007093E+04</pdfrwt>
<pdfrwt beam="2">  1       -2 0.14378787E+00 0.10007093E+04</pdfrwt>
<totfact> 0.47522069E+01</totfact>
</mgrwt>
</event>
<event>
 9    1  0.4307774E-036  0.1000379E+04  0.7818608E-02  0.8680677E-01
         -2   -1    0    0    0  501 -0.00000000000E+00  0.00000000000E+00  0.16430691498E+03  0.16430691498E+03  0.00000000000E+00 0.  1.
          2   -1    0    0  501    0  0.00000000000E+00 -0.00000000000E+00 -0.15226973350E+04  0.15226973350E+04  0.00000000000E+00 0.  1.
         36    2    1    2    0    0  0.28421709430E-13 -0.49737991503E-13 -0.13583904201E+04  0.16870042500E+04  0.10003793312E+04 0.  0.
         25    2    3    3    0    0  0.13833448456E+03  0.25186258027E+02 -0.25402872695E+03  0.31624418716E+03  0.12533560780E+03 0.  0.
         35    2    3    3    0    0 -0.13833448456E+03 -0.25186258027E+02 -0.11043616931E+04  0.13707600629E+04  0.79974847518E+03 0.  0.
         22    1    5    5    0    0 -0.32268535673E+03 -0.32172694078E+03 -0.53384426430E+03  0.70187161390E+03  0.00000000000E+00 0.  1.
         22    1    5    5    0    0  0.18435087217E+03  0.29654068275E+03 -0.57051742881E+03  0.66888844898E+03  0.00000000000E+00 0.  1.
          5    1    4    4  502    0  0.92147103625E+01  0.29429340857E+02 -0.14136222757E+03  0.14476313887E+03  0.47000000000E+01 0. -1.
         -5    1    4    4    0  502  0.12911977420E+03 -0.42430828297E+01 -0.11266649938E+03  0.17148104829E+03  0.47000000000E+01 0. -1.
<mgrwt>
<rscale>  0 0.10003793E+04</rscale>
<asrwt>0</asrwt>
<pdfrwt beam="1">  1        2 0.23426114E+00 0.10003793E+04</pdfrwt>
<pdfrwt beam="2">  1       -2 0.25277986E-01 0.10003793E+04</pdfrwt>
<totfact> 0.20690456E+02</totfact>
</mgrwt>
</event>
<event>
 9    1  0.4307774E-036  0.1002271E+04  0.7818608E-02  0.8678878E-01
         -2   -1    0    0    0  501 -0.00000000000E+00  0.00000000000E+00  0.17711020577E+03  0.17711020577E+03  0.00000000000E+00 0. -1.
          2   -1    0    0  501    0  0.00000000000E+00 -0.00000000000E+00 -0.14179684448E+04  0.14179684448E+04  0.00000000000E+00 0. -1.
         36    2    1    2    0    0  0.71054273576E-14  0.00000000000E+00 -0.12408582390E+04  0.15950786505E+04  0.10022707878E+04 0.  0.
         25    2    3    3    0    0  0.50000306028E+02 -0.80017694871E+02 -0.70591035542E+02  0.17401440398E+03  0.12804318177E+03 0.  0.
         35    2    3    3    0    0 -0.50000306028E+02  0.80017694871E+02 -0.11702672035E+04  0.14210642466E+04  0.80062188532E+03 0.  0.
         22    1    5    5    0    0 -0.20472641012E+03  0.12790652927E+03 -0.17794945773E+01  0.24140453564E+03  0.00000000000E+00 0. -1.
         22    1    5    5    0    0  0.15472610409E+03 -0.47888834395E+02 -0.11684877089E+04  0.11796597109E+04  0.00000000000E+00 0. -1.
          5    1    4    4  502    0  0.86215057307E+02 -0.86196446175E+02 -0.53252989673E+02  0.13311962421E+03  0.47000000000E+01 0.  1.
         -5    1    4    4    0  502 -0.36214751279E+02  0.61787513041E+01 -0.17338045869E+02  0.40894779770E+02  0.47000000000E+01 0.  1.
<mgrwt>
<rscale>  0 0.10022708E+04</rscale>
<asrwt>0</asrwt>
<pdfrwt beam="1">  1        2 0.21814899E+00 0.10022708E+04</pdfrwt>
<pdfrwt beam="2">  1       -2 0.27247724E-01 0.10022708E+04</pdfrwt>
<totfact> 0.20749080E+02</totfact>
</mgrwt>
</event>
<event>
 9    1  0.4307774E-036  0.1000109E+04  0.7818608E-02  0.8680934E-01
         -2   -1    0    0    0  501 -0.00000000000E+00  0.00000000000E+00  0.28942000361E+03  0.28942000361E+03  0.00000000000E+00 0. -1.
          2   -1    0    0  501    0  0.00000000000E+00 -0.00000000000E+00 -0.86398565735E+03  0.86398565735E+03  0.00000000000E+00 0. -1.
         36    2    1    2    0    0  0.00000000000E+00 -0.28421709430E-13 -0.57456565374E+03  0.11534056610E+04  0.10001094582E+04 0.  0.
         25    2    3    3    0    0  0.10698940302E+03 -0.21989223421E+02 -0.11362278393E+02  0.16761363762E+03  0.12662926928E+03 0.  0.
         35    2    3    3    0    0 -0.10698940302E+03  0.21989223421E+02 -0.56320337535E+03  0.98579202335E+03  0.80165928735E+03 0.  0.
         22    1    5    5    0    0  0.33873028461E+02 -0.29819249143E+03  0.25304662411E+02  0.30117514828E+03  0.00000000000E+00 0. -1.
         22    1    5    5    0    0 -0.14086243148E+03  0.32018171485E+03 -0.58850803776E+03  0.68461687507E+03  0.00000000000E+00 0. -1.
          5    1    4    4  502    0  0.11656068699E+03 -0.55328448569E+02 -0.22125347825E+02  0.13099332803E+03  0.47000000000E+01 0. -1.
         -5    1    4    4    0  502 -0.95712839706E+01  0.33339225148E+02  0.10763069432E+02  0.36620309582E+02  0.47000000000E+01 0. -1.
<mgrwt>
<rscale>  0 0.10001095E+04</rscale>
<asrwt>0</asrwt>
<pdfrwt beam="1">  1        2 0.13292087E+00 0.10001095E+04</pdfrwt>
<pdfrwt beam="2">  1       -2 0.44526154E-01 0.10001095E+04</pdfrwt>
<totfact> 0.17963809E+02</totfact>
</mgrwt>
</event>
<event>
 9    1  0.4307774E-036  0.1000512E+04  0.7818608E-02  0.8680551E-01
         -1   -1    0    0    0  501 -0.00000000000E+00  0.00000000000E+00  0.54804214125E+03  0.54804214125E+03  0.00000000000E+00 0.  1.
          1   -1    0    0  501    0  0.00000000000E+00 -0.00000000000E+00 -0.45663621080E+03  0.45663621080E+03  0.00000000000E+00 0.  1.
         36    2    1    2    0    0  0.00000000000E+00  0.14210854715E-13  0.91405930447E+02  0.10046783521E+04  0.10005116426E+04 0.  0.
         25    2    3    3    0    0 -0.92985621664E+02 -0.64900851712E+01  0.12384498169E+03  0.19920103910E+03  0.12512005214E+03 0.  0.
         35    2    3    3    0    0  0.92985621664E+02  0.64900851712E+01 -0.32439051245E+02  0.80547731295E+03  0.79940788250E+03 0.  0.
         22    1    5    5    0    0 -0.13542757009E+03 -0.33696255883E+03 -0.12254780894E+03  0.38327843440E+03  0.00000000000E+00 0.  1.
         22    1    5    5    0    0  0.22841319176E+03  0.34345264401E+03  0.90108757696E+02  0.42219887856E+03  0.00000000000E+00 0.  1.
          5    1    4    4  502    0 -0.90592172831E+02 -0.54019820791E+02  0.10135250999E+03  0.14635403684E+03  0.47000000000E+01 0.  1.
         -5    1    4    4    0  502 -0.23934488328E+01  0.47529735620E+02  0.22492471700E+02  0.52847002266E+02  0.47000000000E+01 0.  1.
<mgrwt>
<rscale>  0 0.10005116E+04</rscale>
<asrwt>0</asrwt>
<pdfrwt beam="1">  1        1 0.70251725E-01 0.10005116E+04</pdfrwt>
<pdfrwt beam="2">  1       -1 0.84314175E-01 0.10005116E+04</pdfrwt>
<totfact> 0.82924382E+01</totfact>
</mgrwt>
</event>
<event>
 9    1  0.4307774E-036  0.1003035E+04  0.7818608E-02  0.8678153E-01
         -2   -1    0    0    0  501 -0.00000000000E+00  0.00000000000E+00  0.60158816840E+03  0.60158816840E+03  0.00000000000E+00 0.  1.
          2   -1    0    0  501    0  0.00000000000E+00 -0.00000000000E+00 -0.41809272319E+03  0.41809272319E+03  0.00000000000E+00 0.  1.
         36    2    1    2    0    0  0.71054273576E-14  0.14210854715E-13  0.18349544522E+03  0.10196808916E+04  0.10030346665E+04 0.  0.
         25    2    3    3    0    0  0.34430512882E+02  0.62142054163E+02  0.16769150404E+03  0.21630391818E+03  0.11670411038E+03 0.  0.
         35    2    3    3    0    0 -0.34430512882E+02 -0.62142054163E+02  0.15803941180E+02  0.80337697341E+03  0.80007356020E+03 0.  0.
         22    1    5    5    0    0 -0.26308996230E+03  0.27872871569E+03 -0.53851751099E+02  0.38704784758E+03  0.00000000000E+00 0.  1.
         22    1    5    5    0    0  0.22865944942E+03 -0.34087076986E+03  0.69655692278E+02  0.41632912584E+03  0.00000000000E+00 0.  1.
          5    1    4    4  502    0  0.28239491419E+02  0.58885695745E+02  0.18543806437E+03  0.19665797659E+03  0.47000000000E+01 0.  1.
         -5    1    4    4    0  502  0.61910214628E+01  0.32563584179E+01 -0.17746560338E+02  0.19645941584E+02  0.47000000000E+01 0.  1.
<mgrwt>
<rscale>  0 0.10030347E+04</rscale>
<asrwt>0</asrwt>
<pdfrwt beam="1">  1        2 0.64321957E-01 0.10030347E+04</pdfrwt>
<pdfrwt beam="2">  1       -2 0.92552026E-01 0.10030347E+04</pdfrwt>
<totfact> 0.89399190E+01</totfact>
</mgrwt>
</event>
<event>
 9    1  0.4307774E-036  0.9996468E+03  0.7818608E-02  0.8681374E-01
          2   -1    0    0  501    0  0.00000000000E+00  0.00000000000E+00  0.38095969040E+04  0.38095969040E+04  0.00000000000E+00 0.  1.
         -2   -1    0    0    0  501 -0.00000000000E+00 -0.00000000000E+00 -0.65577387620E+02  0.65577387620E+02  0.00000000000E+00 0.  1.
         36    2    1    2    0    0  0.00000000000E+00  0.14210854715E-13  0.37440195164E+04  0.38751742916E+04  0.99964676331E+03 0.  0.
         25    2    3    3    0    0  0.13123526656E+03  0.40758189408E+02  0.65732144935E+03  0.68293260568E+03  0.12426395669E+03 0.  0.
         35    2    3    3    0    0 -0.13123526656E+03 -0.40758189408E+02  0.30866980670E+04  0.31922416859E+04  0.80238276356E+03 0.  0.
         22    1    5    5    0    0  0.33467066114E+03 -0.69654682766E+02  0.11262997730E+04  0.11770333066E+04  0.00000000000E+00 0.  1.
         22    1    5    5    0    0 -0.46590592770E+03  0.28896493358E+02  0.19603982940E+04  0.20152083793E+04  0.00000000000E+00 0.  1.
          5    1    4    4  502    0  0.38989664804E+02 -0.28281099398E+02  0.74685441147E+02  0.88994492324E+02  0.47000000000E+01 0.  1.
         -5    1    4    4    0  502  0.92245601755E+02  0.69039288806E+02  0.58263600820E+03  0.59393811335E+03  0.47000000000E+01 0.  1.
<mgrwt>
<rscale>  0 0.99964676E+03</rscale>
<asrwt>0</asrwt>
<pdfrwt beam="1">  1        2 0.58609166E+00 0.99964676E+03</pdfrwt>
<pdfrwt beam="2">  1       -2 0.10088832E-01 0.99964676E+03</pdfrwt>
<totfact> 0.32417901E+01</totfact>
</mgrwt>
</event>
<event>
 9    1  0.4307774E-036  0.9996842E+03  0.7818608E-02  0.8681339E-01
          1   -1    0    0  501    0  0.00000000000E+00  0.00000000000E+00  0.83155565606E+03  0.83155565606E+03  0.00000000000E+00 0.  1.
         -1   -1    0    0    0  501 -0.00000000000E+00 -0.00000000000E+00 -0.30045148459E+03  0.30045148459E+03  0.00000000000E+00 0.  1.
         36    2    1    2    0    0  0.00000000000E+00  0.71054273576E-14  0.53110417148E+03  0.11320071407E+04  0.99968421290E+03 0.  0.
         25    2    3    3    0    0  0.33095217518E+02 -0.16016986912E+02 -0.53068812200E+02  0.14094427998E+03  0.12528828333E+03 0.  0.
         35    2    3    3    0    0 -0.33095217518E+02  0.16016986912E+02  0.58417298368E+03  0.99106286067E+03  0.79974726111E+03 0.  0.
         22    1    5    5    0    0 -0.13076435864E+03 -0.33167609090E+03  0.51018340235E+03  0.62241099829E+03  0.00000000000E+00 0.  1.
         22    1    5    5    0    0  0.97669141125E+02  0.34769307781E+03  0.73989581329E+02  0.36865186238E+03  0.00000000000E+00 0.  1.
          5    1    4    4  502    0 -0.11035431163E+02 -0.62994780063E+02 -0.14711433318E+02  0.65792395658E+02  0.47000000000E+01 0.  1.
         -5    1    4    4    0  502  0.44130648682E+02  0.46977793152E+02 -0.38357378882E+02  0.75151884322E+02  0.47000000000E+01 0.  1.
<mgrwt>
<rscale>  0 0.99968421E+03</rscale>
<asrwt>0</asrwt>
<pdfrwt beam="1">  1        1 0.12793164E+00 0.99968421E+03</pdfrwt>
<pdfrwt beam="2">  1       -1 0.46223306E-01 0.99968421E+03</pdfrwt>
<totfact> 0.10980200E+02</totfact>
</mgrwt>
</event>
<event>
 9    1  0.4307774E-036  0.1000116E+04  0.7818608E-02  0.8680928E-01
          1   -1    0    0  501    0  0.00000000000E+00  0.00000000000E+00  0.81489035268E+03  0.81489035268E+03  0.00000000000E+00 0.  1.
         -1   -1    0    0    0  501 -0.00000000000E+00 -0.00000000000E+00 -0.30686066148E+03  0.30686066148E+03  0.00000000000E+00 0.  1.
         36    2    1    2    0    0  0.00000000000E+00  0.28421709430E-13  0.50802969120E+03  0.11217510142E+04  0.10001155786E+04 0.  0.
         25    2    3    3    0    0 -0.11416234210E+03  0.86194278751E+02  0.82312197636E+02  0.20732903339E+03  0.12548918745E+03 0.  0.
         35    2    3    3    0    0  0.11416234210E+03 -0.86194278751E+02  0.42571749356E+03  0.91442198077E+03  0.79653605100E+03 0.  0.
         22    1    5    5    0    0  0.20770166156E+03 -0.34082932717E+03  0.49360530065E+03  0.63478406037E+03  0.00000000000E+00 0.  1.
         22    1    5    5    0    0 -0.93539319465E+02  0.25463504842E+03 -0.67887807087E+02  0.27963792039E+03  0.00000000000E+00 0.  1.
          5    1    4    4  502    0 -0.20455308342E+02 -0.29716073316E+02  0.35991324691E+02  0.51175483444E+02  0.47000000000E+01 0.  1.
         -5    1    4    4    0  502 -0.93707033756E+02  0.11591035207E+03  0.46320872944E+02  0.15615354995E+03  0.47000000000E+01 0.  1.
<mgrwt>
<rscale>  0 0.10001156E+04</rscale>
<asrwt>0</asrwt>
<pdfrwt beam="1">  1        1 0.12536775E+00 0.10001156E+04</pdfrwt>
<pdfrwt beam="2">  1       -1 0.47209333E-01 0.10001156E+04</pdfrwt>
<totfact> 0.10923469E+02</totfact>
</mgrwt>
</event>
<event>
 9    1  0.4307774E-036  0.9992600E+03  0.7818608E-02  0.8681743E-01
         -2   -1    0    0    0  501 -0.00000000000E+00  0.00000000000E+00  0.13438855222E+03  0.13438855222E+03  0.00000000000E+00 0.  1.
          2   -1    0    0  501    0  0.00000000000E+00 -0.00000000000E+00 -0.18575253374E+04  0.18575253374E+04  0.00000000000E+00 0.  1.
         36    2    1    2    0    0  0.00000000000E+00 -0.17763568394E-13 -0.17231367852E+04  0.19919138897E+04  0.99926000782E+03 0.  0.
         25    2    3    3    0    0  0.12510604058E+03 -0.34330614170E+01 -0.44224279747E+03  0.47634981982E+03  0.12516849296E+03 0.  0.
         35    2    3    3    0    0 -0.12510604058E+03  0.34330614170E+01 -0.12808939878E+04  0.15155640698E+04  0.80036350156E+03 0.  0.
         22    1    5    5    0    0 -0.26467885720E+03  0.30461440039E+03 -0.37544435499E+03  0.55118353936E+03  0.00000000000E+00 0.  1.
         22    1    5    5    0    0  0.13957281663E+03 -0.30118133897E+03 -0.90544963276E+03  0.96438053047E+03  0.00000000000E+00 0.  1.
          5    1    4    4  502    0  0.13076663583E+03 -0.25835750065E+02 -0.25639308597E+03  0.28901021359E+03  0.47000000000E+01 0.  1.
         -5    1    4    4    0  502 -0.56605952528E+01  0.22402688648E+02 -0.18584971150E+03  0.18733960623E+03  0.47000000000E+01 0.  1.
<mgrwt>
<rscale>  0 0.99926001E+03</rscale>
<asrwt>0</asrwt>
<pdfrwt beam="1">  1        2 0.28577314E+00 0.99926001E+03</pdfrwt>
<pdfrwt beam="2">  1       -2 0.20675161E-01 0.99926001E+03</pdfrwt>
<totfact> 0.19063441E+02</totfact>
</mgrwt>
</event>
<event>
 9    1  0.4307774E-036  0.9967720E+03  0.7818608E-02  0.8684118E-01
          2   -1    0    0  501    0  0.00000000000E+00  0.00000000000E+00  0.17618782671E+03  0.17618782671E+03  0.00000000000E+00 0.  1.
         -2   -1    0    0    0  501 -0.00000000000E+00 -0.00000000000E+00 -0.14097942579E+04  0.14097942579E+04  0.00000000000E+00 0.  1.
         36    2    1    2    0    0  0.00000000000E+00  0.00000000000E+00 -0.12336064312E+04  0.15859820846E+04  0.99677196270E+03 0.  0.
         25    2    3    3    0    0  0.58774756769E+02 -0.11301637497E+03 -0.15360330634E+03  0.23574190504E+03  0.12551134222E+03 0.  0.
         35    2    3    3    0    0 -0.58774756769E+02  0.11301637497E+03 -0.10800031249E+04  0.13502401796E+04  0.80032157275E+03 0.  0.
         22    1    5    5    0    0  0.22339628651E+03 -0.23302004872E+03 -0.67151769056E+03  0.74507734677E+03  0.00000000000E+00 0.  1.
         22    1    5    5    0    0 -0.28217104328E+03  0.34603642368E+03 -0.40848543430E+03  0.60516283282E+03  0.00000000000E+00 0.  1.
          5    1    4    4  502    0  0.82005462378E+02 -0.65789917853E+02 -0.44001724083E+02  0.11406774686E+03  0.47000000000E+01 0. -1.
         -5    1    4    4    0  502 -0.23230705609E+02 -0.47226457115E+02 -0.10960158226E+03  0.12167415818E+03  0.47000000000E+01 0. -1.
<mgrwt>
<rscale>  0 0.99677196E+03</rscale>
<asrwt>0</asrwt>
<pdfrwt beam="1">  1        2 0.27105819E-01 0.99677196E+03</pdfrwt>
<pdfrwt beam="2">  1       -2 0.21689143E+00 0.99677196E+03</pdfrwt>
<totfact> 0.22339107E+01</totfact>
</mgrwt>
</event>
<event>
 9    1  0.4307774E-036  0.1000072E+04  0.7818608E-02  0.8680969E-01
         -1   -1    0    0    0  501 -0.00000000000E+00  0.00000000000E+00  0.11617116359E+03  0.11617116359E+03  0.00000000000E+00 0.  1.
          1   -1    0    0  501    0  0.00000000000E+00 -0.00000000000E+00 -0.21523066027E+04  0.21523066027E+04  0.00000000000E+00 0.  1.
         36    2    1    2    0    0 -0.14210854715E-13  0.00000000000E+00 -0.20361354392E+04  0.22684777663E+04  0.10000719223E+04 0.  0.
         25    2    3    3    0    0 -0.10483988401E+03 -0.48942409386E+02 -0.20023412042E+03  0.26270300904E+03  0.12462907871E+03 0.  0.
         35    2    3    3    0    0  0.10483988401E+03  0.48942409386E+02 -0.18359013187E+04  0.20057747573E+04  0.79950732590E+03 0.  0.
         22    1    5    5    0    0 -0.28781210751E+03  0.21982094950E+03 -0.10511662456E+04  0.11118037304E+04  0.00000000000E+00 0.  1.
         22    1    5    5    0    0  0.39265199151E+03 -0.17087854011E+03 -0.78473507315E+03  0.89397102690E+03  0.00000000000E+00 0.  1.
          5    1    4    4  502    0 -0.40961867729E+02  0.25689404372E+02 -0.11560949871E+02  0.49935615213E+02  0.47000000000E+01 0.  1.
         -5    1    4    4    0  502 -0.63878016278E+02 -0.74631813758E+02 -0.18867317055E+03  0.21276739383E+03  0.47000000000E+01 0.  1.
<mgrwt>
<rscale>  0 0.10000719E+04</rscale>
<asrwt>0</asrwt>
<pdfrwt beam="1">  1        1 0.33112406E+00 0.10000719E+04</pdfrwt>
<pdfrwt beam="2">  1       -1 0.17872488E-01 0.10000719E+04</pdfrwt>
<totfact> 0.59929894E+01</totfact>
</mgrwt>
</event>
<event>
 9    1  0.4307774E-036  0.9993082E+03  0.7818608E-02  0.8681697E-01
          2   -1    0    0  501    0  0.00000000000E+00  0.00000000000E+00  0.17980411320E+04  0.17980411320E+04  0.00000000000E+00 0.  1.
         -2   -1    0    0    0  501 -0.00000000000E+00 -0.00000000000E+00 -0.13884789594E+03  0.13884789594E+03  0.00000000000E+00 0.  1.
         36    2    1    2    0    0  0.00000000000E+00 -0.28421709430E-13  0.16591932361E+04  0.19368890280E+04  0.99930821673E+03 0.  0.
         25    2    3    3    0    0  0.12060318039E+03 -0.52541297442E+02  0.22050682707E+03  0.28567667412E+03  0.12522853628E+03 0.  0.
         35    2    3    3    0    0 -0.12060318039E+03  0.52541297442E+02  0.14386864090E+04  0.16512123539E+04  0.79961111733E+03 0.  0.
         22    1    5    5    0    0  0.38761115773E+02  0.32035518422E+03  0.21329567114E+03  0.38681379433E+03  0.00000000000E+00 0.  1.
         22    1    5    5    0    0 -0.15936429617E+03 -0.26781388678E+03  0.12253907379E+04  0.12643985595E+04  0.00000000000E+00 0.  1.
          5    1    4    4  502    0  0.11968910020E+03 -0.82040062168E+02  0.20710561410E+03  0.25292464866E+03  0.47000000000E+01 0.  1.
         -5    1    4    4    0  502  0.91408018914E+00  0.29498764726E+02  0.13401212966E+02  0.32752025463E+02  0.47000000000E+01 0.  1.
<mgrwt>
<rscale>  0 0.99930822E+03</rscale>
<asrwt>0</asrwt>
<pdfrwt beam="1">  1        2 0.27662170E+00 0.99930822E+03</pdfrwt>
<pdfrwt beam="2">  1       -2 0.21361216E-01 0.99930822E+03</pdfrwt>
<totfact> 0.19459024E+02</totfact>
</mgrwt>
</event>
<event>
 9    1  0.4307774E-036  0.9963062E+03  0.7818608E-02  0.8684563E-01
          2   -1    0    0  501    0  0.00000000000E+00  0.00000000000E+00  0.26002526120E+03  0.26002526120E+03  0.00000000000E+00 0.  1.
         -2   -1    0    0    0  501 -0.00000000000E+00 -0.00000000000E+00 -0.95435548400E+03  0.95435548400E+03  0.00000000000E+00 0.  1.
         36    2    1    2    0    0  0.71054273576E-14 -0.71054273576E-14 -0.69433022279E+03  0.12143807452E+04  0.99630624611E+03 0.  0.
         25    2    3    3    0    0  0.60444201131E+02 -0.31376615137E+02 -0.27267688734E+03  0.30723318614E+03  0.12410299089E+03 0.  0.
         35    2    3    3    0    0 -0.60444201131E+02  0.31376615137E+02 -0.42165333546E+03  0.90714755906E+03  0.80030442032E+03 0.  0.
         22    1    5    5    0    0  0.35464849960E+03 -0.34155850105E+02 -0.31015124744E+03  0.47237270947E+03  0.00000000000E+00 0. -1.
         22    1    5    5    0    0 -0.41509270074E+03  0.65532465243E+02 -0.11150208802E+03  0.43477484959E+03  0.00000000000E+00 0. -1.
          5    1    4    4  502    0  0.80422791257E+02  0.21278241152E+02 -0.18531921705E+03  0.20318929870E+03  0.47000000000E+01 0. -1.
         -5    1    4    4    0  502 -0.19978590126E+02 -0.52654856290E+02 -0.87357670291E+02  0.10404388744E+03  0.47000000000E+01 0. -1.
<mgrwt>
<rscale>  0 0.99630625E+03</rscale>
<asrwt>0</asrwt>
<pdfrwt beam="1">  1        2 0.40003886E-01 0.99630625E+03</pdfrwt>
<pdfrwt beam="2">  1       -2 0.14682392E+00 0.99630625E+03</pdfrwt>
<totfact> 0.46394493E+01</totfact>
</mgrwt>
</event>
<event>
 9    1  0.4307774E-036  0.9976557E+03  0.7818608E-02  0.8683274E-01
         -2   -1    0    0    0  501 -0.00000000000E+00  0.00000000000E+00  0.38545349734E+03  0.38545349734E+03  0.00000000000E+00 0. -1.
          2   -1    0    0  501    0  0.00000000000E+00 -0.00000000000E+00 -0.64554922613E+03  0.64554922613E+03  0.00000000000E+00 0. -1.
         36    2    1    2    0    0  0.00000000000E+00 -0.14210854715E-13 -0.26009572879E+03  0.10310027235E+04  0.99765566588E+03 0.  0.
         25    2    3    3    0    0  0.38140741405E+02 -0.99245275945E+02  0.41971877963E+02  0.16951942622E+03  0.12518329111E+03 0.  0.
         35    2    3    3    0    0 -0.38140741405E+02  0.99245275945E+02 -0.30206760675E+03  0.86148329725E+03  0.79975264391E+03 0.  0.
         22    1    5    5    0    0 -0.16882979918E+03 -0.30785485182E+03 -0.24943620729E+03  0.43069308375E+03  0.00000000000E+00 0.  1.
         22    1    5    5    0    0  0.13068905778E+03  0.40710012776E+03 -0.52631399462E+02  0.43079021351E+03  0.00000000000E+00 0.  1.
          5    1    4    4  502    0  0.62080942762E+02 -0.11336335185E+03  0.52286816550E+02  0.13950374254E+03  0.47000000000E+01 0.  1.
         -5    1    4    4    0  502 -0.23940201357E+02  0.14118075910E+02 -0.10314938587E+02  0.30015683675E+02  0.47000000000E+01 0.  1.
<mgrwt>
<rscale>  0 0.99765567E+03</rscale>
<asrwt>0</asrwt>
<pdfrwt beam="1">  1        2 0.99315264E-01 0.99765567E+03</pdfrwt>
<pdfrwt beam="2">  1       -2 0.59300539E-01 0.99765567E+03</pdfrwt>
<totfact> 0.14565746E+02</totfact>
</mgrwt>
</event>
<event>
 9    1  0.4307774E-036  0.9985276E+03  0.7818608E-02  0.8682441E-01
         -2   -1    0    0    0  501 -0.00000000000E+00  0.00000000000E+00  0.44641761874E+03  0.44641761874E+03  0.00000000000E+00 0.  1.
          2   -1    0    0  501    0  0.00000000000E+00 -0.00000000000E+00 -0.55836580810E+03  0.55836580810E+03  0.00000000000E+00 0.  1.
         36    2    1    2    0    0  0.21316282073E-13  0.56843418861E-13 -0.11194818936E+03  0.10047834268E+04  0.99852758488E+03 0.  0.
         25    2    3    3    0    0 -0.20915905501E+02 -0.13476549457E+03 -0.48535353101E+02  0.19118490625E+03  0.12488704596E+03 0.  0.
         35    2    3    3    0    0  0.20915905501E+02  0.13476549457E+03 -0.63412836259E+02  0.81359852059E+03  0.79957623231E+03 0.  0.
         22    1    5    5    0    0  0.36991394372E+03  0.50021694415E+02 -0.20698213473E+03  0.42682560814E+03  0.00000000000E+00 0. -1.
         22    1    5    5    0    0 -0.34899803822E+03  0.84743800156E+02  0.14356929847E+03  0.38677291245E+03  0.00000000000E+00 0. -1.
          5    1    4    4  502    0  0.31078964416E+02 -0.74170444214E+01 -0.42553127332E+02  0.53420719041E+02  0.47000000000E+01 0.  1.
         -5    1    4    4    0  502 -0.51994869917E+02 -0.12734845015E+03 -0.59822257689E+01  0.13776418721E+03  0.47000000000E+01 0.  1.
<mgrwt>
<rscale>  0 0.99852758E+03</rscale>
<asrwt>0</asrwt>
<pdfrwt beam="1">  1        2 0.85902431E-01 0.99852758E+03</pdfrwt>
<pdfrwt beam="2">  1       -2 0.68679634E-01 0.99852758E+03</pdfrwt>
<totfact> 0.12674737E+02</totfact>
</mgrwt>
</event>
<event>
 9    1  0.4307774E-036  0.9994089E+03  0.7818608E-02  0.8681601E-01
          2   -1    0    0  501    0  0.00000000000E+00  0.00000000000E+00  0.24321636394E+04  0.24321636394E+04  0.00000000000E+00 0.  1.
         -2   -1    0    0    0  501 -0.00000000000E+00 -0.00000000000E+00 -0.10266766213E+03  0.10266766213E+03  0.00000000000E+00 0.  1.
         36    2    1    2    0    0  0.35527136788E-14 -0.71054273576E-14  0.23294959773E+04  0.25348313015E+04  0.99940893487E+03 0.  0.
         25    2    3    3    0    0 -0.24966209340E+02  0.48585802781E+00  0.78487629229E+03  0.79518052806E+03  0.12513085292E+03 0.  0.
         35    2    3    3    0    0  0.24966209340E+02 -0.48585802781E+00  0.15446196850E+04  0.17396507735E+04  0.79994455727E+03 0.  0.
         22    1    5    5    0    0  0.50517094206E+02  0.39276497939E+03  0.63534962893E+03  0.74865576658E+03  0.00000000000E+00 0.  1.
         22    1    5    5    0    0 -0.25550884866E+02 -0.39325083742E+03  0.90927005605E+03  0.99099500689E+03  0.00000000000E+00 0.  1.
          5    1    4    4  502    0 -0.36325586477E+02  0.57773079254E+02  0.38405744935E+03  0.39010189864E+03  0.47000000000E+01 0.  1.
         -5    1    4    4    0  502  0.11359377137E+02 -0.57287221227E+02  0.40081884293E+03  0.40507862942E+03  0.47000000000E+01 0.  1.
<mgrwt>
<rscale>  0 0.99940893E+03</rscale>
<asrwt>0</asrwt>
<pdfrwt beam="1">  1        2 0.37417898E+00 0.99940893E+03</pdfrwt>
<pdfrwt beam="2">  1       -2 0.15795027E-01 0.99940893E+03</pdfrwt>
<totfact> 0.14032957E+02</totfact>
</mgrwt>
</event>
<event>
 9    1  0.4307774E-036  0.9972919E+03  0.7818608E-02  0.8683621E-01
         -1   -1    0    0    0  501 -0.00000000000E+00  0.00000000000E+00  0.50224798180E+03  0.50224798180E+03  0.00000000000E+00 0. -1.
          1   -1    0    0  501    0  0.00000000000E+00 -0.00000000000E+00 -0.49506972481E+03  0.49506972481E+03  0.00000000000E+00 0. -1.
         36    2    1    2    0    0  0.14210854715E-13 -0.14210854715E-13  0.71782569906E+01  0.99731770662E+03  0.99729187331E+03 0.  0.
         25    2    3    3    0    0  0.45206926131E+02 -0.10856694283E+03  0.73154189996E+02  0.18610236160E+03  0.12430650118E+03 0.  0.
         35    2    3    3    0    0 -0.45206926131E+02  0.10856694283E+03 -0.65975933005E+02  0.81121534502E+03  0.79992941252E+03 0.  0.
         22    1    5    5    0    0 -0.34421601702E+03  0.29377001812E+03 -0.78414923172E+02  0.45927594113E+03  0.00000000000E+00 0.  1.
         22    1    5    5    0    0  0.29900909089E+03 -0.18520307529E+03  0.12438990167E+02  0.35193940389E+03  0.00000000000E+00 0.  1.
          5    1    4    4  502    0  0.84547592406E+02 -0.50977973567E+02  0.57920991267E+02  0.11455994239E+03  0.47000000000E+01 0. -1.
         -5    1    4    4    0  502 -0.39340666275E+02 -0.57588969259E+02  0.15233198729E+02  0.71542419212E+02  0.47000000000E+01 0. -1.
<mgrwt>
<rscale>  0 0.99729187E+03</rscale>
<asrwt>0</asrwt>
<pdfrwt beam="1">  1        1 0.76164573E-01 0.99729187E+03</pdfrwt>
<pdfrwt beam="2">  1       -1 0.77268920E-01 0.99729187E+03</pdfrwt>
<totfact> 0.89109637E+01</totfact>
</mgrwt>
</event>
<event>
 9    1  0.4307774E-036  0.1001687E+04  0.7818608E-02  0.8679433E-01
         -1   -1    0    0    0  501 -0.00000000000E+00  0.00000000000E+00  0.10415890590E+03  0.10415890590E+03  0.00000000000E+00 0. -1.
          1   -1    0    0  501    0  0.00000000000E+00 -0.00000000000E+00 -0.24082830941E+04  0.24082830941E+04  0.00000000000E+00 0. -1.
         36    2    1    2    0    0  0.14210854715E-13 -0.71054273576E-14 -0.23041241882E+04  0.25124420000E+04  0.10016868416E+04 0.  0.
         25    2    3    3    0    0  0.70833005710E+02  0.27592647604E+02 -0.73253526966E+03  0.74697298603E+03  0.12482808848E+03 0.  0.
         35    2    3    3    0    0 -0.70833005710E+02 -0.27592647604E+02 -0.15715889185E+04  0.17654690140E+04  0.80075616857E+03 0.  0.
         22    1    5    5    0    0  0.98026126983E+02 -0.50726990011E+02  0.59574738286E+02  0.12542527069E+03  0.00000000000E+00 0. -1.
         22    1    5    5    0    0 -0.16885913269E+03  0.23134342407E+02 -0.16311636568E+04  0.16400437433E+04  0.00000000000E+00 0. -1.
          5    1    4    4  502    0 -0.31726276187E+02 -0.14000034729E+02 -0.20006493565E+03  0.20310250133E+03  0.47000000000E+01 0. -1.
         -5    1    4    4    0  502  0.10255928190E+03  0.41592682333E+02 -0.53247033401E+03  0.54387048470E+03  0.47000000000E+01 0. -1.
<mgrwt>
<rscale>  0 0.10016868E+04</rscale>
<asrwt>0</asrwt>
<pdfrwt beam="1">  1        1 0.37050507E+00 0.10016868E+04</pdfrwt>
<pdfrwt beam="2">  1       -1 0.16024448E-01 0.10016868E+04</pdfrwt>
<totfact> 0.47317034E+01</totfact>
</mgrwt>
</event>
<event>
 9    1  0.4307774E-036  0.1002404E+04  0.7818608E-02  0.8678752E-01
         -2   -1    0    0    0  501 -0.00000000000E+00  0.00000000000E+00  0.63844613123E+03  0.63844613123E+03  0.00000000000E+00 0. -1.
          2   -1    0    0  501    0  0.00000000000E+00 -0.00000000000E+00 -0.39346095096E+03  0.39346095096E+03  0.00000000000E+00 0. -1.
         36    2    1    2    0    0 -0.28421709430E-13 -0.28421709430E-13  0.24498518027E+03  0.10319070822E+04  0.10024043534E+04 0.  0.
         25    2    3    3    0    0 -0.33924581251E+02 -0.13840764628E+03  0.57875496318E+02  0.19804608044E+03  0.12476026267E+03 0.  0.
         35    2    3    3    0    0  0.33924581251E+02  0.13840764628E+03  0.18710968395E+03  0.83386100175E+03  0.80000411414E+03 0.  0.
         22    1    5    5    0    0  0.13236243689E+03  0.18828046663E+03  0.47375933730E+03  0.52670414703E+03  0.00000000000E+00 0. -1.
         22    1    5    5    0    0 -0.98437855635E+02 -0.49872820353E+02 -0.28664965335E+03  0.30715685472E+03  0.00000000000E+00 0. -1.
          5    1    4    4  502    0 -0.37826792422E+02  0.44323644039E+00  0.44233301508E+02  0.58392958872E+02  0.47000000000E+01 0. -1.
         -5    1    4    4    0  502  0.39022111712E+01 -0.13885088272E+03  0.13642194810E+02  0.13965312157E+03  0.47000000000E+01 0. -1.
<mgrwt>
<rscale>  0 0.10024044E+04</rscale>
<asrwt>0</asrwt>
<pdfrwt beam="1">  1        2 0.60532454E-01 0.10024044E+04</pdfrwt>
<pdfrwt beam="2">  1       -2 0.98222482E-01 0.10024044E+04</pdfrwt>
<totfact> 0.83034196E+01</totfact>
</mgrwt>
</event>
<event>
 9    1  0.4307774E-036  0.9998588E+03  0.7818608E-02  0.8681172E-01
          1   -1    0    0  501    0  0.00000000000E+00  0.00000000000E+00  0.33968231364E+03  0.33968231364E+03  0.00000000000E+00 0. -1.
         -1   -1    0    0    0  501 -0.00000000000E+00 -0.00000000000E+00 -0.73577397562E+03  0.73577397562E+03  0.00000000000E+00 0. -1.
         36    2    1    2    0    0 -0.14210854715E-13 -0.14210854715E-13 -0.39609166199E+03  0.10754562893E+04  0.99985880274E+03 0.  0.
         25    2    3    3    0    0 -0.11562655266E+03 -0.76426872573E+02 -0.54874436752E+02  0.19587846783E+03  0.12706928748E+03 0.  0.
         35    2    3    3    0    0  0.11562655266E+03  0.76426872573E+02 -0.34121722523E+03  0.87957782143E+03  0.79875990299E+03 0.  0.
         22    1    5    5    0    0  0.20355461414E+03  0.40124499179E+03 -0.29950099558E+03  0.54049317362E+03  0.00000000000E+00 0.  1.
         22    1    5    5    0    0 -0.87928061488E+02 -0.32481811921E+03 -0.41716229656E+02  0.33908464781E+03  0.00000000000E+00 0.  1.
          5    1    4    4  502    0 -0.72682440273E+02 -0.73973686021E+02 -0.92116051668E+02  0.13878868946E+03  0.47000000000E+01 0. -1.
         -5    1    4    4    0  502 -0.42944112384E+02 -0.24531865523E+01  0.37241614916E+02  0.57089778369E+02  0.47000000000E+01 0. -1.
<mgrwt>
<rscale>  0 0.99985880E+03</rscale>
<asrwt>0</asrwt>
<pdfrwt beam="1">  1        1 0.52258818E-01 0.99985880E+03</pdfrwt>
<pdfrwt beam="2">  1       -1 0.11319599E+00 0.99985880E+03</pdfrwt>
<totfact> 0.63894840E+01</totfact>
</mgrwt>
</event>
<event>
 9    1  0.4307774E-036  0.9996725E+03  0.7818608E-02  0.8681350E-01
         -2   -1    0    0    0  501 -0.00000000000E+00  0.00000000000E+00  0.20081458323E+03  0.20081458323E+03  0.00000000000E+00 0.  1.
          2   -1    0    0  501    0  0.00000000000E+00 -0.00000000000E+00 -0.12441142457E+04  0.12441142457E+04  0.00000000000E+00 0.  1.
         36    2    1    2    0    0  0.14210854715E-13  0.14210854715E-13 -0.10432996624E+04  0.14449288289E+04  0.99967251385E+03 0.  0.
         25    2    3    3    0    0  0.60795273783E+02 -0.12250496527E+03 -0.22928114969E+03  0.29464175002E+03  0.12466107419E+03 0.  0.
         35    2    3    3    0    0 -0.60795273783E+02  0.12250496527E+03 -0.81401851273E+03  0.11502870789E+04  0.80114336603E+03 0.  0.
         22    1    5    5    0    0 -0.17920875598E+03 -0.52888266372E+02  0.10011264606E+03  0.21197992557E+03  0.00000000000E+00 0.  1.
         22    1    5    5    0    0  0.11841348220E+03  0.17539323164E+03 -0.91413115879E+03  0.93830715331E+03  0.00000000000E+00 0.  1.
          5    1    4    4  502    0  0.68533742983E+02 -0.45978677759E+02 -0.43274153218E+02  0.93304099977E+02  0.47000000000E+01 0. -1.
         -5    1    4    4    0  502 -0.77384692003E+01 -0.76526287511E+02 -0.18600699647E+03  0.20133765004E+03  0.47000000000E+01 0. -1.
<mgrwt>
<rscale>  0 0.99967251E+03</rscale>
<asrwt>0</asrwt>
<pdfrwt beam="1">  1        2 0.19140219E+00 0.99967251E+03</pdfrwt>
<pdfrwt beam="2">  1       -2 0.30894551E-01 0.99967251E+03</pdfrwt>
<totfact> 0.20817752E+02</totfact>
</mgrwt>
</event>
<event>
 9    1  0.4307774E-036  0.9994434E+03  0.7818608E-02  0.8681568E-01
          2   -1    0    0  501    0  0.00000000000E+00  0.00000000000E+00  0.29564090020E+04  0.29564090020E+04  0.00000000000E+00 0. -1.
         -2   -1    0    0    0  501 -0.00000000000E+00 -0.00000000000E+00 -0.84467935895E+02  0.84467935895E+02  0.00000000000E+00 0. -1.
         36    2    1    2    0    0 -0.14210854715E-13 -0.14210854715E-13  0.28719410661E+04  0.30408769379E+04  0.99944337720E+03 0.  0.
         25    2    3    3    0    0 -0.70121306189E+02  0.94835667345E+01  0.17105110916E+03  0.22353449003E+03  0.12530862168E+03 0.  0.
         35    2    3    3    0    0  0.70121306189E+02 -0.94835667345E+01  0.27008899569E+04  0.28173424478E+04  0.79850170532E+03 0.  0.
         22    1    5    5    0    0  0.12138543633E+03  0.26661504205E+03  0.38142343013E+03  0.48093849695E+03  0.00000000000E+00 0. -1.
         22    1    5    5    0    0 -0.51264130138E+02 -0.27609860879E+03  0.23194665268E+04  0.23364039509E+04  0.00000000000E+00 0. -1.
          5    1    4    4  502    0 -0.45402954475E+02 -0.76210865749E+00  0.18668782056E+03  0.19218855697E+03  0.47000000000E+01 0.  1.
         -5    1    4    4    0  502 -0.24718351714E+02  0.10245675392E+02 -0.15636711402E+02  0.31345933056E+02  0.47000000000E+01 0.  1.
<mgrwt>
<rscale>  0 0.99944338E+03</rscale>
<asrwt>0</asrwt>
<pdfrwt beam="1">  1        2 0.45483207E+00 0.99944338E+03</pdfrwt>
<pdfrwt beam="2">  1       -2 0.12995069E-01 0.99944338E+03</pdfrwt>
<totfact> 0.90857396E+01</totfact>
</mgrwt>
</event>
<event>
 9    1  0.4307774E-036  0.1001216E+04  0.7818608E-02  0.8679881E-01
         -1   -1    0    0    0  501 -0.00000000000E+00  0.00000000000E+00  0.96727161613E+03  0.96727161613E+03  0.00000000000E+00 0. -1.
          1   -1    0    0  501    0  0.00000000000E+00 -0.00000000000E+00 -0.25908802321E+03  0.25908802321E+03  0.00000000000E+00 0. -1.
         36    2    1    2    0    0  0.28421709430E-13  0.00000000000E+00  0.70818359292E+03  0.12263596393E+04  0.10012162422E+04 0.  0.
         25    2    3    3    0    0  0.68817218778E+02 -0.12438278035E+03  0.13476732165E+03  0.23237781447E+03  0.12502132630E+03 0.  0.
         35    2    3    3    0    0 -0.68817218778E+02  0.12438278035E+03  0.57341627127E+03  0.99398182487E+03  0.79936647564E+03 0.  0.
         22    1    5    5    0    0  0.18362055796E+03  0.36682568549E+03  0.13260670475E+03  0.43111730537E+03  0.00000000000E+00 0. -1.
         22    1    5    5    0    0 -0.25243777674E+03 -0.24244290514E+03  0.44080956652E+03  0.56286451950E+03  0.00000000000E+00 0. -1.
          5    1    4    4  502    0  0.34334522613E+02 -0.61588383962E+01 -0.15139590858E+02  0.38315635774E+02  0.47000000000E+01 0. -1.
         -5    1    4    4    0  502  0.34482696165E+02 -0.11822394195E+03  0.14990691250E+03  0.19406217870E+03  0.47000000000E+01 0. -1.
<mgrwt>
<rscale>  0 0.10012162E+04</rscale>
<asrwt>0</asrwt>
<pdfrwt beam="1">  1        1 0.39859697E-01 0.10012162E+04</pdfrwt>
<pdfrwt beam="2">  1       -1 0.14881102E+00 0.10012162E+04</pdfrwt>
<totfact> 0.44513753E+01</totfact>
</mgrwt>
</event>
<event>
 9    1  0.4307774E-036  0.9992702E+03  0.7818608E-02  0.8681733E-01
         -1   -1    0    0    0  501 -0.00000000000E+00  0.00000000000E+00  0.93007677742E+03  0.93007677742E+03  0.00000000000E+00 0.  1.
          1   -1    0    0  501    0  0.00000000000E+00 -0.00000000000E+00 -0.26840282083E+03  0.26840282083E+03  0.00000000000E+00 0.  1.
         36    2    1    2    0    0  0.00000000000E+00  0.00000000000E+00  0.66167395659E+03  0.11984795982E+04  0.99927019498E+03 0.  0.
         25    2    3    3    0    0  0.41625804945E+02 -0.98627121974E+02  0.23230468410E+03  0.28421292957E+03  0.12390119553E+03 0.  0.
         35    2    3    3    0    0 -0.41625804945E+02  0.98627121974E+02  0.42936927250E+03  0.91426666868E+03  0.80004096924E+03 0.  0.
         22    1    5    5    0    0 -0.53389234609E+01  0.45159404500E+03  0.22126310621E+03  0.50291455313E+03  0.00000000000E+00 0. -1.
         22    1    5    5    0    0 -0.36286881484E+02 -0.35296692303E+03  0.20810616628E+03  0.41135211555E+03  0.00000000000E+00 0. -1.
          5    1    4    4  502    0  0.39604645513E+02 -0.11600865734E+03  0.12408522570E+03  0.17448716217E+03  0.47000000000E+01 0. -1.
         -5    1    4    4    0  502  0.20211594320E+01  0.17381535361E+02  0.10821945840E+03  0.10972576740E+03  0.47000000000E+01 0. -1.
<mgrwt>
<rscale>  0 0.99927019E+03</rscale>
<asrwt>0</asrwt>
<pdfrwt beam="1">  1        1 0.41292742E-01 0.99927019E+03</pdfrwt>
<pdfrwt beam="2">  1       -1 0.14308873E+00 0.99927019E+03</pdfrwt>
<totfact> 0.47530657E+01</totfact>
</mgrwt>
</event>
<event>
 9    1  0.4307774E-036  0.9996300E+03  0.7818608E-02  0.8681390E-01
         -1   -1    0    0    0  501 -0.00000000000E+00  0.00000000000E+00  0.65333688076E+03  0.65333688076E+03  0.00000000000E+00 0. -1.
          1   -1    0    0  501    0  0.00000000000E+00 -0.00000000000E+00 -0.38236785317E+03  0.38236785317E+03  0.00000000000E+00 0. -1.
         36    2    1    2    0    0  0.00000000000E+00 -0.10658141036E-13  0.27096902759E+03  0.10357047339E+04  0.99962997252E+03 0.  0.
         25    2    3    3    0    0 -0.13145622771E+03 -0.16279651917E+02  0.18637875214E+01  0.18202269738E+03  0.12483197422E+03 0.  0.
         35    2    3    3    0    0  0.13145622771E+03  0.16279651917E+02  0.26910524007E+03  0.85368203655E+03  0.79925566774E+03 0.  0.
         22    1    5    5    0    0 -0.28420677711E+03 -0.19368950146E+03  0.12975723189E+03  0.36759495965E+03  0.00000000000E+00 0. -1.
         22    1    5    5    0    0  0.41566300482E+03  0.20996915338E+03  0.13934800819E+03  0.48608707690E+03  0.00000000000E+00 0. -1.
          5    1    4    4  502    0 -0.13309146934E+03 -0.30045859541E+02 -0.36201413111E+02  0.14123995609E+03  0.47000000000E+01 0. -1.
         -5    1    4    4    0  502  0.16352416296E+01  0.13766207624E+02  0.38065200632E+02  0.40782741285E+02  0.47000000000E+01 0. -1.
<mgrwt>
<rscale>  0 0.99962997E+03</rscale>
<asrwt>0</asrwt>
<pdfrwt beam="1">  1        1 0.58825824E-01 0.99962997E+03</pdfrwt>
<pdfrwt beam="2">  1       -1 0.10051337E+00 0.99962997E+03</pdfrwt>
<totfact> 0.71918158E+01</totfact>
</mgrwt>
</event>
<event>
 9    1  0.4307774E-036  0.1000712E+04  0.7818608E-02  0.8680360E-01
          2   -1    0    0  501    0  0.00000000000E+00  0.00000000000E+00  0.80948144859E+03  0.80948144859E+03  0.00000000000E+00 0. -1.
         -2   -1    0    0    0  501 -0.00000000000E+00 -0.00000000000E+00 -0.30927962292E+03  0.30927962292E+03  0.00000000000E+00 0. -1.
         36    2    1    2    0    0  0.00000000000E+00  0.00000000000E+00  0.50020182567E+03  0.11187610715E+04  0.10007119809E+04 0.  0.
         25    2    3    3    0    0  0.92910462590E+02  0.91999174322E+01  0.21355982420E+03  0.26376576975E+03  0.12348113313E+03 0.  0.
         35    2    3    3    0    0 -0.92910462590E+02 -0.91999174322E+01  0.28664200147E+03  0.85499530176E+03  0.80008520577E+03 0.  0.
         22    1    5    5    0    0 -0.25844388435E+02  0.54050928466E+02  0.56170701707E+03  0.56489309458E+03  0.00000000000E+00 0. -1.
         22    1    5    5    0    0 -0.67066074155E+02 -0.63250845898E+02 -0.27506501559E+03  0.29010220718E+03  0.00000000000E+00 0. -1.
          5    1    4    4  502    0  0.18654444565E+02  0.22028128409E+02 -0.74795238416E+01  0.30187083664E+02  0.47000000000E+01 0.  1.
         -5    1    4    4    0  502  0.74256018025E+02 -0.12828210977E+02  0.22103934804E+03  0.23357868608E+03  0.47000000000E+01 0.  1.
<mgrwt>
<rscale>  0 0.10007120E+04</rscale>
<asrwt>0</asrwt>
<pdfrwt beam="1">  1        2 0.12453561E+00 0.10007120E+04</pdfrwt>
<pdfrwt beam="2">  1       -2 0.47581481E-01 0.10007120E+04</pdfrwt>
<totfact> 0.17178127E+02</totfact>
</mgrwt>
</event>
<event>
 9    1  0.4307774E-036  0.9977543E+03  0.7818608E-02  0.8683179E-01
         -2   -1    0    0    0  501 -0.00000000000E+00  0.00000000000E+00  0.94962478086E+02  0.94962478086E+02  0.00000000000E+00 0. -1.
          2   -1    0    0  501    0  0.00000000000E+00 -0.00000000000E+00 -0.26208079863E+04  0.26208079863E+04  0.00000000000E+00 0. -1.
         36    2    1    2    0    0  0.14210854715E-13  0.14210854715E-13 -0.25258455082E+04  0.27157704644E+04  0.99775432039E+03 0.  0.
         25    2    3    3    0    0 -0.11114618434E+03 -0.61070532237E+02 -0.50263428198E+03  0.53592328832E+03  0.13597597339E+03 0.  0.
         35    2    3    3    0    0  0.11114618434E+03  0.61070532237E+02 -0.20232112262E+04  0.21798471760E+04  0.80141559808E+03 0.  0.
         22    1    5    5    0    0 -0.22784959006E+03 -0.17409916226E+03 -0.14223898450E+04  0.14510061423E+04  0.00000000000E+00 0.  1.
         22    1    5    5    0    0  0.33899577440E+03  0.23516969450E+03 -0.60082138121E+03  0.72884103369E+03  0.00000000000E+00 0.  1.
          5    1    4    4  502    0 -0.80229124594E+02 -0.44323951069E+02 -0.11719927716E+03  0.14885928133E+03  0.47000000000E+01 0. -1.
         -5    1    4    4    0  502 -0.30917059742E+02 -0.16746581168E+02 -0.38543500482E+03  0.38706400699E+03  0.47000000000E+01 0. -1.
<mgrwt>
<rscale>  0 0.99775432E+03</rscale>
<asrwt>0</asrwt>
<pdfrwt beam="1">  1        2 0.40320115E+00 0.99775432E+03</pdfrwt>
<pdfrwt beam="2">  1       -2 0.14609615E-01 0.99775432E+03</pdfrwt>
<totfact> 0.12267044E+02</totfact>
</mgrwt>
</event>
<event>
 9    1  0.4307774E-036  0.1000019E+04  0.7818608E-02  0.8681020E-01
         -2   -1    0    0    0  501 -0.00000000000E+00  0.00000000000E+00  0.98846434481E+02  0.98846434481E+02  0.00000000000E+00 0. -1.
          2   -1    0    0  501    0  0.00000000000E+00 -0.00000000000E+00 -0.25292721717E+04  0.25292721717E+04  0.00000000000E+00 0. -1.
         36    2    1    2    0    0  0.00000000000E+00 -0.14210854715E-13 -0.24304257372E+04  0.26281186062E+04  0.10000190718E+04 0.  0.
         25    2    3    3    0    0 -0.42765581467E+02  0.65694157156E+02 -0.15152802302E+03  0.21171146957E+03  0.12536501643E+03 0.  0.
         35    2    3    3    0    0  0.42765581467E+02 -0.65694157156E+02 -0.22788977142E+04  0.24164071366E+04  0.79968996545E+03 0.  0.
         22    1    5    5    0    0 -0.33768796642E+03  0.90505448963E+02 -0.66941147345E+03  0.75520601145E+03  0.00000000000E+00 0.  1.
         22    1    5    5    0    0  0.38045354788E+03 -0.15619960612E+03 -0.16094862408E+04  0.16612011252E+04  0.00000000000E+00 0.  1.
          5    1    4    4  502    0  0.21777607207E+02  0.51412710836E+02 -0.13076436660E+03  0.14226363057E+03  0.47000000000E+01 0.  1.
         -5    1    4    4    0  502 -0.64543188675E+02  0.14281446320E+02 -0.20763656416E+02  0.69447838995E+02  0.47000000000E+01 0.  1.
<mgrwt>
<rscale>  0 0.10000191E+04</rscale>
<asrwt>0</asrwt>
<pdfrwt beam="1">  1        2 0.38911878E+00 0.10000191E+04</pdfrwt>
<pdfrwt beam="2">  1       -2 0.15207144E-01 0.10000191E+04</pdfrwt>
<totfact> 0.13060469E+02</totfact>
</mgrwt>
</event>
<event>
 9    1  0.4307774E-036  0.1002557E+04  0.7818608E-02  0.8678607E-01
         -1   -1    0    0    0  501 -0.00000000000E+00  0.00000000000E+00  0.90495648362E+03  0.90495648362E+03  0.00000000000E+00 0. -1.
          1   -1    0    0  501    0  0.00000000000E+00 -0.00000000000E+00 -0.27767097702E+03  0.27767097702E+03  0.00000000000E+00 0. -1.
         36    2    1    2    0    0  0.26645352591E-14  0.00000000000E+00  0.62728550660E+03  0.11826274606E+04  0.10025570327E+04 0.  0.
         25    2    3    3    0    0 -0.89560832847E+00  0.14039127507E+03  0.83598063750E+02  0.20542790148E+03  0.12450491641E+03 0.  0.
         35    2    3    3    0    0  0.89560832847E+00 -0.14039127507E+03  0.54368744285E+03  0.97719955916E+03  0.79975773249E+03 0.  0.
         22    1    5    5    0    0 -0.26876615194E+03 -0.36024722422E+03  0.39673719064E+03  0.59951122210E+03  0.00000000000E+00 0. -1.
         22    1    5    5    0    0  0.26966176027E+03  0.21985594915E+03  0.14695025221E+03  0.37768833706E+03  0.00000000000E+00 0. -1.
          5    1    4    4  502    0 -0.84070771293E+01  0.13926421898E+03  0.10989004169E+03  0.17766010497E+03  0.47000000000E+01 0.  1.
         -5    1    4    4    0  502  0.75114688008E+01  0.11270560890E+01 -0.26291977938E+02  0.27767796507E+02  0.47000000000E+01 0.  1.
<mgrwt>
<rscale>  0 0.10025570E+04</rscale>
<asrwt>0</asrwt>
<pdfrwt beam="1">  1        1 0.42718612E-01 0.10025570E+04</pdfrwt>
<pdfrwt beam="2">  1       -1 0.13922407E+00 0.10025570E+04</pdfrwt>
<totfact> 0.49033045E+01</totfact>
</mgrwt>
</event>
<event>
 9    1  0.4307774E-036  0.1000175E+04  0.7818608E-02  0.8680871E-01
         -1   -1    0    0    0  501 -0.00000000000E+00  0.00000000000E+00  0.20097466253E+03  0.20097466253E+03  0.00000000000E+00 0. -1.
          1   -1    0    0  501    0  0.00000000000E+00 -0.00000000000E+00 -0.12443731526E+04  0.12443731526E+04  0.00000000000E+00 0. -1.
         36    2    1    2    0    0  0.56843418861E-13 -0.35527136788E-14 -0.10433984901E+04  0.14453478151E+04  0.10001749335E+04 0.  0.
         25    2    3    3    0    0 -0.13927742403E+03  0.13316859859E+02 -0.20539290858E+03  0.27819329701E+03  0.12501889460E+03 0.  0.
         35    2    3    3    0    0  0.13927742403E+03 -0.13316859859E+02 -0.83800558148E+03  0.11671545181E+04  0.80026294114E+03 0.  0.
         22    1    5    5    0    0  0.36595148839E+03 -0.22064599771E+03 -0.22842188663E+03  0.48454278082E+03  0.00000000000E+00 0. -1.
         22    1    5    5    0    0 -0.22667406436E+03  0.20732913785E+03 -0.60958369485E+03  0.68261173729E+03  0.00000000000E+00 0. -1.
          5    1    4    4  502    0 -0.46423091072E+02  0.15724225587E+02 -0.17274447201E+03  0.17962487931E+03  0.47000000000E+01 0. -1.
         -5    1    4    4    0  502 -0.92854332961E+02 -0.24073657281E+01 -0.32648436565E+02  0.98568417708E+02  0.47000000000E+01 0. -1.
<mgrwt>
<rscale>  0 0.10001749E+04</rscale>
<asrwt>0</asrwt>
<pdfrwt beam="1">  1        1 0.19144202E+00 0.10001749E+04</pdfrwt>
<pdfrwt beam="2">  1       -1 0.30919179E-01 0.10001749E+04</pdfrwt>
<totfact> 0.10546051E+02</totfact>
</mgrwt>
</event>
<event>
 9    1  0.4307774E-036  0.9975929E+03  0.7818608E-02  0.8683334E-01
         -2   -1    0    0    0  501 -0.00000000000E+00  0.00000000000E+00  0.37406993028E+03  0.37406993028E+03  0.00000000000E+00 0.  1.
          2   -1    0    0  501    0  0.00000000000E+00 -0.00000000000E+00 -0.66511069006E+03  0.66511069006E+03  0.00000000000E+00 0.  1.
         36    2    1    2    0    0  0.28421709430E-13  0.00000000000E+00 -0.29104075978E+03  0.10391806203E+04  0.99759292190E+03 0.  0.
         25    2    3    3    0    0 -0.11626750349E+03 -0.42281262617E+02 -0.10683795065E+03  0.20602374750E+03  0.12540175158E+03 0.  0.
         35    2    3    3    0    0  0.11626750349E+03  0.42281262617E+02 -0.18420280913E+03  0.83315687284E+03  0.80306529145E+03 0.  0.
         22    1    5    5    0    0  0.21175037546E+03  0.39089804132E+03 -0.49070919646E+02  0.44726664908E+03  0.00000000000E+00 0.  1.
         22    1    5    5    0    0 -0.95482871979E+02 -0.34861677871E+03 -0.13513188949E+03  0.38589022376E+03  0.00000000000E+00 0.  1.
          5    1    4    4  502    0 -0.24201261171E+02 -0.31929984451E+02  0.23011679207E+02  0.46441924263E+02  0.47000000000E+01 0.  1.
         -5    1    4    4    0  502 -0.92066242315E+02 -0.10351278166E+02 -0.12984962985E+03  0.15958182323E+03  0.47000000000E+01 0.  1.
<mgrwt>
<rscale>  0 0.99759292E+03</rscale>
<asrwt>0</asrwt>
<pdfrwt beam="1">  1        2 0.10232472E+00 0.99759292E+03</pdfrwt>
<pdfrwt beam="2">  1       -2 0.57549220E-01 0.99759292E+03</pdfrwt>
<totfact> 0.14950590E+02</totfact>
</mgrwt>
</event>
<event>
 9    1  0.4307774E-036  0.9995514E+03  0.7818608E-02  0.8681465E-01
          1   -1    0    0  501    0  0.00000000000E+00  0.00000000000E+00  0.11383144477E+04  0.11383144477E+04  0.00000000000E+00 0.  1.
         -1   -1    0    0    0  501 -0.00000000000E+00 -0.00000000000E+00 -0.21942597280E+03  0.21942597280E+03  0.00000000000E+00 0.  1.
         36    2    1    2    0    0  0.00000000000E+00 -0.14210854715E-13  0.91888847491E+03  0.13577404205E+04  0.99955140945E+03 0.  0.
         25    2    3    3    0    0  0.83084336740E+02 -0.70504809752E+02  0.28180230230E+03  0.32692031800E+03  0.12486160952E+03 0.  0.
         35    2    3    3    0    0 -0.83084336740E+02  0.70504809752E+02  0.63708617262E+03  0.10308201025E+04  0.80301765683E+03 0.  0.
         22    1    5    5    0    0 -0.18665680890E+03 -0.20679294936E+03  0.67705457353E+03  0.73212497823E+03  0.00000000000E+00 0.  1.
         22    1    5    5    0    0  0.10357247215E+03  0.27729775911E+03 -0.39968400910E+02  0.29869512428E+03  0.00000000000E+00 0.  1.
          5    1    4    4  502    0  0.50674857349E+02 -0.44537360179E+02  0.34141697723E+02  0.75757924618E+02  0.47000000000E+01 0.  1.
         -5    1    4    4    0  502  0.32409479391E+02 -0.25967449573E+02  0.24766060457E+03  0.25116239338E+03  0.47000000000E+01 0.  1.
<mgrwt>
<rscale>  0 0.99955141E+03</rscale>
<asrwt>0</asrwt>
<pdfrwt beam="1">  1        1 0.17512530E+00 0.99955141E+03</pdfrwt>
<pdfrwt beam="2">  1       -1 0.33757843E-01 0.99955141E+03</pdfrwt>
<totfact> 0.10880616E+02</totfact>
</mgrwt>
</event>
<event>
 9    1  0.4307774E-036  0.9977088E+03  0.7818608E-02  0.8683223E-01
          2   -1    0    0  501    0  0.00000000000E+00  0.00000000000E+00  0.12766902747E+04  0.12766902747E+04  0.00000000000E+00 0. -1.
         -2   -1    0    0    0  501 -0.00000000000E+00 -0.00000000000E+00 -0.19492254327E+03  0.19492254327E+03  0.00000000000E+00 0. -1.
         36    2    1    2    0    0  0.14210854715E-13  0.00000000000E+00  0.10817677315E+04  0.14716128180E+04  0.99770880586E+03 0.  0.
         25    2    3    3    0    0  0.74994399259E+02  0.81021766150E+02  0.34096525034E+03  0.37855115393E+03  0.12188103909E+03 0.  0.
         35    2    3    3    0    0 -0.74994399259E+02 -0.81021766150E+02  0.74080248112E+03  0.10930616641E+04  0.79611983955E+03 0.  0.
         22    1    5    5    0    0 -0.38549394303E+03 -0.21349686301E+03  0.55183122106E+03  0.70618990871E+03  0.00000000000E+00 0. -1.
         22    1    5    5    0    0  0.31049954377E+03  0.13247509686E+03  0.18897126006E+03  0.38687175536E+03  0.00000000000E+00 0. -1.
          5    1    4    4  502    0  0.52527115796E+02  0.19754249857E+02  0.29054136922E+03  0.29594882245E+03  0.47000000000E+01 0.  1.
         -5    1    4    4    0  502  0.22467283464E+02  0.61267516293E+02  0.50423881128E+02  0.82602331487E+02  0.47000000000E+01 0.  1.
<mgrwt>
<rscale>  0 0.99770881E+03</rscale>
<asrwt>0</asrwt>
<pdfrwt beam="1">  1        2 0.19641388E+00 0.99770881E+03</pdfrwt>
<pdfrwt beam="2">  1       -2 0.29988084E-01 0.99770881E+03</pdfrwt>
<totfact> 0.21039856E+02</totfact>
</mgrwt>
</event>
<event>
 9    1  0.4307774E-036  0.1000137E+04  0.7818608E-02  0.8680907E-01
         -2   -1    0    0    0  501 -0.00000000000E+00  0.00000000000E+00  0.74945869310E+03  0.74945869310E+03  0.00000000000E+00 0.  1.
          2   -1    0    0  501    0  0.00000000000E+00 -0.00000000000E+00 -0.33366552538E+03  0.33366552538E+03  0.00000000000E+00 0.  1.
         36    2    1    2    0    0 -0.28421709430E-13 -0.14210854715E-13  0.41579316773E+03  0.10831242185E+04  0.10001370478E+04 0.  0.
         25    2    3    3    0    0 -0.13157625083E+03  0.47811564388E+02  0.69436218235E+02  0.20014531329E+03  0.12505399856E+03 0.  0.
         35    2    3    3    0    0  0.13157625083E+03 -0.47811564388E+02  0.34635694949E+03  0.88297890519E+03  0.80005646993E+03 0.  0.
         22    1    5    5    0    0  0.42774116986E+03 -0.14235750955E+03  0.35213094168E+03  0.57203528651E+03  0.00000000000E+00 0.  1.
         22    1    5    5    0    0 -0.29616491903E+03  0.94545945165E+02 -0.57739921906E+01  0.31094361868E+03  0.00000000000E+00 0.  1.
          5    1    4    4  502    0 -0.82250655763E+02  0.78778084882E+02  0.63605315389E+01  0.11416524599E+03  0.47000000000E+01 0.  1.
         -5    1    4    4    0  502 -0.49325595071E+02 -0.30966520493E+02  0.63075686696E+02  0.85980067299E+02  0.47000000000E+01 0.  1.
<mgrwt>
<rscale>  0 0.10001370E+04</rscale>
<asrwt>0</asrwt>
<pdfrwt beam="1">  1        2 0.51333158E-01 0.10001370E+04</pdfrwt>
<pdfrwt beam="2">  1       -2 0.11530134E+00 0.10001370E+04</pdfrwt>
<totfact> 0.66949357E+01</totfact>
</mgrwt>
</event>
<event>
 9    1  0.4307774E-036  0.9992654E+03  0.7818608E-02  0.8681738E-01
         -2   -1    0    0    0  501 -0.00000000000E+00  0.00000000000E+00  0.18609213753E+03  0.18609213753E+03  0.00000000000E+00 0. -1.
          2   -1    0    0  501    0  0.00000000000E+00 -0.00000000000E+00 -0.13414475026E+04  0.13414475026E+04  0.00000000000E+00 0. -1.
         36    2    1    2    0    0  0.00000000000E+00  0.28421709430E-13 -0.11553553651E+04  0.15275396402E+04  0.99926539647E+03 0.  0.
         25    2    3    3    0    0  0.35416383192E+02 -0.11395323531E+03 -0.36707945757E+03  0.40576137013E+03  0.12512114643E+03 0.  0.
         35    2    3    3    0    0 -0.35416383192E+02  0.11395323531E+03 -0.78827590753E+03  0.11217782700E+04  0.78915646147E+03 0.  0.
         22    1    5    5    0    0 -0.40324140723E+03 -0.19016969605E+02 -0.34924873831E+03  0.53379767595E+03  0.00000000000E+00 0.  1.
         22    1    5    5    0    0  0.36782502403E+03  0.13297020492E+03 -0.43902716922E+03  0.58798059408E+03  0.00000000000E+00 0.  1.
          5    1    4    4  502    0 -0.23251149174E+02 -0.10083684134E+03 -0.28968636656E+03  0.30765071994E+03  0.47000000000E+01 0.  1.
         -5    1    4    4    0  502  0.58667532367E+02 -0.13116393972E+02 -0.77393091010E+02  0.98110650191E+02  0.47000000000E+01 0.  1.
<mgrwt>
<rscale>  0 0.99926540E+03</rscale>
<asrwt>0</asrwt>
<pdfrwt beam="1">  1        2 0.20637653E+00 0.99926540E+03</pdfrwt>
<pdfrwt beam="2">  1       -2 0.28629561E-01 0.99926540E+03</pdfrwt>
<totfact> 0.20994186E+02</totfact>
</mgrwt>
</event>
<event>
 9    1  0.4307774E-036  0.1002578E+04  0.7818608E-02  0.8678587E-01
          2   -1    0    0  501    0  0.00000000000E+00  0.00000000000E+00  0.56951161544E+03  0.56951161544E+03  0.00000000000E+00 0. -1.
         -2   -1    0    0    0  501 -0.00000000000E+00 -0.00000000000E+00 -0.44123904007E+03  0.44123904007E+03  0.00000000000E+00 0. -1.
         36    2    1    2    0    0  0.00000000000E+00 -0.71054273576E-14  0.12827257537E+03  0.10107506555E+04  0.10025781935E+04 0.  0.
         25    2    3    3    0    0 -0.14020583567E+03 -0.40065905650E+02  0.43657304739E+02  0.19325646521E+03  0.11907622742E+03 0.  0.
         35    2    3    3    0    0  0.14020583567E+03  0.40065905650E+02  0.84615270632E+02  0.81749419030E+03  0.79992127988E+03 0.  0.
         22    1    5    5    0    0  0.45197319482E+03 -0.11047139503E+03  0.73975798300E+02  0.47112218870E+03  0.00000000000E+00 0.  1.
         22    1    5    5    0    0 -0.31176735914E+03  0.15053730068E+03  0.10639472332E+02  0.34637200160E+03  0.00000000000E+00 0.  1.
          5    1    4    4  502    0 -0.51475679296E+02  0.42527515521E+02  0.16564840553E+02  0.68955196163E+02  0.47000000000E+01 0. -1.
         -5    1    4    4    0  502 -0.88730156377E+02 -0.82593421171E+02  0.27092464187E+02  0.12430126905E+03  0.47000000000E+01 0. -1.
<mgrwt>
<rscale>  0 0.10025782E+04</rscale>
<asrwt>0</asrwt>
<pdfrwt beam="1">  1        2 0.87617172E-01 0.10025782E+04</pdfrwt>
<pdfrwt beam="2">  1       -2 0.67882929E-01 0.10025782E+04</pdfrwt>
<totfact> 0.12699092E+02</totfact>
</mgrwt>
</event>
<event>
 9    1  0.4307774E-036  0.9999860E+03  0.7818608E-02  0.8681051E-01
         -2   -1    0    0    0  501 -0.00000000000E+00  0.00000000000E+00  0.25200663682E+03  0.25200663682E+03  0.00000000000E+00 0.  1.
          2   -1    0    0  501    0  0.00000000000E+00 -0.00000000000E+00 -0.99200962857E+03  0.99200962857E+03  0.00000000000E+00 0.  1.
         36    2    1    2    0    0  0.35527136788E-13 -0.28421709430E-13 -0.74000299175E+03  0.12440162654E+04  0.99998602028E+03 0.  0.
         25    2    3    3    0    0 -0.34018895823E+02  0.91293797623E+02 -0.14663876710E+02  0.16035946210E+03  0.12652385170E+03 0.  0.
         35    2    3    3    0    0  0.34018895823E+02 -0.91293797623E+02 -0.72533911504E+03  0.10836568033E+04  0.79918920960E+03 0.  0.
         22    1    5    5    0    0 -0.37741363447E+03  0.22426421934E+02 -0.35171224297E+03  0.51637728236E+03  0.00000000000E+00 0.  1.
         22    1    5    5    0    0  0.41143253029E+03 -0.11372021956E+03 -0.37362687207E+03  0.56727952092E+03  0.00000000000E+00 0.  1.
          5    1    4    4  502    0 -0.46203331924E+02 -0.46988754601E+00  0.32183070776E+02  0.56504944207E+02  0.47000000000E+01 0. -1.
         -5    1    4    4    0  502  0.12184436101E+02  0.91763685169E+02 -0.46846947486E+02  0.10385451790E+03  0.47000000000E+01 0. -1.
<mgrwt>
<rscale>  0 0.99998602E+03</rscale>
<asrwt>0</asrwt>
<pdfrwt beam="1">  1        2 0.15261687E+00 0.99998602E+03</pdfrwt>
<pdfrwt beam="2">  1       -2 0.38770252E-01 0.99998602E+03</pdfrwt>
<totfact> 0.19369234E+02</totfact>
</mgrwt>
</event>
<event>
 9    1 -0.4307774E-036  0.1001008E+04  0.7818608E-02  0.8680078E-01
         -1   -1    0    0    0  501 -0.00000000000E+00  0.00000000000E+00  0.34507715431E+04  0.34507715431E+04  0.00000000000E+00 0.  1.
          1   -1    0    0  501    0  0.00000000000E+00 -0.00000000000E+00 -0.72593753974E+02  0.72593753974E+02  0.00000000000E+00 0.  1.
         36    2    1    2    0    0 -0.17763568394E-13  0.00000000000E+00  0.33781777891E+04  0.35233652971E+04  0.10010084124E+04 0.  0.
         25    2    3    3    0    0  0.28439481222E+02 -0.11131931340E+03  0.34594612221E+03  0.38470820367E+03  0.12296702349E+03 0.  0.
         35    2    3    3    0    0 -0.28439481222E+02  0.11131931340E+03  0.30322316669E+04  0.31386570934E+04  0.80220862283E+03 0.  0.
         22    1    5    5    0    0 -0.33585689020E+03  0.42908852699E+02  0.62419398286E+03  0.71011206762E+03  0.00000000000E+00 0.  1.
         22    1    5    5    0    0  0.30741740898E+03  0.68410460697E+02  0.24080376840E+04  0.24285450258E+04  0.00000000000E+00 0.  1.
          5    1    4    4  502    0  0.59948721151E+02 -0.11618171996E+02  0.97839356627E+02  0.11542729657E+03  0.47000000000E+01 0. -1.
         -5    1    4    4    0  502 -0.31509239929E+02 -0.99701141400E+02  0.24810676559E+03  0.26928090710E+03  0.47000000000E+01 0. -1.
<mgrwt>
<rscale>  0 0.10010084E+04</rscale>
<asrwt>0</asrwt>
<pdfrwt beam="1">  1        1 0.11168272E-01 0.10010084E+04</pdfrwt>
<pdfrwt beam="2">  1       -1 0.53088780E+00 0.10010084E+04</pdfrwt>
<totfact>-0.27982843E+00</totfact>
</mgrwt>
</event>
<event>
 9    1  0.4307774E-036  0.9998561E+03  0.7818608E-02  0.8681175E-01
          2   -1    0    0  501    0  0.00000000000E+00  0.00000000000E+00  0.56611589904E+03  0.56611589904E+03  0.00000000000E+00 0.  1.
         -2   -1    0    0    0  501 -0.00000000000E+00 -0.00000000000E+00 -0.44147859662E+03  0.44147859662E+03  0.00000000000E+00 0.  1.
         36    2    1    2    0    0  0.10658141036E-13  0.00000000000E+00  0.12463730242E+03  0.10075944957E+04  0.99985609491E+03 0.  0.
         25    2    3    3    0    0  0.16002524982E+02 -0.20856635453E+02  0.16009732121E+03  0.20508360835E+03  0.12544741570E+03 0.  0.
         35    2    3    3    0    0 -0.16002524982E+02  0.20856635453E+02 -0.35460018792E+02  0.80251088731E+03  0.80129596984E+03 0.  0.
         22    1    5    5    0    0 -0.39130395768E+03  0.99551407638E+02 -0.94102291263E+02  0.41458956967E+03  0.00000000000E+00 0.  1.
         22    1    5    5    0    0  0.37530143270E+03 -0.78694772185E+02  0.58642272471E+02  0.38792131764E+03  0.00000000000E+00 0.  1.
          5    1    4    4  502    0 -0.11347999871E+02 -0.69060471315E+02  0.69298468114E+02  0.98602705248E+02  0.47000000000E+01 0.  1.
         -5    1    4    4    0  502  0.27350524853E+02  0.48203835862E+02  0.90798853098E+02  0.10648090310E+03  0.47000000000E+01 0.  1.
<mgrwt>
<rscale>  0 0.99985609E+03</rscale>
<asrwt>0</asrwt>
<pdfrwt beam="1">  1        2 0.87094754E-01 0.99985609E+03</pdfrwt>
<pdfrwt beam="2">  1       -2 0.67919784E-01 0.99985609E+03</pdfrwt>
<totfact> 0.12774456E+02</totfact>
</mgrwt>
</event>
<event>
 9    1  0.4307774E-036  0.1000076E+04  0.7818608E-02  0.8680965E-01
         -2   -1    0    0    0  501 -0.00000000000E+00  0.00000000000E+00  0.10020238503E+03  0.10020238503E+03  0.00000000000E+00 0.  1.
          2   -1    0    0  501    0  0.00000000000E+00 -0.00000000000E+00 -0.24953312039E+04  0.24953312039E+04  0.00000000000E+00 0.  1.
         36    2    1    2    0    0 -0.28421709430E-13  0.21316282073E-13 -0.23951288189E+04  0.25955335889E+04  0.10000762732E+04 0.  0.
         25    2    3    3    0    0  0.12524238045E+03  0.17273890831E+02 -0.28608288118E+03  0.33649934619E+03  0.12411427765E+03 0.  0.
         35    2    3    3    0    0 -0.12524238045E+03 -0.17273890831E+02 -0.21090459377E+04  0.22590342427E+04  0.79948539785E+03 0.  0.
         22    1    5    5    0    0  0.23750036443E+03  0.20773616180E+03 -0.47572215731E+03  0.57085226371E+03  0.00000000000E+00 0. -1.
         22    1    5    5    0    0 -0.36274274488E+03 -0.22501005263E+03 -0.16333237804E+04  0.16881819790E+04  0.00000000000E+00 0. -1.
          5    1    4    4  502    0 -0.79200787905E+01 -0.25040104818E+02 -0.10150507126E+03  0.10495286556E+03  0.47000000000E+01 0.  1.
         -5    1    4    4    0  502  0.13316245924E+03  0.42313995649E+02 -0.18457780992E+03  0.23154648063E+03  0.47000000000E+01 0.  1.
<mgrwt>
<rscale>  0 0.10000763E+04</rscale>
<asrwt>0</asrwt>
<pdfrwt beam="1">  1        2 0.38389705E+00 0.10000763E+04</pdfrwt>
<pdfrwt beam="2">  1       -2 0.15415754E-01 0.10000763E+04</pdfrwt>
<totfact> 0.13388125E+02</totfact>
</mgrwt>
</event>
<event>
 9    1  0.4307774E-036  0.9964845E+03  0.7818608E-02  0.8684393E-01
         -2   -1    0    0    0  501 -0.00000000000E+00  0.00000000000E+00  0.23461813379E+03  0.23461813379E+03  0.00000000000E+00 0.  1.
          2   -1    0    0  501    0  0.00000000000E+00 -0.00000000000E+00 -0.10580825072E+04  0.10580825072E+04  0.00000000000E+00 0.  1.
         36    2    1    2    0    0  0.00000000000E+00  0.14210854715E-13 -0.82346437340E+03  0.12927006410E+04  0.99648450712E+03 0.  0.
         25    2    3    3    0    0  0.38829246027E+02  0.61927192457E+02 -0.30954408903E+01  0.14544791327E+03  0.12570929245E+03 0.  0.
         35    2    3    3    0    0 -0.38829246027E+02 -0.61927192457E+02 -0.82036893251E+03  0.11472527277E+04  0.79864945270E+03 0.  0.
         22    1    5    5    0    0 -0.12694804094E+03 -0.20312015049E+03 -0.92175556789E+03  0.95236911309E+03  0.00000000000E+00 0. -1.
         22    1    5    5    0    0  0.88118794917E+02  0.14119295803E+03  0.10138663538E+03  0.19488361462E+03  0.00000000000E+00 0. -1.
          5    1    4    4  502    0 -0.58686750228E+01 -0.56207241551E+00  0.50880214777E+02  0.51435819500E+02  0.47000000000E+01 0. -1.
         -5    1    4    4    0  502  0.44697921050E+02  0.62489264873E+02 -0.53975655667E+02  0.94012093771E+02  0.47000000000E+01 0. -1.
<mgrwt>
<rscale>  0 0.99648451E+03</rscale>
<asrwt>0</asrwt>
<pdfrwt beam="1">  1        2 0.16278193E+00 0.99648451E+03</pdfrwt>
<pdfrwt beam="2">  1       -2 0.36095097E-01 0.99648451E+03</pdfrwt>
<totfact> 0.20168296E+02</totfact>
</mgrwt>
</event>
<event>
 9    1  0.4307774E-036  0.9976100E+03  0.7818608E-02  0.8683317E-01
         -2   -1    0    0    0  501 -0.00000000000E+00  0.00000000000E+00  0.45409411252E+03  0.45409411252E+03  0.00000000000E+00 0.  1.
          2   -1    0    0  501    0  0.00000000000E+00 -0.00000000000E+00 -0.54791821220E+03  0.54791821220E+03  0.00000000000E+00 0.  1.
         36    2    1    2    0    0 -0.10658141036E-13  0.00000000000E+00 -0.93824099681E+02  0.10020123247E+04  0.99761001259E+03 0.  0.
         25    2    3    3    0    0 -0.27344584418E+02  0.10093544604E+03  0.62593992497E+02  0.17404200000E+03  0.12424539953E+03 0.  0.
         35    2    3    3    0    0  0.27344584418E+02 -0.10093544604E+03 -0.15641809218E+03  0.82797032472E+03  0.80630797373E+03 0.  0.
         22    1    5    5    0    0 -0.38718425265E+03 -0.52741416764E+01 -0.61289547773E+02  0.39204064935E+03  0.00000000000E+00 0. -1.
         22    1    5    5    0    0  0.41452883707E+03 -0.95661304361E+02 -0.95128544404E+02  0.43592967538E+03  0.00000000000E+00 0. -1.
          5    1    4    4  502    0 -0.50988097198E+02  0.76005563701E+02 -0.11374577945E+02  0.92347727600E+02  0.47000000000E+01 0. -1.
         -5    1    4    4    0  502  0.23643512779E+02  0.24929882336E+02  0.73968570442E+02  0.81694272401E+02  0.47000000000E+01 0. -1.
<mgrwt>
<rscale>  0 0.99761001E+03</rscale>
<asrwt>0</asrwt>
<pdfrwt beam="1">  1        2 0.84295110E-01 0.99761001E+03</pdfrwt>
<pdfrwt beam="2">  1       -2 0.69860633E-01 0.99761001E+03</pdfrwt>
<totfact> 0.12487586E+02</totfact>
</mgrwt>
</event>
<event>
 9    1  0.4307774E-036  0.1002933E+04  0.7818608E-02  0.8678250E-01
          2   -1    0    0  501    0  0.00000000000E+00  0.00000000000E+00  0.15292016509E+04  0.15292016509E+04  0.00000000000E+00 0.  1.
         -2   -1    0    0    0  501 -0.00000000000E+00 -0.00000000000E+00 -0.16444444531E+03  0.16444444531E+03  0.00000000000E+00 0.  1.
         36    2    1    2    0    0 -0.28421709430E-13 -0.71054273576E-14  0.13647572055E+04  0.16936460962E+04  0.10029331328E+04 0.  0.
         25    2    3    3    0    0  0.29302840176E+02 -0.51010941966E+02  0.34113524278E+02  0.14022011359E+03  0.12262615983E+03 0.  0.
         35    2    3    3    0    0 -0.29302840176E+02  0.51010941966E+02  0.13306436813E+04  0.15534259826E+04  0.79941159873E+03 0.  0.
         22    1    5    5    0    0  0.24631105593E+03  0.11009918385E+03  0.94993618815E+02  0.28603278514E+03  0.00000000000E+00 0. -1.
         22    1    5    5    0    0 -0.27561389611E+03 -0.59088241882E+02  0.12356500625E+04  0.12673931974E+04  0.00000000000E+00 0. -1.
          5    1    4    4  502    0  0.55316214308E+02 -0.77107129861E+02  0.91221411933E+01  0.95449968574E+02  0.47000000000E+01 0.  1.
         -5    1    4    4    0  502 -0.26013374132E+02  0.26096187895E+02  0.24991383084E+02  0.44770145017E+02  0.47000000000E+01 0.  1.
<mgrwt>
<rscale>  0 0.10029331E+04</rscale>
<asrwt>0</asrwt>
<pdfrwt beam="1">  1        2 0.23526178E+00 0.10029331E+04</pdfrwt>
<pdfrwt beam="2">  1       -2 0.25299146E-01 0.10029331E+04</pdfrwt>
<totfact> 0.20485210E+02</totfact>
</mgrwt>
</event>
<event>
 9    1  0.4307774E-036  0.1001338E+04  0.7818608E-02  0.8679765E-01
         -1   -1    0    0    0  501 -0.00000000000E+00  0.00000000000E+00  0.80937723181E+03  0.80937723181E+03  0.00000000000E+00 0.  1.
          1   -1    0    0  501    0  0.00000000000E+00 -0.00000000000E+00 -0.30970675882E+03  0.30970675882E+03  0.00000000000E+00 0.  1.
         36    2    1    2    0    0 -0.28421709430E-13  0.00000000000E+00  0.49967047299E+03  0.11190839906E+04  0.10013383027E+04 0.  0.
         25    2    3    3    0    0  0.10503296415E+03  0.38657369633E+02  0.19715920764E+03  0.25873847885E+03  0.12468974095E+03 0.  0.
         35    2    3    3    0    0 -0.10503296415E+03 -0.38657369633E+02  0.30251126535E+03  0.86034551177E+03  0.79759326613E+03 0.  0.
         22    1    5    5    0    0  0.13769795294E+03 -0.14061730883E+02  0.51717578280E+03  0.53537766935E+03  0.00000000000E+00 0. -1.
         22    1    5    5    0    0 -0.24273091709E+03 -0.24595638749E+02 -0.21466451745E+03  0.32496784242E+03  0.00000000000E+00 0. -1.
          5    1    4    4  502    0  0.90133396851E+02  0.28448999565E+02  0.21375364837E+03  0.23376502518E+03  0.47000000000E+01 0. -1.
         -5    1    4    4    0  502  0.14899567301E+02  0.10208370068E+02 -0.16594440736E+02  0.24973453676E+02  0.47000000000E+01 0. -1.
<mgrwt>
<rscale>  0 0.10013383E+04</rscale>
<asrwt>0</asrwt>
<pdfrwt beam="1">  1        1 0.47647194E-01 0.10013383E+04</pdfrwt>
<pdfrwt beam="2">  1       -1 0.12451957E+00 0.10013383E+04</pdfrwt>
<totfact> 0.57038020E+01</totfact>
</mgrwt>
</event>
<event>
 9    1  0.4307774E-036  0.9994397E+03  0.7818608E-02  0.8681572E-01
          2   -1    0    0  501    0  0.00000000000E+00  0.00000000000E+00  0.32013813277E+04  0.32013813277E+04  0.00000000000E+00 0.  1.
         -2   -1    0    0    0  501 -0.00000000000E+00 -0.00000000000E+00 -0.78003808898E+02  0.78003808898E+02  0.00000000000E+00 0.  1.
         36    2    1    2    0    0  0.00000000000E+00 -0.28421709430E-13  0.31233775188E+04  0.32793851366E+04  0.99943971763E+03 0.  0.
         25    2    3    3    0    0 -0.61457167791E+02 -0.12535680131E+03  0.57169077202E+03  0.60176667254E+03  0.12570393098E+03 0.  0.
         35    2    3    3    0    0  0.61457167791E+02  0.12535680131E+03  0.25516867467E+04  0.26776184640E+04  0.79940232313E+03 0.  0.
         22    1    5    5    0    0  0.23072202262E+03  0.40054046600E+03  0.11552011222E+04  0.12442487490E+04  0.00000000000E+00 0.  1.
         22    1    5    5    0    0 -0.16926485483E+03 -0.27518366469E+03  0.13964856246E+04  0.14333697151E+04  0.00000000000E+00 0.  1.
          5    1    4    4  502    0 -0.44925080659E+02 -0.14942705705E+03  0.44233036418E+03  0.46906817130E+03  0.47000000000E+01 0.  1.
         -5    1    4    4    0  502 -0.16532087132E+02  0.24070255738E+02  0.12936040783E+03  0.13269850124E+03  0.47000000000E+01 0.  1.
<mgrwt>
<rscale>  0 0.99943972E+03</rscale>
<asrwt>0</asrwt>
<pdfrwt beam="1">  1        2 0.49252010E+00 0.99943972E+03</pdfrwt>
<pdfrwt beam="2">  1       -2 0.12000588E-01 0.99943972E+03</pdfrwt>
<totfact> 0.70612824E+01</totfact>
</mgrwt>
</event>
<event>
 9    1  0.4307774E-036  0.1001023E+04  0.7818608E-02  0.8680065E-01
          2   -1    0    0  501    0  0.00000000000E+00  0.00000000000E+00  0.13996552827E+04  0.13996552827E+04  0.00000000000E+00 0.  1.
         -2   -1    0    0    0  501 -0.00000000000E+00 -0.00000000000E+00 -0.17898087017E+03  0.17898087017E+03  0.00000000000E+00 0.  1.
         36    2    1    2    0    0  0.28421709430E-13 -0.56843418861E-13  0.12206744125E+04  0.15786361529E+04  0.10010225181E+04 0.  0.
         25    2    3    3    0    0  0.42931183311E+02  0.13162186574E+03  0.28034803710E+03  0.33646109404E+03  0.12427245815E+03 0.  0.
         35    2    3    3    0    0 -0.42931183311E+02 -0.13162186574E+03  0.94032637545E+03  0.12421750589E+04  0.79976107835E+03 0.  0.
         22    1    5    5    0    0  0.25535550100E+03 -0.77851921640E+02  0.13781117919E+02  0.26731493188E+03  0.00000000000E+00 0.  1.
         22    1    5    5    0    0 -0.29828668431E+03 -0.53769944098E+02  0.92654525753E+03  0.97486012698E+03  0.00000000000E+00 0.  1.
          5    1    4    4  502    0  0.85624184447E+02  0.68838328551E+02  0.16704172029E+03  0.19998810654E+03  0.47000000000E+01 0.  1.
         -5    1    4    4    0  502 -0.42693001136E+02  0.62783537186E+02  0.11330631681E+03  0.13647298750E+03  0.47000000000E+01 0.  1.
<mgrwt>
<rscale>  0 0.10010225E+04</rscale>
<asrwt>0</asrwt>
<pdfrwt beam="1">  1        2 0.21533157E+00 0.10010225E+04</pdfrwt>
<pdfrwt beam="2">  1       -2 0.27535519E-01 0.10010225E+04</pdfrwt>
<totfact> 0.20857226E+02</totfact>
</mgrwt>
</event>
<event>
 9    1  0.4307774E-036  0.9999583E+03  0.7818608E-02  0.8681078E-01
         -2   -1    0    0    0  501 -0.00000000000E+00  0.00000000000E+00  0.93641478452E+03  0.93641478452E+03  0.00000000000E+00 0.  1.
          2   -1    0    0  501    0  0.00000000000E+00 -0.00000000000E+00 -0.26695344172E+03  0.26695344172E+03  0.00000000000E+00 0.  1.
         36    2    1    2    0    0  0.14210854715E-13  0.00000000000E+00  0.66946134280E+03  0.12033682262E+04  0.99995829833E+03 0.  0.
         25    2    3    3    0    0  0.88235545260E+02 -0.10756074133E+03  0.15296028298E+03  0.24111993830E+03  0.12404495939E+03 0.  0.
         35    2    3    3    0    0 -0.88235545260E+02  0.10756074133E+03  0.51650105982E+03  0.96224828794E+03  0.79987098855E+03 0.  0.
         22    1    5    5    0    0  0.26362295193E+03  0.49513199707E+02 -0.68753751054E+02  0.27690376670E+03  0.00000000000E+00 0.  1.
         22    1    5    5    0    0 -0.35185849719E+03  0.58047541624E+02  0.58525481087E+03  0.68534452123E+03  0.00000000000E+00 0.  1.
          5    1    4    4  502    0  0.32177641935E+02 -0.55107292291E+02  0.15120287866E+03  0.16418469727E+03  0.47000000000E+01 0. -1.
         -5    1    4    4    0  502  0.56057903325E+02 -0.52453449040E+02  0.17574043246E+01  0.76935241024E+02  0.47000000000E+01 0. -1.
<mgrwt>
<rscale>  0 0.99995830E+03</rscale>
<asrwt>0</asrwt>
<pdfrwt beam="1">  1        2 0.41069761E-01 0.99995830E+03</pdfrwt>
<pdfrwt beam="2">  1       -2 0.14406381E+00 0.99995830E+03</pdfrwt>
<totfact> 0.47456258E+01</totfact>
</mgrwt>
</event>
<event>
 9    1  0.4307774E-036  0.1000484E+04  0.7818608E-02  0.8680577E-01
         -1   -1    0    0    0  501 -0.00000000000E+00  0.00000000000E+00  0.14144264243E+03  0.14144264243E+03  0.00000000000E+00 0. -1.
          1   -1    0    0  501    0  0.00000000000E+00 -0.00000000000E+00 -0.17692115595E+04  0.17692115595E+04  0.00000000000E+00 0. -1.
         36    2    1    2    0    0  0.14210854715E-13 -0.14210854715E-13 -0.16277689171E+04  0.19106542020E+04  0.10004837990E+04 0.  0.
         25    2    3    3    0    0  0.43961772791E+02 -0.59081490558E+02 -0.77237707372E+02  0.16439524797E+03  0.12504748747E+03 0.  0.
         35    2    3    3    0    0 -0.43961772791E+02  0.59081490558E+02 -0.15505312097E+04  0.17462589540E+04  0.79990627080E+03 0.  0.
         22    1    5    5    0    0  0.19616986825E+03 -0.24431166167E+03 -0.28731241862E+03  0.42511084570E+03  0.00000000000E+00 0. -1.
         22    1    5    5    0    0 -0.24013164104E+03  0.30339315222E+03 -0.12632187911E+04  0.13211481083E+04  0.00000000000E+00 0. -1.
          5    1    4    4  502    0  0.74386386504E+02  0.37851745853E+01 -0.33097497919E+02  0.81640654163E+02  0.47000000000E+01 0. -1.
         -5    1    4    4    0  502 -0.30424613713E+02 -0.62866665143E+02 -0.44140209452E+02  0.82754593808E+02  0.47000000000E+01 0. -1.
<mgrwt>
<rscale>  0 0.10004838E+04</rscale>
<asrwt>0</asrwt>
<pdfrwt beam="1">  1        1 0.27218642E+00 0.10004838E+04</pdfrwt>
<pdfrwt beam="2">  1       -1 0.21760405E-01 0.10004838E+04</pdfrwt>
<totfact> 0.80401045E+01</totfact>
</mgrwt>
</event>
<event>
 9    1  0.4307774E-036  0.1001871E+04  0.7818608E-02  0.8679259E-01
          2   -1    0    0  501    0  0.00000000000E+00  0.00000000000E+00  0.15925541121E+04  0.15925541121E+04  0.00000000000E+00 0. -1.
         -2   -1    0    0    0  501 -0.00000000000E+00 -0.00000000000E+00 -0.15756839594E+03  0.15756839594E+03  0.00000000000E+00 0. -1.
         36    2    1    2    0    0  0.14210854715E-13 -0.14210854715E-13  0.14349857161E+04  0.17501225080E+04  0.10018706441E+04 0.  0.
         25    2    3    3    0    0  0.77692450898E+02 -0.56998536456E+02  0.44686622236E+03  0.47416096627E+03  0.12591366553E+03 0.  0.
         35    2    3    3    0    0 -0.77692450898E+02  0.56998536456E+02  0.98811949377E+03  0.12759615417E+04  0.80150656388E+03 0.  0.
         22    1    5    5    0    0  0.59947131647E+02 -0.33479491061E+03  0.67509068784E+03  0.75592904930E+03  0.00000000000E+00 0.  1.
         22    1    5    5    0    0 -0.13763958254E+03  0.39179344707E+03  0.31302880593E+03  0.52003249244E+03  0.00000000000E+00 0.  1.
          5    1    4    4  502    0 -0.13594638538E+02 -0.47828452359E+02  0.68333220382E+02  0.84639790051E+02  0.47000000000E+01 0. -1.
         -5    1    4    4    0  502  0.91287089436E+02 -0.91700840973E+01  0.37853300197E+03  0.38952117622E+03  0.47000000000E+01 0. -1.
<mgrwt>
<rscale>  0 0.10018706E+04</rscale>
<asrwt>0</asrwt>
<pdfrwt beam="1">  1        2 0.24500831E+00 0.10018706E+04</pdfrwt>
<pdfrwt beam="2">  1       -2 0.24241293E-01 0.10018706E+04</pdfrwt>
<totfact> 0.20348682E+02</totfact>
</mgrwt>
</event>
<event>
 9    1  0.4307774E-036  0.1000681E+04  0.7818608E-02  0.8680390E-01
         -1   -1    0    0    0  501 -0.00000000000E+00  0.00000000000E+00  0.13803296325E+03  0.13803296325E+03  0.00000000000E+00 0.  1.
          1   -1    0    0  501    0  0.00000000000E+00 -0.00000000000E+00 -0.18136284728E+04  0.18136284728E+04  0.00000000000E+00 0.  1.
         36    2    1    2    0    0 -0.71054273576E-14  0.00000000000E+00 -0.16755955095E+04  0.19516614360E+04  0.10006807929E+04 0.  0.
         25    2    3    3    0    0 -0.43080089652E+02 -0.14068206110E+03 -0.25348502317E+03  0.31854600450E+03  0.12477805725E+03 0.  0.
         35    2    3    3    0    0  0.43080089652E+02  0.14068206110E+03 -0.14221104863E+04  0.16331154315E+04  0.78931643898E+03 0.  0.
         22    1    5    5    0    0 -0.15047785390E+03 -0.22299015791E+03 -0.17800666585E+03  0.32257490313E+03  0.00000000000E+00 0.  1.
         22    1    5    5    0    0  0.19355794356E+03  0.36367221901E+03 -0.12441038205E+04  0.13105405284E+04  0.00000000000E+00 0.  1.
          5    1    4    4  502    0 -0.22102285199E+02 -0.67276780932E+02 -0.21316562371E+02  0.74102375771E+02  0.47000000000E+01 0. -1.
         -5    1    4    4    0  502 -0.20977804453E+02 -0.73405280170E+02 -0.23216846080E+03  0.24444362873E+03  0.47000000000E+01 0. -1.
<mgrwt>
<rscale>  0 0.10006808E+04</rscale>
<asrwt>0</asrwt>
<pdfrwt beam="1">  1        1 0.27901972E+00 0.10006808E+04</pdfrwt>
<pdfrwt beam="2">  1       -1 0.21235844E-01 0.10006808E+04</pdfrwt>
<totfact> 0.77919909E+01</totfact>
</mgrwt>
</event>
<event>
 9    1  0.4307774E-036  0.9917152E+03  0.7818608E-02  0.8688968E-01
         -2   -1    0    0    0  501 -0.00000000000E+00  0.00000000000E+00  0.20905911476E+03  0.20905911476E+03  0.00000000000E+00 0. -1.
          2   -1    0    0  501    0  0.00000000000E+00 -0.00000000000E+00 -0.11761017001E+04  0.11761017001E+04  0.00000000000E+00 0. -1.
         36    2    1    2    0    0  0.14210854715E-13  0.10658141036E-13 -0.96704258534E+03  0.13851608149E+04  0.99171524197E+03 0.  0.
         25    2    3    3    0    0 -0.10992830694E+03  0.22781859167E+02 -0.26736031374E+03  0.31643417249E+03  0.12667202684E+03 0.  0.
         35    2    3    3    0    0  0.10992830694E+03 -0.22781859167E+02 -0.69968227160E+03  0.10687266424E+04  0.80001131813E+03 0.  0.
         22    1    5    5    0    0  0.27343367278E+03 -0.14625736183E+03 -0.78708918101E+03  0.84597078446E+03  0.00000000000E+00 0. -1.
         22    1    5    5    0    0 -0.16350536584E+03  0.12347550266E+03  0.87406909412E+02  0.22275585790E+03  0.00000000000E+00 0. -1.
          5    1    4    4  502    0 -0.84131260422E+02  0.27450565002E+02 -0.59196828138E+02  0.10657371609E+03  0.47000000000E+01 0.  1.
         -5    1    4    4    0  502 -0.25797046518E+02 -0.46687058354E+01 -0.20816348561E+03  0.20986045641E+03  0.47000000000E+01 0.  1.
<mgrwt>
<rscale>  0 0.99171524E+03</rscale>
<asrwt>0</asrwt>
<pdfrwt beam="1">  1        2 0.18093872E+00 0.99171524E+03</pdfrwt>
<pdfrwt beam="2">  1       -2 0.32162940E-01 0.99171524E+03</pdfrwt>
<totfact> 0.21207527E+02</totfact>
</mgrwt>
</event>
<event>
 9    1  0.4307774E-036  0.9996090E+03  0.7818608E-02  0.8681410E-01
         -1   -1    0    0    0  501 -0.00000000000E+00  0.00000000000E+00  0.15071876222E+04  0.15071876222E+04  0.00000000000E+00 0. -1.
          1   -1    0    0  501    0  0.00000000000E+00 -0.00000000000E+00 -0.16574217439E+03  0.16574217439E+03  0.00000000000E+00 0. -1.
         36    2    1    2    0    0  0.00000000000E+00 -0.17763568394E-13  0.13414454478E+04  0.16729297966E+04  0.99960903100E+03 0.  0.
         25    2    3    3    0    0  0.12922122784E+03  0.15691064316E+02  0.16895439516E+03  0.24723040539E+03  0.12503179788E+03 0.  0.
         35    2    3    3    0    0 -0.12922122784E+03 -0.15691064316E+02  0.11724910526E+04  0.14256993912E+04  0.80058675376E+03 0.  0.
         22    1    5    5    0    0 -0.33030318715E+03 -0.30947088487E+03  0.60072659911E+03  0.75216013647E+03  0.00000000000E+00 0.  1.
         22    1    5    5    0    0  0.20108195931E+03  0.29377982055E+03  0.57176445351E+03  0.67353925470E+03  0.00000000000E+00 0.  1.
          5    1    4    4  502    0  0.24861099608E+02  0.21722037776E+02 -0.14237781447E+02  0.36259145321E+02  0.47000000000E+01 0.  1.
         -5    1    4    4    0  502  0.10436012823E+03 -0.60309734600E+01  0.18319217661E+03  0.21097126007E+03  0.47000000000E+01 0.  1.
<mgrwt>
<rscale>  0 0.99960903E+03</rscale>
<asrwt>0</asrwt>
<pdfrwt beam="1">  1        1 0.25498797E-01 0.99960903E+03</pdfrwt>
<pdfrwt beam="2">  1       -1 0.23187501E+00 0.99960903E+03</pdfrwt>
<totfact> 0.15657585E+01</totfact>
</mgrwt>
</event>
<event>
 9    1  0.4307774E-036  0.9991668E+03  0.7818608E-02  0.8681832E-01
         -2   -1    0    0    0  501 -0.00000000000E+00  0.00000000000E+00  0.98791871323E+02  0.98791871323E+02  0.00000000000E+00 0.  1.
          2   -1    0    0  501    0  0.00000000000E+00 -0.00000000000E+00 -0.25263576255E+04  0.25263576255E+04  0.00000000000E+00 0.  1.
         36    2    1    2    0    0  0.28421709430E-13  0.14210854715E-13 -0.24275657542E+04  0.26251494968E+04  0.99916684783E+03 0.  0.
         25    2    3    3    0    0 -0.59721511431E+02 -0.12313667376E+03 -0.51944969866E+03  0.55156437010E+03  0.12516375506E+03 0.  0.
         35    2    3    3    0    0  0.59721511431E+02  0.12313667376E+03 -0.19081160555E+04  0.20735851267E+04  0.80007443220E+03 0.  0.
         22    1    5    5    0    0 -0.34905882769E+03  0.20325747893E+02 -0.11960811543E+04  0.12461401722E+04  0.00000000000E+00 0. -1.
         22    1    5    5    0    0  0.40878033912E+03  0.10281092587E+03 -0.71203490123E+03  0.82744495448E+03  0.00000000000E+00 0. -1.
          5    1    4    4  502    0 -0.81889682259E+02 -0.13402494037E+03 -0.47715033558E+03  0.50235757927E+03  0.47000000000E+01 0.  1.
         -5    1    4    4    0  502  0.22168170828E+02  0.10888266612E+02 -0.42299363074E+02  0.49206790834E+02  0.47000000000E+01 0.  1.
<mgrwt>
<rscale>  0 0.99916685E+03</rscale>
<asrwt>0</asrwt>
<pdfrwt beam="1">  1        2 0.38867035E+00 0.99916685E+03</pdfrwt>
<pdfrwt beam="2">  1       -2 0.15198752E-01 0.99916685E+03</pdfrwt>
<totfact> 0.13126572E+02</totfact>
</mgrwt>
</event>
<event>
 9    1  0.4307774E-036  0.1001268E+04  0.7818608E-02  0.8679831E-01
          1   -1    0    0  501    0  0.00000000000E+00  0.00000000000E+00  0.16193013616E+04  0.16193013616E+04  0.00000000000E+00 0.  1.
         -1   -1    0    0    0  501 -0.00000000000E+00 -0.00000000000E+00 -0.15477946863E+03  0.15477946863E+03  0.00000000000E+00 0.  1.
         36    2    1    2    0    0  0.00000000000E+00  0.71054273576E-14  0.14645218930E+04  0.17740808303E+04  0.10012684042E+04 0.  0.
         25    2    3    3    0    0  0.75537522453E+02 -0.44239932293E+01  0.58815875761E+02  0.15503038654E+03  0.12185903535E+03 0.  0.
         35    2    3    3    0    0 -0.75537522453E+02  0.44239932293E+01  0.14057060172E+04  0.16190504437E+04  0.79974336095E+03 0.  0.
         22    1    5    5    0    0 -0.63307262281E+02 -0.12178897207E+03  0.14703337908E+04  0.14767267247E+04  0.00000000000E+00 0.  1.
         22    1    5    5    0    0 -0.12230260172E+02  0.12621296530E+03 -0.64627773555E+02  0.14232371899E+03  0.00000000000E+00 0.  1.
          5    1    4    4  502    0  0.25471455846E+02 -0.61562583829E+02  0.34181421589E+02  0.75028037242E+02  0.47000000000E+01 0. -1.
         -5    1    4    4    0  502  0.50066066606E+02  0.57138590600E+02  0.24634454172E+02  0.80002349300E+02  0.47000000000E+01 0. -1.
<mgrwt>
<rscale>  0 0.10012684E+04</rscale>
<asrwt>0</asrwt>
<pdfrwt beam="1">  1        1 0.24912327E+00 0.10012684E+04</pdfrwt>
<pdfrwt beam="2">  1       -1 0.23812227E-01 0.10012684E+04</pdfrwt>
<totfact> 0.88237082E+01</totfact>
</mgrwt>
</event>
<event>
 9    1  0.4307774E-036  0.1000300E+04  0.7818608E-02  0.8680752E-01
          2   -1    0    0  501    0  0.00000000000E+00  0.00000000000E+00  0.21992029882E+04  0.21992029882E+04  0.00000000000E+00 0. -1.
         -2   -1    0    0    0  501 -0.00000000000E+00 -0.00000000000E+00 -0.11374576175E+03  0.11374576175E+03  0.00000000000E+00 0. -1.
         36    2    1    2    0    0  0.00000000000E+00  0.28421709430E-13  0.20854572265E+04  0.23129487500E+04  0.10002999933E+04 0.  0.
         25    2    3    3    0    0 -0.10658088892E+03 -0.78201766413E+02  0.50355006876E+03  0.53529286476E+03  0.12450211710E+03 0.  0.
         35    2    3    3    0    0  0.10658088892E+03  0.78201766413E+02  0.15819071577E+04  0.17776558852E+04  0.80009698692E+03 0.  0.
         22    1    5    5    0    0  0.38496337055E+02  0.41923904876E+03  0.57692106451E+03  0.71419973582E+03  0.00000000000E+00 0. -1.
         22    1    5    5    0    0  0.68084551862E+02 -0.34103728235E+03  0.10049860932E+04  0.10634561494E+04  0.00000000000E+00 0. -1.
          5    1    4    4  502    0 -0.44929866353E+02  0.80965903248E+01  0.31982629218E+03  0.32310245254E+03  0.47000000000E+01 0. -1.
         -5    1    4    4    0  502 -0.61651022564E+02 -0.86298356737E+02  0.18372377658E+03  0.21219041222E+03  0.47000000000E+01 0. -1.
<mgrwt>
<rscale>  0 0.10003000E+04</rscale>
<asrwt>0</asrwt>
<pdfrwt beam="1">  1        2 0.33833889E+00 0.10003000E+04</pdfrwt>
<pdfrwt beam="2">  1       -2 0.17499350E-01 0.10003000E+04</pdfrwt>
<totfact> 0.16196316E+02</totfact>
</mgrwt>
</event>
<event>
 9    1  0.4307774E-036  0.1000326E+04  0.7818608E-02  0.8680728E-01
          2   -1    0    0  501    0  0.00000000000E+00  0.00000000000E+00  0.16407430694E+04  0.16407430694E+04  0.00000000000E+00 0.  1.
         -2   -1    0    0    0  501 -0.00000000000E+00 -0.00000000000E+00 -0.15246931311E+03  0.15246931311E+03  0.00000000000E+00 0.  1.
         36    2    1    2    0    0 -0.28421709430E-13  0.00000000000E+00  0.14882737563E+04  0.17932123825E+04  0.10003258845E+04 0.  0.
         25    2    3    3    0    0  0.68011980761E+02 -0.11573148712E+03  0.33910349255E+03  0.38576272919E+03  0.12570719125E+03 0.  0.
         35    2    3    3    0    0 -0.68011980761E+02  0.11573148712E+03  0.11491702637E+04  0.14074496533E+04  0.80143797322E+03 0.  0.
         22    1    5    5    0    0  0.13239355810E+03  0.31321156397E+03  0.15403407498E+03  0.37330421145E+03  0.00000000000E+00 0.  1.
         22    1    5    5    0    0 -0.20040553886E+03 -0.19748007685E+03  0.99513618873E+03  0.10341454418E+04  0.00000000000E+00 0.  1.
          5    1    4    4  502    0  0.21800492427E+02 -0.10500231254E+03  0.11775855938E+03  0.15934213322E+03  0.47000000000E+01 0.  1.
         -5    1    4    4    0  502  0.46211488335E+02 -0.10729174574E+02  0.22134493317E+03  0.22642059597E+03  0.47000000000E+01 0.  1.
<mgrwt>
<rscale>  0 0.10003259E+04</rscale>
<asrwt>0</asrwt>
<pdfrwt beam="1">  1        2 0.25242200E+00 0.10003259E+04</pdfrwt>
<pdfrwt beam="2">  1       -2 0.23456819E-01 0.10003259E+04</pdfrwt>
<totfact> 0.20257565E+02</totfact>
</mgrwt>
</event>
<event>
 9    1  0.4307774E-036  0.9983850E+03  0.7818608E-02  0.8682577E-01
         -2   -1    0    0    0  501 -0.00000000000E+00  0.00000000000E+00  0.93735970516E+03  0.93735970516E+03  0.00000000000E+00 0.  1.
          2   -1    0    0  501    0  0.00000000000E+00 -0.00000000000E+00 -0.26584580044E+03  0.26584580044E+03  0.00000000000E+00 0.  1.
         36    2    1    2    0    0  0.14210854715E-13  0.14210854715E-13  0.67151390472E+03  0.12032055056E+04  0.99838497809E+03 0.  0.
         25    2    3    3    0    0 -0.50431485453E+02  0.75504561055E+02  0.24910992327E+03  0.29310948511E+03  0.12495256270E+03 0.  0.
         35    2    3    3    0    0  0.50431485453E+02 -0.75504561055E+02  0.42240398145E+03  0.91009602049E+03  0.80100272752E+03 0.  0.
         22    1    5    5    0    0  0.31265012500E+03 -0.28369342547E+03  0.77166732767E+02  0.42916985561E+03  0.00000000000E+00 0.  1.
         22    1    5    5    0    0 -0.26221863954E+03  0.20818886442E+03  0.34523724868E+03  0.48092616488E+03  0.00000000000E+00 0.  1.
          5    1    4    4  502    0 -0.31962908389E+02  0.38750921471E+02  0.11272276485E+02  0.51695412220E+02  0.47000000000E+01 0.  1.
         -5    1    4    4    0  502 -0.18468577064E+02  0.36753639584E+02  0.23783764678E+03  0.24141407289E+03  0.47000000000E+01 0.  1.
<mgrwt>
<rscale>  0 0.99838498E+03</rscale>
<asrwt>0</asrwt>
<pdfrwt beam="1">  1        2 0.40899354E-01 0.99838498E+03</pdfrwt>
<pdfrwt beam="2">  1       -2 0.14420918E+00 0.99838498E+03</pdfrwt>
<totfact> 0.47552143E+01</totfact>
</mgrwt>
</event>
<event>
 9    1  0.4307774E-036  0.9987203E+03  0.7818608E-02  0.8682258E-01
          1   -1    0    0  501    0  0.00000000000E+00  0.00000000000E+00  0.16491149532E+04  0.16491149532E+04  0.00000000000E+00 0.  1.
         -1   -1    0    0    0  501 -0.00000000000E+00 -0.00000000000E+00 -0.15120872479E+03  0.15120872479E+03  0.00000000000E+00 0.  1.
         36    2    1    2    0    0 -0.14210854715E-13  0.00000000000E+00  0.14979062284E+04  0.18003236780E+04  0.99872031940E+03 0.  0.
         25    2    3    3    0    0 -0.10004095496E+03 -0.90701408098E+02  0.22329848742E+03  0.28907082489E+03  0.12435750567E+03 0.  0.
         35    2    3    3    0    0  0.10004095496E+03  0.90701408098E+02  0.12746077410E+04  0.15112528531E+04  0.80064059007E+03 0.  0.
         22    1    5    5    0    0 -0.69324623908E+02 -0.30451901493E+02  0.12993467368E+04  0.13015510609E+04  0.00000000000E+00 0.  1.
         22    1    5    5    0    0  0.16936557887E+03  0.12115330959E+03 -0.24738995789E+02  0.20970179218E+03  0.00000000000E+00 0.  1.
          5    1    4    4  502    0 -0.23334996423E+02 -0.70189470686E+02  0.18793886735E+03  0.20202522544E+03  0.47000000000E+01 0. -1.
         -5    1    4    4    0  502 -0.76705958539E+02 -0.20511937412E+02  0.35359620067E+02  0.87045599447E+02  0.47000000000E+01 0. -1.
<mgrwt>
<rscale>  0 0.99872032E+03</rscale>
<asrwt>0</asrwt>
<pdfrwt beam="1">  1        1 0.25370998E+00 0.99872032E+03</pdfrwt>
<pdfrwt beam="2">  1       -1 0.23262882E-01 0.99872032E+03</pdfrwt>
<totfact> 0.87418898E+01</totfact>
</mgrwt>
</event>
<event>
 9    1  0.4307774E-036  0.9998453E+03  0.7818608E-02  0.8681185E-01
          2   -1    0    0  501    0  0.00000000000E+00  0.00000000000E+00  0.27443436647E+04  0.27443436647E+04  0.00000000000E+00 0.  1.
         -2   -1    0    0    0  501 -0.00000000000E+00 -0.00000000000E+00 -0.91068287861E+02  0.91068287861E+02  0.00000000000E+00 0.  1.
         36    2    1    2    0    0  0.28421709430E-13 -0.35527136788E-14  0.26532753768E+04  0.28354119525E+04  0.99984534573E+03 0.  0.
         25    2    3    3    0    0 -0.10680657232E+03  0.61799994711E+01  0.75300383859E+03  0.77067563781E+03  0.12441994012E+03 0.  0.
         35    2    3    3    0    0  0.10680657232E+03 -0.61799994711E+01  0.19002715382E+04  0.20647363147E+04  0.80041132805E+03 0.  0.
         22    1    5    5    0    0  0.42665205730E+03  0.11722242971E+03  0.82535182285E+03  0.93647141307E+03  0.00000000000E+00 0. -1.
         22    1    5    5    0    0 -0.31984548498E+03 -0.12340242918E+03  0.10749197154E+04  0.11282649017E+04  0.00000000000E+00 0. -1.
          5    1    4    4  502    0 -0.81076680170E+02  0.19762664404E+02  0.72570707660E+03  0.73050451196E+03  0.47000000000E+01 0.  1.
         -5    1    4    4    0  502 -0.25729892152E+02 -0.13582664933E+02  0.27296761992E+02  0.40171125850E+02  0.47000000000E+01 0.  1.
<mgrwt>
<rscale>  0 0.99984535E+03</rscale>
<asrwt>0</asrwt>
<pdfrwt beam="1">  1        2 0.42220665E+00 0.99984535E+03</pdfrwt>
<pdfrwt beam="2">  1       -2 0.14010508E-01 0.99984535E+03</pdfrwt>
<totfact> 0.11002129E+02</totfact>
</mgrwt>
</event>
<event>
 9    1  0.4307774E-036  0.9996203E+03  0.7818608E-02  0.8681400E-01
         -2   -1    0    0    0  501 -0.00000000000E+00  0.00000000000E+00  0.98462376855E+02  0.98462376855E+02  0.00000000000E+00 0. -1.
          2   -1    0    0  501    0  0.00000000000E+00 -0.00000000000E+00 -0.25371133282E+04  0.25371133282E+04  0.00000000000E+00 0. -1.
         36    2    1    2    0    0  0.00000000000E+00 -0.14210854715E-13 -0.24386509513E+04  0.26355757050E+04  0.99962034522E+03 0.  0.
         25    2    3    3    0    0  0.66808651003E+02  0.98799852687E+02 -0.26258473585E+03  0.31428844985E+03  0.12490668304E+03 0.  0.
         35    2    3    3    0    0 -0.66808651003E+02 -0.98799852687E+02 -0.21760662155E+04  0.23212872552E+04  0.79930315914E+03 0.  0.
         22    1    5    5    0    0 -0.28075633265E+03  0.40861779583E+02 -0.19773752698E+04  0.19976252804E+04  0.00000000000E+00 0. -1.
         22    1    5    5    0    0  0.21394768165E+03 -0.13966163227E+03 -0.19869094566E+03  0.32366197475E+03  0.00000000000E+00 0. -1.
          5    1    4    4  502    0 -0.12343422661E+02 -0.20399859441E+02 -0.71537146000E+02  0.75552416282E+02  0.47000000000E+01 0. -1.
         -5    1    4    4    0  502  0.79152073664E+02  0.11919971213E+03 -0.19104758985E+03  0.23873603357E+03  0.47000000000E+01 0. -1.
<mgrwt>
<rscale>  0 0.99962035E+03</rscale>
<asrwt>0</asrwt>
<pdfrwt beam="1">  1        2 0.39032514E+00 0.99962035E+03</pdfrwt>
<pdfrwt beam="2">  1       -2 0.15148057E-01 0.99962035E+03</pdfrwt>
<totfact> 0.13001764E+02</totfact>
</mgrwt>
</event>
<event>
 9    1  0.4307774E-036  0.9998442E+03  0.7818608E-02  0.8681186E-01
          2   -1    0    0  501    0  0.00000000000E+00  0.00000000000E+00  0.31713717602E+03  0.31713717602E+03  0.00000000000E+00 0.  1.
         -2   -1    0    0    0  501 -0.00000000000E+00 -0.00000000000E+00 -0.78805679800E+03  0.78805679800E+03  0.00000000000E+00 0.  1.
         36    2    1    2    0    0  0.56843418861E-13  0.28421709430E-13 -0.47091962198E+03  0.11051939740E+04  0.99984420279E+03 0.  0.
         25    2    3    3    0    0  0.97288874054E+02 -0.10178445366E+03 -0.11721449922E+03  0.22189573830E+03  0.12519297035E+03 0.  0.
         35    2    3    3    0    0 -0.97288874054E+02  0.10178445366E+03 -0.35370512276E+03  0.88329823573E+03  0.79704658543E+03 0.  0.
         22    1    5    5    0    0 -0.40412111260E+03  0.23719959555E+03 -0.25605350998E+03  0.53398588160E+03  0.00000000000E+00 0.  1.
         22    1    5    5    0    0  0.30683223855E+03 -0.13541514189E+03 -0.97651612782E+02  0.34931235412E+03  0.00000000000E+00 0.  1.
          5    1    4    4  502    0  0.31823848893E+02  0.61252377238E+01  0.17586093532E+02  0.37170372358E+02  0.47000000000E+01 0. -1.
         -5    1    4    4    0  502  0.65465025161E+02 -0.10790969139E+03 -0.13480059275E+03  0.18472536594E+03  0.47000000000E+01 0. -1.
<mgrwt>
<rscale>  0 0.99984420E+03</rscale>
<asrwt>0</asrwt>
<pdfrwt beam="1">  1        2 0.48790336E-01 0.99984420E+03</pdfrwt>
<pdfrwt beam="2">  1       -2 0.12123951E+00 0.99984420E+03</pdfrwt>
<totfact> 0.62199240E+01</totfact>
</mgrwt>
</event>
<event>
 9    1  0.4307774E-036  0.9999631E+03  0.7818608E-02  0.8681073E-01
          4   -1    0    0  501    0  0.00000000000E+00  0.00000000000E+00  0.18317926332E+03  0.18317926332E+03  0.00000000000E+00 0.  1.
         -4   -1    0    0    0  501 -0.00000000000E+00 -0.00000000000E+00 -0.13646825687E+04  0.13646825687E+04  0.00000000000E+00 0.  1.
         36    2    1    2    0    0  0.00000000000E+00  0.14210854715E-13 -0.11815033054E+04  0.15478618321E+04  0.99996309452E+03 0.  0.
         25    2    3    3    0    0 -0.12448461240E+03 -0.61073797730E+02 -0.25802616830E+03  0.31837310006E+03  0.12472970704E+03 0.  0.
         35    2    3    3    0    0  0.12448461240E+03  0.61073797730E+02 -0.92347713712E+03  0.12294887320E+04  0.79975376950E+03 0.  0.
         22    1    5    5    0    0  0.31580398311E+03  0.12099279400E+03 -0.60534330620E+02  0.34356341064E+03  0.00000000000E+00 0.  1.
         22    1    5    5    0    0 -0.19131937071E+03 -0.59918996266E+02 -0.86294280650E+03  0.88592532136E+03  0.00000000000E+00 0.  1.
          5    1    4    4  502    0  0.24014873607E+02  0.30941375504E+01 -0.33841076028E+02  0.41875962894E+02  0.47000000000E+01 0. -1.
         -5    1    4    4    0  502 -0.14849948601E+03 -0.64167935280E+02 -0.22418509227E+03  0.27649713716E+03  0.47000000000E+01 0. -1.
<mgrwt>
<rscale>  0 0.99996309E+03</rscale>
<asrwt>0</asrwt>
<pdfrwt beam="1">  1        4 0.28181425E-01 0.99996309E+03</pdfrwt>
<pdfrwt beam="2">  1       -4 0.20995116E+00 0.99996309E+03</pdfrwt>
<totfact> 0.23918124E+00</totfact>
</mgrwt>
</event>
<event>
 9    1  0.4307774E-036  0.9990792E+03  0.7818608E-02  0.8681915E-01
         -2   -1    0    0    0  501 -0.00000000000E+00  0.00000000000E+00  0.86552553704E+03  0.86552553704E+03  0.00000000000E+00 0. -1.
          2   -1    0    0  501    0  0.00000000000E+00 -0.00000000000E+00 -0.28831015562E+03  0.28831015562E+03  0.00000000000E+00 0. -1.
         36    2    1    2    0    0  0.28421709430E-13 -0.14210854715E-13  0.57721538142E+03  0.11538356927E+04  0.99907918060E+03 0.  0.
         25    2    3    3    0    0 -0.11782939648E+03  0.75551843762E+02  0.14361993216E+03  0.23620148758E+03  0.12479026425E+03 0.  0.
         35    2    3    3    0    0  0.11782939648E+03 -0.75551843762E+02  0.43359544926E+03  0.91763420508E+03  0.79652725813E+03 0.  0.
         22    1    5    5    0    0 -0.33639514576E+03  0.31408179748E+02  0.22869791907E+03  0.40798395316E+03  0.00000000000E+00 0. -1.
         22    1    5    5    0    0  0.45422454224E+03 -0.10696002351E+03  0.20489753019E+03  0.50965025192E+03  0.00000000000E+00 0. -1.
          5    1    4    4  502    0  0.14916647929E+02  0.64594215259E+01  0.64849399075E+02  0.67020631691E+02  0.47000000000E+01 0.  1.
         -5    1    4    4    0  502 -0.13274604441E+03  0.69092422236E+02  0.78770533085E+02  0.16918085589E+03  0.47000000000E+01 0.  1.
<mgrwt>
<rscale>  0 0.99907918E+03</rscale>
<asrwt>0</asrwt>
<pdfrwt beam="1">  1        2 0.44355409E-01 0.99907918E+03</pdfrwt>
<pdfrwt beam="2">  1       -2 0.13315777E+00 0.99907918E+03</pdfrwt>
<totfact> 0.53979338E+01</totfact>
</mgrwt>
</event>
<event>
 9    1  0.4307774E-036  0.9991142E+03  0.7818608E-02  0.8681882E-01
          2   -1    0    0  501    0  0.00000000000E+00  0.00000000000E+00  0.23123711152E+03  0.23123711152E+03  0.00000000000E+00 0. -1.
         -2   -1    0    0    0  501 -0.00000000000E+00 -0.00000000000E+00 -0.10792267846E+04  0.10792267846E+04  0.00000000000E+00 0. -1.
         36    2    1    2    0    0  0.00000000000E+00 -0.28421709430E-13 -0.84798967308E+03  0.13104638961E+04  0.99911417636E+03 0.  0.
         25    2    3    3    0    0 -0.72912218892E+01 -0.80897638145E+02 -0.30635611352E+03  0.34082772681E+03  0.12534704343E+03 0.  0.
         35    2    3    3    0    0  0.72912218892E+01  0.80897638145E+02 -0.54163355956E+03  0.96963616932E+03  0.80014361100E+03 0.  0.
         22    1    5    5    0    0  0.85631987458E+02 -0.20274920229E+03  0.11627441417E+03  0.24891728686E+03  0.00000000000E+00 0.  1.
         22    1    5    5    0    0 -0.78340765569E+02  0.28364684044E+03 -0.65790797373E+03  0.72071888246E+03  0.00000000000E+00 0.  1.
          5    1    4    4  502    0 -0.63167406845E+02 -0.60874672731E+02 -0.15473863528E+03  0.17793814183E+03  0.47000000000E+01 0. -1.
         -5    1    4    4    0  502  0.55876184956E+02 -0.20022965414E+02 -0.15161747824E+03  0.16288958499E+03  0.47000000000E+01 0. -1.
<mgrwt>
<rscale>  0 0.99911418E+03</rscale>
<asrwt>0</asrwt>
<pdfrwt beam="1">  1        2 0.35574941E-01 0.99911418E+03</pdfrwt>
<pdfrwt beam="2">  1       -2 0.16603489E+00 0.99911418E+03</pdfrwt>
<totfact> 0.37319998E+01</totfact>
</mgrwt>
</event>
<event>
 9    1  0.4307774E-036  0.1000418E+04  0.7818608E-02  0.8680640E-01
         -1   -1    0    0    0  501 -0.00000000000E+00  0.00000000000E+00  0.25733985125E+03  0.25733985125E+03  0.00000000000E+00 0.  1.
          1   -1    0    0  501    0  0.00000000000E+00 -0.00000000000E+00 -0.97229011542E+03  0.97229011542E+03  0.00000000000E+00 0.  1.
         36    2    1    2    0    0  0.00000000000E+00  0.28421709430E-13 -0.71495026417E+03  0.12296299667E+04  0.10004179000E+04 0.  0.
         25    2    3    3    0    0  0.12065537119E+03  0.54255480765E+02 -0.19266981905E+03  0.26517083813E+03  0.12526986243E+03 0.  0.
         35    2    3    3    0    0 -0.12065537119E+03 -0.54255480765E+02 -0.52228044512E+03  0.96445912855E+03  0.79993947989E+03 0.  0.
         22    1    5    5    0    0 -0.60019377520E+02 -0.33161923684E+03  0.35205795367E+02  0.33884080621E+03  0.00000000000E+00 0.  1.
         22    1    5    5    0    0 -0.60635993669E+02  0.27736375608E+03 -0.55748624049E+03  0.62561832234E+03  0.00000000000E+00 0.  1.
          5    1    4    4  502    0  0.13962023576E+03  0.23356663399E+02 -0.12811940568E+03  0.19098695262E+03  0.47000000000E+01 0.  1.
         -5    1    4    4    0  502 -0.18964864575E+02  0.30898817366E+02 -0.64550413367E+02  0.74183885507E+02  0.47000000000E+01 0.  1.
<mgrwt>
<rscale>  0 0.10004179E+04</rscale>
<asrwt>0</asrwt>
<pdfrwt beam="1">  1        1 0.14958309E+00 0.10004179E+04</pdfrwt>
<pdfrwt beam="2">  1       -1 0.39590747E-01 0.10004179E+04</pdfrwt>
<totfact> 0.11077877E+02</totfact>
</mgrwt>
</event>
<event>
 9    1  0.4307774E-036  0.9994717E+03  0.7818608E-02  0.8681541E-01
         -3   -1    0    0    0  501 -0.00000000000E+00  0.00000000000E+00  0.41688957449E+03  0.41688957449E+03  0.00000000000E+00 0.  1.
          3   -1    0    0  501    0  0.00000000000E+00 -0.00000000000E+00 -0.59904571477E+03  0.59904571477E+03  0.00000000000E+00 0.  1.
         36    2    1    2    0    0  0.28421709430E-13  0.00000000000E+00 -0.18215614028E+03  0.10159352893E+04  0.99947168671E+03 0.  0.
         25    2    3    3    0    0  0.10798992240E+03  0.44490605622E+02  0.40351578840E+02  0.17605911740E+03  0.12540863438E+03 0.  0.
         35    2    3    3    0    0 -0.10798992240E+03 -0.44490605622E+02 -0.22250771912E+03  0.83987617187E+03  0.80139943952E+03 0.  0.
         22    1    5    5    0    0  0.50140780310E+02 -0.11827045022E+03 -0.49770723477E+03  0.51401798489E+03  0.00000000000E+00 0. -1.
         22    1    5    5    0    0 -0.15813070271E+03  0.73779844602E+02  0.27519951565E+03  0.32585818698E+03  0.00000000000E+00 0. -1.
          5    1    4    4  502    0 -0.37239503392E+01 -0.30584615177E+02  0.26055989533E+02  0.40623774839E+02  0.47000000000E+01 0. -1.
         -5    1    4    4    0  502  0.11171387274E+03  0.75075220800E+02  0.14295589307E+02  0.13543534256E+03  0.47000000000E+01 0. -1.
<mgrwt>
<rscale>  0 0.99947169E+03</rscale>
<asrwt>0</asrwt>
<pdfrwt beam="1">  1        3 0.92160878E-01 0.99947169E+03</pdfrwt>
<pdfrwt beam="2">  1       -3 0.64136858E-01 0.99947169E+03</pdfrwt>
<totfact> 0.10187481E+01</totfact>
</mgrwt>
</event>
<event>
 9    1  0.4307774E-036  0.9987121E+03  0.7818608E-02  0.8682265E-01
          2   -1    0    0  501    0  0.00000000000E+00  0.00000000000E+00  0.20614037431E+04  0.20614037431E+04  0.00000000000E+00 0.  1.
         -2   -1    0    0    0  501 -0.00000000000E+00 -0.00000000000E+00 -0.12096440892E+03  0.12096440892E+03  0.00000000000E+00 0.  1.
         36    2    1    2    0    0 -0.21316282073E-13  0.00000000000E+00  0.19404393341E+04  0.21823681520E+04  0.99871214134E+03 0.  0.
         25    2    3    3    0    0  0.59297582891E+02 -0.40389446465E+02  0.62072960361E+03  0.63743110743E+03  0.12595898222E+03 0.  0.
         35    2    3    3    0    0 -0.59297582891E+02  0.40389446465E+02  0.13197097305E+04  0.15449370445E+04  0.80003074192E+03 0.  0.
         22    1    5    5    0    0 -0.18245402264E+03  0.30242917006E+03  0.11635378394E+04  0.12159659440E+04  0.00000000000E+00 0. -1.
         22    1    5    5    0    0  0.12315643975E+03 -0.26203972360E+03  0.15617189111E+03  0.32897110050E+03  0.00000000000E+00 0. -1.
          5    1    4    4  502    0  0.69052066171E+01 -0.17397369495E+02  0.52811245877E+03  0.52846495575E+03  0.47000000000E+01 0. -1.
         -5    1    4    4    0  502  0.52392376274E+02 -0.22992076971E+02  0.92617144842E+02  0.10896615169E+03  0.47000000000E+01 0. -1.
<mgrwt>
<rscale>  0 0.99871214E+03</rscale>
<asrwt>0</asrwt>
<pdfrwt beam="1">  1        2 0.31713901E+00 0.99871214E+03</pdfrwt>
<pdfrwt beam="2">  1       -2 0.18609911E-01 0.99871214E+03</pdfrwt>
<totfact> 0.17506556E+02</totfact>
</mgrwt>
</event>
<event>
 9    1  0.4307774E-036  0.9974268E+03  0.7818608E-02  0.8683492E-01
         -2   -1    0    0    0  501 -0.00000000000E+00  0.00000000000E+00  0.91268059150E+02  0.91268059150E+02  0.00000000000E+00 0. -1.
          2   -1    0    0  501    0  0.00000000000E+00 -0.00000000000E+00 -0.27251049467E+04  0.27251049467E+04  0.00000000000E+00 0. -1.
         36    2    1    2    0    0 -0.14210854715E-13  0.00000000000E+00 -0.26338368876E+04  0.28163730059E+04  0.99742676817E+03 0.  0.
         25    2    3    3    0    0 -0.97153470337E+02  0.90600750812E+02 -0.56935604399E+03  0.59793899446E+03  0.12536922835E+03 0.  0.
         35    2    3    3    0    0  0.97153470337E+02 -0.90600750812E+02 -0.20644808436E+04  0.22184340114E+04  0.80107491325E+03 0.  0.
         22    1    5    5    0    0  0.18588404509E+03  0.31321295983E+03 -0.65369350439E+03  0.74831172255E+03  0.00000000000E+00 0. -1.
         22    1    5    5    0    0 -0.88730574757E+02 -0.40381371064E+03 -0.14107873392E+04  0.14701222888E+04  0.00000000000E+00 0. -1.
          5    1    4    4  502    0 -0.30705135452E+02  0.99505700485E+02 -0.43984290142E+03  0.45202661172E+03  0.47000000000E+01 0.  1.
         -5    1    4    4    0  502 -0.66448334885E+02 -0.89049496724E+01 -0.12951314257E+03  0.14591238274E+03  0.47000000000E+01 0.  1.
<mgrwt>
<rscale>  0 0.99742677E+03</rscale>
<asrwt>0</asrwt>
<pdfrwt beam="1">  1        2 0.41924694E+00 0.99742677E+03</pdfrwt>
<pdfrwt beam="2">  1       -2 0.14041239E-01 0.99742677E+03</pdfrwt>
<totfact> 0.11275148E+02</totfact>
</mgrwt>
</event>
<event>
 9    1  0.4307774E-036  0.1000138E+04  0.7818608E-02  0.8680906E-01
          3   -1    0    0  501    0  0.00000000000E+00  0.00000000000E+00  0.97034178196E+03  0.97034178196E+03  0.00000000000E+00 0. -1.
         -3   -1    0    0    0  501 -0.00000000000E+00 -0.00000000000E+00 -0.25771235542E+03  0.25771235542E+03  0.00000000000E+00 0. -1.
         36    2    1    2    0    0 -0.14210854715E-13 -0.14210854715E-13  0.71262942654E+03  0.12280541374E+04  0.10001381228E+04 0.  0.
         25    2    3    3    0    0  0.74811517857E+01 -0.33046651528E+02 -0.32662346706E+02  0.13419922289E+03  0.12567638490E+03 0.  0.
         35    2    3    3    0    0 -0.74811517857E+01  0.33046651528E+02  0.74529177324E+03  0.10938549145E+04  0.79994418423E+03 0.  0.
         22    1    5    5    0    0 -0.13189655233E+03 -0.32537226684E+03  0.58439610235E+03  0.68174967326E+03  0.00000000000E+00 0. -1.
         22    1    5    5    0    0  0.12441540054E+03  0.35841891837E+03  0.16089567089E+03  0.41210524123E+03  0.00000000000E+00 0. -1.
          5    1    4    4  502    0 -0.26966501150E+02 -0.72411044316E+02 -0.23381102236E+02  0.80866046429E+02  0.47000000000E+01 0.  1.
         -5    1    4    4    0  502  0.34447652935E+02  0.39364392788E+02 -0.92812444704E+01  0.53333176459E+02  0.47000000000E+01 0.  1.
<mgrwt>
<rscale>  0 0.10001381E+04</rscale>
<asrwt>0</asrwt>
<pdfrwt beam="1">  1        3 0.14928335E+00 0.10001381E+04</pdfrwt>
<pdfrwt beam="2">  1       -3 0.39648055E-01 0.10001381E+04</pdfrwt>
<totfact> 0.86246465E+00</totfact>
</mgrwt>
</event>
<event>
 9    1  0.4307774E-036  0.1000065E+04  0.7818608E-02  0.8680976E-01
          1   -1    0    0  501    0  0.00000000000E+00  0.00000000000E+00  0.18361085901E+04  0.18361085901E+04  0.00000000000E+00 0. -1.
         -1   -1    0    0    0  501 -0.00000000000E+00 -0.00000000000E+00 -0.13617516912E+03  0.13617516912E+03  0.00000000000E+00 0. -1.
         36    2    1    2    0    0  0.00000000000E+00 -0.14210854715E-13  0.16999334210E+04  0.19722837592E+04  0.10000647934E+04 0.  0.
         25    2    3    3    0    0  0.11049176868E+03  0.71481506544E+02  0.22446772637E+03  0.28875122695E+03  0.12519374650E+03 0.  0.
         35    2    3    3    0    0 -0.11049176868E+03 -0.71481506544E+02  0.14754656946E+04  0.16835325322E+04  0.79997795874E+03 0.  0.
         22    1    5    5    0    0 -0.18545931517E+03  0.23192279225E+03  0.17210451874E+03  0.34322486000E+03  0.00000000000E+00 0. -1.
         22    1    5    5    0    0  0.74967546492E+02 -0.30340429880E+03  0.13033611759E+04  0.13403076723E+04  0.00000000000E+00 0. -1.
          5    1    4    4  502    0  0.94692278448E+02  0.45399250790E+02  0.59228083547E+02  0.12065560679E+03  0.47000000000E+01 0. -1.
         -5    1    4    4    0  502  0.15799490229E+02  0.26082255754E+02  0.16523964282E+03  0.16809562016E+03  0.47000000000E+01 0. -1.
<mgrwt>
<rscale>  0 0.10000648E+04</rscale>
<asrwt>0</asrwt>
<pdfrwt beam="1">  1        1 0.28247823E+00 0.10000648E+04</pdfrwt>
<pdfrwt beam="2">  1       -1 0.20950027E-01 0.10000648E+04</pdfrwt>
<totfact> 0.76851133E+01</totfact>
</mgrwt>
</event>
<event>
 9    1  0.4307774E-036  0.9952041E+03  0.7818608E-02  0.8685619E-01
          2   -1    0    0  501    0  0.00000000000E+00  0.00000000000E+00  0.64686884023E+03  0.64686884023E+03  0.00000000000E+00 0.  1.
         -2   -1    0    0    0  501 -0.00000000000E+00 -0.00000000000E+00 -0.38277896925E+03  0.38277896925E+03  0.00000000000E+00 0.  1.
         36    2    1    2    0    0  0.17763568394E-13  0.71054273576E-14  0.26408987097E+03  0.10296478095E+04  0.99520407536E+03 0.  0.
         25    2    3    3    0    0 -0.20743517526E+02  0.11889973775E+01 -0.89078642511E+02  0.15507066247E+03  0.12522059963E+03 0.  0.
         35    2    3    3    0    0  0.20743517526E+02 -0.11889973775E+01  0.35316851348E+03  0.87457714701E+03  0.79982840655E+03 0.  0.
         22    1    5    5    0    0  0.16972169272E+03  0.14991673308E+03  0.54396372194E+03  0.58921728643E+03  0.00000000000E+00 0. -1.
         22    1    5    5    0    0 -0.14897817519E+03 -0.15110573046E+03 -0.19079520846E+03  0.28535986058E+03  0.00000000000E+00 0. -1.
          5    1    4    4  502    0 -0.35266554643E+02 -0.27315405774E+02 -0.10846235749E+03  0.11737135196E+03  0.47000000000E+01 0.  1.
         -5    1    4    4    0  502  0.14523037117E+02  0.28504403152E+02  0.19383714980E+02  0.37699310506E+02  0.47000000000E+01 0.  1.
<mgrwt>
<rscale>  0 0.99520408E+03</rscale>
<asrwt>0</asrwt>
<pdfrwt beam="1">  1        2 0.99518283E-01 0.99520408E+03</pdfrwt>
<pdfrwt beam="2">  1       -2 0.58889072E-01 0.99520408E+03</pdfrwt>
<totfact> 0.14742806E+02</totfact>
</mgrwt>
</event>
<event>
 9    1  0.4307774E-036  0.1000136E+04  0.7818608E-02  0.8680909E-01
          2   -1    0    0  501    0  0.00000000000E+00  0.00000000000E+00  0.11543422846E+04  0.11543422846E+04  0.00000000000E+00 0.  1.
         -2   -1    0    0    0  501 -0.00000000000E+00 -0.00000000000E+00 -0.21663226237E+03  0.21663226237E+03  0.00000000000E+00 0.  1.
         36    2    1    2    0    0  0.28421709430E-13 -0.35527136788E-13  0.93771002223E+03  0.13709745470E+04  0.10001355521E+04 0.  0.
         25    2    3    3    0    0 -0.14722205490E+03  0.41606805031E+01  0.15823647678E+03  0.24843610478E+03  0.12243394490E+03 0.  0.
         35    2    3    3    0    0  0.14722205490E+03 -0.41606805031E+01  0.77947354544E+03  0.11225384422E+04  0.79424297380E+03 0.  0.
         22    1    5    5    0    0  0.30940828930E+01  0.27951693577E+03  0.75304242158E+03  0.80325100649E+03  0.00000000000E+00 0.  1.
         22    1    5    5    0    0  0.14412797200E+03 -0.28367761627E+03  0.26431123868E+02  0.31928743570E+03  0.00000000000E+00 0.  1.
          5    1    4    4  502    0 -0.13080262710E+03 -0.39438140867E+02  0.83321704567E+02  0.16009150715E+03  0.47000000000E+01 0.  1.
         -5    1    4    4    0  502 -0.16419427801E+02  0.43598821370E+02  0.74914772217E+02  0.88344597630E+02  0.47000000000E+01 0.  1.
<mgrwt>
<rscale>  0 0.10001356E+04</rscale>
<asrwt>0</asrwt>
<pdfrwt beam="1">  1        2 0.17759112E+00 0.10001356E+04</pdfrwt>
<pdfrwt beam="2">  1       -2 0.33328041E-01 0.10001356E+04</pdfrwt>
<totfact> 0.20460423E+02</totfact>
</mgrwt>
</event>
<event>
 9    1  0.4307774E-036  0.1000821E+04  0.7818608E-02  0.8680257E-01
          2   -1    0    0  501    0  0.00000000000E+00  0.00000000000E+00  0.45015478190E+03  0.45015478190E+03  0.00000000000E+00 0. -1.
         -2   -1    0    0    0  501 -0.00000000000E+00 -0.00000000000E+00 -0.55627661861E+03  0.55627661861E+03  0.00000000000E+00 0. -1.
         36    2    1    2    0    0  0.00000000000E+00 -0.28421709430E-13 -0.10612183670E+03  0.10064314005E+04  0.10008208230E+04 0.  0.
         25    2    3    3    0    0 -0.58402852401E+02 -0.36158567359E+02  0.10040568552E+03  0.17508102159E+03  0.12591158514E+03 0.  0.
         35    2    3    3    0    0  0.58402852401E+02  0.36158567359E+02 -0.20652752222E+03  0.83135037892E+03  0.80235372495E+03 0.  0.
         22    1    5    5    0    0 -0.43277428188E+02  0.39668229012E+03  0.90878397679E+01  0.39913952938E+03  0.00000000000E+00 0.  1.
         22    1    5    5    0    0  0.10168028059E+03 -0.36052372276E+03 -0.21561536199E+03  0.43221084954E+03  0.00000000000E+00 0.  1.
          5    1    4    4  502    0 -0.86688966006E+02 -0.53153536262E+02  0.46988242687E+02  0.11211717172E+03  0.47000000000E+01 0. -1.
         -5    1    4    4    0  502  0.28286113605E+02  0.16994968903E+02  0.53417442834E+02  0.62963849865E+02  0.47000000000E+01 0. -1.
<mgrwt>
<rscale>  0 0.10008208E+04</rscale>
<asrwt>0</asrwt>
<pdfrwt beam="1">  1        2 0.69254581E-01 0.10008208E+04</pdfrwt>
<pdfrwt beam="2">  1       -2 0.85581019E-01 0.10008208E+04</pdfrwt>
<totfact> 0.98864952E+01</totfact>
</mgrwt>
</event>
<event>
 9    1  0.4307774E-036  0.9959388E+03  0.7818608E-02  0.8684915E-01
         -1   -1    0    0    0  501 -0.00000000000E+00  0.00000000000E+00  0.14129575385E+03  0.14129575385E+03  0.00000000000E+00 0. -1.
          1   -1    0    0  501    0  0.00000000000E+00 -0.00000000000E+00 -0.17549963379E+04  0.17549963379E+04  0.00000000000E+00 0. -1.
         36    2    1    2    0    0 -0.21316282073E-13 -0.28421709430E-13 -0.16137005841E+04  0.18962920918E+04  0.99593881453E+03 0.  0.
         25    2    3    3    0    0  0.16871102823E+02  0.71372273636E+02 -0.52761933028E+03  0.54714849351E+03  0.12494270969E+03 0.  0.
         35    2    3    3    0    0 -0.16871102823E+02 -0.71372273636E+02 -0.10860812538E+04  0.13491435983E+04  0.79701776854E+03 0.  0.
         22    1    5    5    0    0  0.25804540205E+03  0.16251776177E+03 -0.13809870245E+03  0.33476962830E+03  0.00000000000E+00 0.  1.
         22    1    5    5    0    0 -0.27491650488E+03 -0.23389003540E+03 -0.94798255134E+03  0.10143739700E+04  0.00000000000E+00 0.  1.
          5    1    4    4  502    0 -0.53189575067E+02  0.18844015366E+02 -0.23095029876E+03  0.23779057657E+03  0.47000000000E+01 0.  1.
         -5    1    4    4    0  502  0.70060677890E+02  0.52528258270E+02 -0.29666903153E+03  0.30935791694E+03  0.47000000000E+01 0.  1.
<mgrwt>
<rscale>  0 0.99593881E+03</rscale>
<asrwt>0</asrwt>
<pdfrwt beam="1">  1        1 0.26999941E+00 0.99593881E+03</pdfrwt>
<pdfrwt beam="2">  1       -1 0.21737810E-01 0.99593881E+03</pdfrwt>
<totfact> 0.82439773E+01</totfact>
</mgrwt>
</event>
<event>
 9    1  0.4307774E-036  0.1001155E+04  0.7818608E-02  0.8679939E-01
         -1   -1    0    0    0  501 -0.00000000000E+00  0.00000000000E+00  0.42630502324E+03  0.42630502324E+03  0.00000000000E+00 0.  1.
          1   -1    0    0  501    0  0.00000000000E+00 -0.00000000000E+00 -0.58779007058E+03  0.58779007058E+03  0.00000000000E+00 0.  1.
         36    2    1    2    0    0 -0.71054273576E-14  0.00000000000E+00 -0.16148504734E+03  0.10140950938E+04  0.10011550523E+04 0.  0.
         25    2    3    3    0    0  0.11104789123E+01  0.13646519257E+03  0.41244189425E+01  0.18502626266E+03  0.12487483772E+03 0.  0.
         35    2    3    3    0    0 -0.11104789123E+01 -0.13646519257E+03 -0.16560946629E+03  0.82906883116E+03  0.80081499083E+03 0.  0.
         22    1    5    5    0    0 -0.23416398216E+03  0.87982923913E+02 -0.36980525187E+03  0.44646353687E+03  0.00000000000E+00 0.  1.
         22    1    5    5    0    0  0.23305350325E+03 -0.22444811648E+03  0.20419578559E+03  0.38260529429E+03  0.00000000000E+00 0.  1.
          5    1    4    4  502    0 -0.46063997797E+02  0.10995923550E+02 -0.14174083536E+02  0.49656790793E+02  0.47000000000E+01 0.  1.
         -5    1    4    4    0  502  0.47174476710E+02  0.12546926902E+03  0.18298502478E+02  0.13536947187E+03  0.47000000000E+01 0.  1.
<mgrwt>
<rscale>  0 0.10011551E+04</rscale>
<asrwt>0</asrwt>
<pdfrwt beam="1">  1        1 0.90429241E-01 0.10011551E+04</pdfrwt>
<pdfrwt beam="2">  1       -1 0.65585389E-01 0.10011551E+04</pdfrwt>
<totfact> 0.96931681E+01</totfact>
</mgrwt>
</event>
<event>
 9    1  0.4307774E-036  0.9996996E+03  0.7818608E-02  0.8681324E-01
         -2   -1    0    0    0  501 -0.00000000000E+00  0.00000000000E+00  0.14374736860E+03  0.14374736860E+03  0.00000000000E+00 0. -1.
          2   -1    0    0  501    0  0.00000000000E+00 -0.00000000000E+00 -0.17381175856E+04  0.17381175856E+04  0.00000000000E+00 0. -1.
         36    2    1    2    0    0 -0.28421709430E-13  0.00000000000E+00 -0.15943702170E+04  0.18818649542E+04  0.99969961340E+03 0.  0.
         25    2    3    3    0    0 -0.65788267510E+02 -0.58920719350E+02 -0.50554338365E+03  0.52813728734E+03  0.12472022378E+03 0.  0.
         35    2    3    3    0    0  0.65788267510E+02  0.58920719350E+02 -0.10888268334E+04  0.13537276669E+04  0.79952171685E+03 0.  0.
         22    1    5    5    0    0  0.29933299791E+03 -0.26771482286E+03 -0.50658879642E+03  0.64645469963E+03  0.00000000000E+00 0.  1.
         22    1    5    5    0    0 -0.23354473040E+03  0.32663554221E+03 -0.58223803696E+03  0.70727296726E+03  0.00000000000E+00 0.  1.
          5    1    4    4  502    0 -0.42367154315E+02 -0.71342758339E+02 -0.14925495401E+03  0.17083294831E+03  0.47000000000E+01 0.  1.
         -5    1    4    4    0  502 -0.23421113195E+02  0.12422038990E+02 -0.35628842964E+03  0.35730433903E+03  0.47000000000E+01 0.  1.
<mgrwt>
<rscale>  0 0.99969961E+03</rscale>
<asrwt>0</asrwt>
<pdfrwt beam="1">  1        2 0.26740272E+00 0.99969961E+03</pdfrwt>
<pdfrwt beam="2">  1       -2 0.22114978E-01 0.99969961E+03</pdfrwt>
<totfact> 0.19798038E+02</totfact>
</mgrwt>
</event>
<event>
 9    1  0.4307774E-036  0.9995099E+03  0.7818608E-02  0.8681505E-01
         -4   -1    0    0    0  501 -0.00000000000E+00  0.00000000000E+00  0.62611915500E+03  0.62611915500E+03  0.00000000000E+00 0. -1.
          4   -1    0    0  501    0  0.00000000000E+00 -0.00000000000E+00 -0.39889376087E+03  0.39889376087E+03  0.00000000000E+00 0. -1.
         36    2    1    2    0    0  0.00000000000E+00  0.00000000000E+00  0.22722539413E+03  0.10250129159E+04  0.99950992890E+03 0.  0.
         25    2    3    3    0    0 -0.77926209189E+02 -0.60974154308E+02 -0.58741080539E+02  0.16964267983E+03  0.12465064262E+03 0.  0.
         35    2    3    3    0    0  0.77926209189E+02  0.60974154308E+02  0.28596647467E+03  0.85537023604E+03  0.80005691954E+03 0.  0.
         22    1    5    5    0    0 -0.29253646576E+03  0.90474251541E+02 -0.97511220104E+02  0.32135900802E+03  0.00000000000E+00 0. -1.
         22    1    5    5    0    0  0.37046267495E+03 -0.29500097233E+02  0.38347769477E+03  0.53401122802E+03  0.00000000000E+00 0. -1.
          5    1    4    4  502    0 -0.34493592040E+02 -0.16721524039E+02  0.38297660344E+02  0.54389503085E+02  0.47000000000E+01 0.  1.
         -5    1    4    4    0  502 -0.43432617148E+02 -0.44252630269E+02 -0.97038740883E+02  0.11525317675E+03  0.47000000000E+01 0.  1.
<mgrwt>
<rscale>  0 0.99950993E+03</rscale>
<asrwt>0</asrwt>
<pdfrwt beam="1">  1        4 0.61368271E-01 0.99950993E+03</pdfrwt>
<pdfrwt beam="2">  1       -4 0.96326024E-01 0.99950993E+03</pdfrwt>
<totfact> 0.50889635E+00</totfact>
</mgrwt>
</event>
<event>
 9    1  0.4307774E-036  0.9985722E+03  0.7818608E-02  0.8682399E-01
          2   -1    0    0  501    0  0.00000000000E+00  0.00000000000E+00  0.27754036661E+04  0.27754036661E+04  0.00000000000E+00 0. -1.
         -2   -1    0    0    0  501 -0.00000000000E+00 -0.00000000000E+00 -0.89819955581E+02  0.89819955581E+02  0.00000000000E+00 0. -1.
         36    2    1    2    0    0  0.00000000000E+00  0.00000000000E+00  0.26855837105E+04  0.28652236216E+04  0.99857224878E+03 0.  0.
         25    2    3    3    0    0 -0.14460451187E+03  0.24491396964E+01  0.57527153284E+03  0.60613123293E+03  0.12466463773E+03 0.  0.
         35    2    3    3    0    0  0.14460451187E+03 -0.24491396964E+01  0.21103121776E+04  0.22590923887E+04  0.79319888458E+03 0.  0.
         22    1    5    5    0    0  0.32077764130E+03  0.25210021323E+03  0.65851909058E+03  0.77466134880E+03  0.00000000000E+00 0. -1.
         22    1    5    5    0    0 -0.17617312943E+03 -0.25454935293E+03  0.14517930871E+04  0.14844310399E+04  0.00000000000E+00 0. -1.
          5    1    4    4  502    0 -0.14711532016E+03 -0.36039845924E+02  0.47536523232E+03  0.49893484747E+03  0.47000000000E+01 0. -1.
         -5    1    4    4    0  502  0.25108082922E+01  0.38488985620E+02  0.99906300517E+02  0.10719638546E+03  0.47000000000E+01 0. -1.
<mgrwt>
<rscale>  0 0.99857225E+03</rscale>
<asrwt>0</asrwt>
<pdfrwt beam="1">  1        2 0.42698511E+00 0.99857225E+03</pdfrwt>
<pdfrwt beam="2">  1       -2 0.13818457E-01 0.99857225E+03</pdfrwt>
<totfact> 0.10757038E+02</totfact>
</mgrwt>
</event>
<event>
 9    1  0.4307774E-036  0.1000696E+04  0.7818608E-02  0.8680376E-01
         -1   -1    0    0    0  501 -0.00000000000E+00  0.00000000000E+00  0.20378696664E+03  0.20378696664E+03  0.00000000000E+00 0. -1.
          1   -1    0    0  501    0  0.00000000000E+00 -0.00000000000E+00 -0.12284783979E+04  0.12284783979E+04  0.00000000000E+00 0. -1.
         36    2    1    2    0    0  0.71054273576E-14 -0.71054273576E-14 -0.10246914312E+04  0.14322653645E+04  0.10006955307E+04 0.  0.
         25    2    3    3    0    0 -0.43614965023E+02 -0.50086294142E+02 -0.15453569147E+02  0.14256960399E+03  0.12520533993E+03 0.  0.
         35    2    3    3    0    0  0.43614965023E+02  0.50086294142E+02 -0.10092378621E+04  0.12896957605E+04  0.80021446527E+03 0.  0.
         22    1    5    5    0    0  0.39908007686E+03  0.78685176676E+02 -0.33498976491E+03  0.52694820179E+03  0.00000000000E+00 0.  1.
         22    1    5    5    0    0 -0.35546511184E+03 -0.28598882534E+02 -0.67424809718E+03  0.76274755874E+03  0.00000000000E+00 0.  1.
          5    1    4    4  502    0  0.69970660410E+01  0.34064747574E+02  0.17063112460E+02  0.39020581330E+02  0.47000000000E+01 0.  1.
         -5    1    4    4    0  502 -0.50612031064E+02 -0.84151041716E+02 -0.32516681607E+02  0.10354902266E+03  0.47000000000E+01 0.  1.
<mgrwt>
<rscale>  0 0.10006955E+04</rscale>
<asrwt>0</asrwt>
<pdfrwt beam="1">  1        1 0.18899668E+00 0.10006955E+04</pdfrwt>
<pdfrwt beam="2">  1       -1 0.31351840E-01 0.10006955E+04</pdfrwt>
<totfact> 0.10579340E+02</totfact>
</mgrwt>
</event>
<event>
 9    1  0.4307774E-036  0.1000206E+04  0.7818608E-02  0.8680842E-01
          1   -1    0    0  501    0  0.00000000000E+00  0.00000000000E+00  0.55185060147E+03  0.55185060147E+03  0.00000000000E+00 0. -1.
         -1   -1    0    0    0  501 -0.00000000000E+00 -0.00000000000E+00 -0.45320780026E+03  0.45320780026E+03  0.00000000000E+00 0. -1.
         36    2    1    2    0    0  0.00000000000E+00  0.00000000000E+00  0.98642801218E+02  0.10050584017E+04  0.10002059731E+04 0.  0.
         25    2    3    3    0    0 -0.80877795178E+02 -0.11345886501E+03  0.70718279592E+01  0.18721914612E+03  0.12484737130E+03 0.  0.
         35    2    3    3    0    0  0.80877795178E+02  0.11345886501E+03  0.91570973259E+02  0.81783925561E+03  0.80066327071E+03 0.  0.
         22    1    5    5    0    0  0.36968367445E+03  0.18844447937E+03 -0.14236459218E+03  0.43868555717E+03  0.00000000000E+00 0. -1.
         22    1    5    5    0    0 -0.28880587927E+03 -0.74985614358E+02  0.23393556544E+03  0.37915369844E+03  0.00000000000E+00 0. -1.
          5    1    4    4  502    0 -0.53058503367E+02  0.13735044339E+02  0.13958045542E+02  0.56751856867E+02  0.47000000000E+01 0.  1.
         -5    1    4    4    0  502 -0.27819291811E+02 -0.12719390935E+03 -0.68862175832E+01  0.13046728925E+03  0.47000000000E+01 0.  1.
<mgrwt>
<rscale>  0 0.10002060E+04</rscale>
<asrwt>0</asrwt>
<pdfrwt beam="1">  1        1 0.84900093E-01 0.10002060E+04</pdfrwt>
<pdfrwt beam="2">  1       -1 0.69724276E-01 0.10002060E+04</pdfrwt>
<totfact> 0.94100259E+01</totfact>
</mgrwt>
</event>
<event>
 9    1  0.4307774E-036  0.9998265E+03  0.7818608E-02  0.8681203E-01
         -2   -1    0    0    0  501 -0.00000000000E+00  0.00000000000E+00  0.16118561197E+04  0.16118561197E+04  0.00000000000E+00 0.  1.
          2   -1    0    0  501    0  0.00000000000E+00 -0.00000000000E+00 -0.15504686892E+03  0.15504686892E+03  0.00000000000E+00 0.  1.
         36    2    1    2    0    0  0.24868995752E-13  0.28421709430E-13  0.14568092507E+04  0.17669029886E+04  0.99982647396E+03 0.  0.
         25    2    3    3    0    0 -0.22591198299E+02 -0.89710700925E+02  0.86691932355E+02  0.17802088015E+03  0.12497027859E+03 0.  0.
         35    2    3    3    0    0  0.22591198299E+02  0.89710700925E+02  0.13701173184E+04  0.15888821084E+04  0.79922870086E+03 0.  0.
         22    1    5    5    0    0 -0.24301241536E+03  0.99192060687E+02  0.12824333318E+04  0.13090184679E+04  0.00000000000E+00 0. -1.
         22    1    5    5    0    0  0.26560361366E+03 -0.94813597615E+01  0.87683986599E+02  0.27986364051E+03  0.00000000000E+00 0. -1.
          5    1    4    4  502    0 -0.39674382763E+02 -0.11582033711E+03  0.58756603676E+02  0.13587801739E+03  0.47000000000E+01 0. -1.
         -5    1    4    4    0  502  0.17083184464E+02  0.26109636180E+02  0.27935328678E+02  0.42142862756E+02  0.47000000000E+01 0. -1.
<mgrwt>
<rscale>  0 0.99982647E+03</rscale>
<asrwt>0</asrwt>
<pdfrwt beam="1">  1        2 0.23853366E-01 0.99982647E+03</pdfrwt>
<pdfrwt beam="2">  1       -2 0.24797785E+00 0.99982647E+03</pdfrwt>
<totfact> 0.16401862E+01</totfact>
</mgrwt>
</event>
<event>
 9    1  0.4307774E-036  0.1000003E+04  0.7818608E-02  0.8681035E-01
         -2   -1    0    0    0  501 -0.00000000000E+00  0.00000000000E+00  0.70681263294E+02  0.70681263294E+02  0.00000000000E+00 0. -1.
          2   -1    0    0  501    0  0.00000000000E+00 -0.00000000000E+00 -0.35370288965E+04  0.35370288965E+04  0.00000000000E+00 0. -1.
         36    2    1    2    0    0  0.00000000000E+00 -0.35527136788E-14 -0.34663476332E+04  0.36077101597E+04  0.10000033414E+04 0.  0.
         25    2    3    3    0    0  0.42928510071E+02 -0.16387360066E+02 -0.17441072261E+03  0.21970038025E+03  0.12545020676E+03 0.  0.
         35    2    3    3    0    0 -0.42928510071E+02  0.16387360066E+02 -0.32919369106E+04  0.33880097795E+04  0.79978137033E+03 0.  0.
         22    1    5    5    0    0  0.25085386096E+03 -0.19806226964E+03 -0.24514209339E+04  0.24721692736E+04  0.00000000000E+00 0. -1.
         22    1    5    5    0    0 -0.29378237103E+03  0.21444962970E+03 -0.84051597665E+03  0.91584050588E+03  0.00000000000E+00 0. -1.
          5    1    4    4  502    0 -0.13116227563E+02 -0.32938986880E+01  0.15561533800E+02  0.21145603048E+02  0.47000000000E+01 0. -1.
         -5    1    4    4    0  502  0.56044737635E+02 -0.13093461378E+02 -0.18997225641E+03  0.19855477721E+03  0.47000000000E+01 0. -1.
<mgrwt>
<rscale>  0 0.10000033E+04</rscale>
<asrwt>0</asrwt>
<pdfrwt beam="1">  1        2 0.54415820E+00 0.10000033E+04</pdfrwt>
<pdfrwt beam="2">  1       -2 0.10874042E-01 0.10000033E+04</pdfrwt>
<totfact> 0.47190109E+01</totfact>
</mgrwt>
</event>
<event>
 9    1  0.4307774E-036  0.1001307E+04  0.7818608E-02  0.8679794E-01
         -2   -1    0    0    0  501 -0.00000000000E+00  0.00000000000E+00  0.61574795413E+02  0.61574795413E+02  0.00000000000E+00 0. -1.
          2   -1    0    0  501    0  0.00000000000E+00 -0.00000000000E+00 -0.40707214327E+04  0.40707214327E+04  0.00000000000E+00 0. -1.
         36    2    1    2    0    0  0.00000000000E+00  0.28421709430E-13 -0.40091466373E+04  0.41322962281E+04  0.10013068249E+04 0.  0.
         25    2    3    3    0    0  0.99242327202E+02  0.88209840683E+02 -0.61710701797E+03  0.64426455322E+03  0.12894079033E+03 0.  0.
         35    2    3    3    0    0 -0.99242327202E+02 -0.88209840683E+02 -0.33920396193E+04  0.34880316749E+04  0.80174944373E+03 0.  0.
         22    1    5    5    0    0  0.24626101234E+03 -0.14283227936E+03 -0.50366497923E+03  0.57855333163E+03  0.00000000000E+00 0.  1.
         22    1    5    5    0    0 -0.34550333955E+03  0.54622438681E+02 -0.28883746401E+04  0.29094783433E+04  0.00000000000E+00 0.  1.
          5    1    4    4  502    0  0.11784832737E+02  0.50618461591E+02 -0.44050286277E+03  0.44358310726E+03  0.47000000000E+01 0. -1.
         -5    1    4    4    0  502  0.87457494465E+02  0.37591379093E+02 -0.17660415519E+03  0.20068144596E+03  0.47000000000E+01 0. -1.
<mgrwt>
<rscale>  0 0.10013068E+04</rscale>
<asrwt>0</asrwt>
<pdfrwt beam="1">  1        2 0.62626497E+00 0.10013068E+04</pdfrwt>
<pdfrwt beam="2">  1       -2 0.94730434E-02 0.10013068E+04</pdfrwt>
<totfact> 0.21488969E+01</totfact>
</mgrwt>
</event>
<event>
 9    1  0.4307774E-036  0.9994263E+03  0.7818608E-02  0.8681584E-01
         -2   -1    0    0    0  501 -0.00000000000E+00  0.00000000000E+00  0.24040708880E+03  0.24040708880E+03  0.00000000000E+00 0.  1.
          2   -1    0    0  501    0  0.00000000000E+00 -0.00000000000E+00 -0.10387098984E+04  0.10387098984E+04  0.00000000000E+00 0.  1.
         36    2    1    2    0    0  0.00000000000E+00 -0.14210854715E-13 -0.79830280964E+03  0.12791169872E+04  0.99942628101E+03 0.  0.
         25    2    3    3    0    0 -0.99360468867E+02  0.82445322147E+02 -0.82147057881E+02  0.19714525731E+03  0.12429150994E+03 0.  0.
         35    2    3    3    0    0  0.99360468867E+02 -0.82445322147E+02 -0.71615575176E+03  0.10819717299E+04  0.80069596582E+03 0.  0.
         22    1    5    5    0    0 -0.97679437160E+02 -0.16350380807E+03  0.11597936790E+03  0.22299323191E+03  0.00000000000E+00 0. -1.
         22    1    5    5    0    0  0.19703990603E+03  0.81058485925E+02 -0.83213511966E+03  0.85897849803E+03  0.00000000000E+00 0. -1.
          5    1    4    4  502    0 -0.39111328879E+02 -0.29855649816E+02 -0.37440025835E+02  0.62007268986E+02  0.47000000000E+01 0. -1.
         -5    1    4    4    0  502 -0.60249139988E+02  0.11230097196E+03 -0.44707032047E+02  0.13513798832E+03  0.47000000000E+01 0. -1.
<mgrwt>
<rscale>  0 0.99942628E+03</rscale>
<asrwt>0</asrwt>
<pdfrwt beam="1">  1        2 0.15980152E+00 0.99942628E+03</pdfrwt>
<pdfrwt beam="2">  1       -2 0.36985706E-01 0.99942628E+03</pdfrwt>
<totfact> 0.19801835E+02</totfact>
</mgrwt>
</event>
<event>
 9    1  0.4307774E-036  0.9997246E+03  0.7818608E-02  0.8681300E-01
          2   -1    0    0  501    0  0.00000000000E+00  0.00000000000E+00  0.10715830538E+04  0.10715830538E+04  0.00000000000E+00 0.  1.
         -2   -1    0    0    0  501 -0.00000000000E+00 -0.00000000000E+00 -0.23317119952E+03  0.23317119952E+03  0.00000000000E+00 0.  1.
         36    2    1    2    0    0 -0.14210854715E-13  0.71054273576E-14  0.83841185425E+03  0.13047542533E+04  0.99972457413E+03 0.  0.
         25    2    3    3    0    0 -0.79053606977E+02 -0.16791428351E+02  0.52013443770E+01  0.14755434205E+03  0.12334425416E+03 0.  0.
         35    2    3    3    0    0  0.79053606977E+02  0.16791428351E+02  0.83321050988E+03  0.11571999112E+04  0.79896211171E+03 0.  0.
         22    1    5    5    0    0  0.12867472442E+02 -0.38798060684E+03  0.34281306459E+03  0.51789508627E+03  0.00000000000E+00 0. -1.
         22    1    5    5    0    0  0.66186134535E+02  0.40477203519E+03  0.49039744528E+03  0.63930482496E+03  0.00000000000E+00 0. -1.
          5    1    4    4  502    0 -0.69109412676E+02 -0.99189073229E+01 -0.53091116802E+02  0.87836509073E+02  0.47000000000E+01 0. -1.
         -5    1    4    4    0  502 -0.99441943009E+01 -0.68725210279E+01  0.58292461179E+02  0.59717832980E+02  0.47000000000E+01 0. -1.
<mgrwt>
<rscale>  0 0.99972457E+03</rscale>
<asrwt>0</asrwt>
<pdfrwt beam="1">  1        2 0.16485893E+00 0.99972457E+03</pdfrwt>
<pdfrwt beam="2">  1       -2 0.35872493E-01 0.99972457E+03</pdfrwt>
<totfact> 0.20017612E+02</totfact>
</mgrwt>
</event>
<event>
 9    1  0.4307774E-036  0.1000955E+04  0.7818608E-02  0.8680129E-01
         -1   -1    0    0    0  501 -0.00000000000E+00  0.00000000000E+00  0.36587236649E+03  0.36587236649E+03  0.00000000000E+00 0.  1.
          1   -1    0    0  501    0  0.00000000000E+00 -0.00000000000E+00 -0.68460372234E+03  0.68460372234E+03  0.00000000000E+00 0.  1.
         36    2    1    2    0    0  0.14210854715E-13  0.14210854715E-13 -0.31873135584E+03  0.10504760888E+04  0.10009547123E+04 0.  0.
         25    2    3    3    0    0  0.53590369295E+02  0.11310041416E+03  0.96919777602E+01  0.17703732982E+03  0.12483849708E+03 0.  0.
         35    2    3    3    0    0 -0.53590369295E+02 -0.11310041416E+03 -0.32842333361E+03  0.87343875901E+03  0.79960599567E+03 0.  0.
         22    1    5    5    0    0  0.18007898283E+03 -0.72346248436E+02 -0.52857747458E+03  0.56307776227E+03  0.00000000000E+00 0. -1.
         22    1    5    5    0    0 -0.23366935213E+03 -0.40754165727E+02  0.20015414098E+03  0.31036099674E+03  0.00000000000E+00 0. -1.
          5    1    4    4  502    0  0.67440953463E+02  0.31195618300E+02 -0.35357092485E+02  0.82423678600E+02  0.47000000000E+01 0.  1.
         -5    1    4    4    0  502 -0.13850584168E+02  0.81904795863E+02  0.45049070245E+02  0.94613651220E+02  0.47000000000E+01 0.  1.
<mgrwt>
<rscale>  0 0.10009547E+04</rscale>
<asrwt>0</asrwt>
<pdfrwt beam="1">  1        1 0.10532365E+00 0.10009547E+04</pdfrwt>
<pdfrwt beam="2">  1       -1 0.56288056E-01 0.10009547E+04</pdfrwt>
<totfact> 0.10368454E+02</totfact>
</mgrwt>
</event>
<event>
 9    1  0.4307774E-036  0.9997006E+03  0.7818608E-02  0.8681323E-01
          2   -1    0    0  501    0  0.00000000000E+00  0.00000000000E+00  0.93731985958E+03  0.93731985958E+03  0.00000000000E+00 0. -1.
         -2   -1    0    0    0  501 -0.00000000000E+00 -0.00000000000E+00 -0.26655821690E+03  0.26655821690E+03  0.00000000000E+00 0. -1.
         36    2    1    2    0    0 -0.71054273576E-14  0.56843418861E-13  0.67076164268E+03  0.12038780765E+04  0.99970057604E+03 0.  0.
         25    2    3    3    0    0  0.19500760522E+02  0.80243393762E+02  0.26263348367E+03  0.30216948154E+03  0.12454222950E+03 0.  0.
         35    2    3    3    0    0 -0.19500760522E+02 -0.80243393762E+02  0.40812815901E+03  0.90170859493E+03  0.79980654792E+03 0.  0.
         22    1    5    5    0    0 -0.16081619258E+03 -0.38750362553E+03  0.37354697237E+03  0.56174571486E+03  0.00000000000E+00 0.  1.
         22    1    5    5    0    0  0.14131543206E+03  0.30726023176E+03  0.34581186645E+02  0.33996288008E+03  0.00000000000E+00 0.  1.
          5    1    4    4  502    0  0.31404264800E+02  0.10961728086E+03  0.22812973455E+03  0.25508320583E+03  0.47000000000E+01 0. -1.
         -5    1    4    4    0  502 -0.11903504278E+02 -0.29373887097E+02  0.34503749120E+02  0.47086275714E+02  0.47000000000E+01 0. -1.
<mgrwt>
<rscale>  0 0.99970058E+03</rscale>
<asrwt>0</asrwt>
<pdfrwt beam="1">  1        2 0.14420305E+00 0.99970058E+03</pdfrwt>
<pdfrwt beam="2">  1       -2 0.41008957E-01 0.99970058E+03</pdfrwt>
<totfact> 0.18852394E+02</totfact>
</mgrwt>
</event>
<event>
 9    1  0.4307774E-036  0.1000217E+04  0.7818608E-02  0.8680831E-01
          2   -1    0    0  501    0  0.00000000000E+00  0.00000000000E+00  0.10506854054E+04  0.10506854054E+04  0.00000000000E+00 0.  1.
         -2   -1    0    0    0  501 -0.00000000000E+00 -0.00000000000E+00 -0.23804335834E+03  0.23804335834E+03  0.00000000000E+00 0.  1.
         36    2    1    2    0    0  0.35527136788E-14 -0.49737991503E-13  0.81264204707E+03  0.12887287637E+04  0.10002173413E+04 0.  0.
         25    2    3    3    0    0  0.90778697118E+01  0.43099832252E+02 -0.24629019522E+02  0.12996776240E+03  0.11977072849E+03 0.  0.
         35    2    3    3    0    0 -0.90778697118E+01 -0.43099832252E+02  0.83727106659E+03  0.11587610013E+04  0.79985262143E+03 0.  0.
         22    1    5    5    0    0  0.25371709709E+02 -0.41383702099E+03  0.33220442451E+03  0.53128578304E+03  0.00000000000E+00 0. -1.
         22    1    5    5    0    0 -0.34449579421E+02  0.37073718874E+03  0.50506664208E+03  0.62747521830E+03  0.00000000000E+00 0. -1.
          5    1    4    4  502    0  0.28532101269E+02  0.12682753559E+02 -0.67020239098E+02  0.74086000630E+02  0.47000000000E+01 0.  1.
         -5    1    4    4    0  502 -0.19454231557E+02  0.30417078694E+02  0.42391219576E+02  0.55881761773E+02  0.47000000000E+01 0.  1.
<mgrwt>
<rscale>  0 0.10002173E+04</rscale>
<asrwt>0</asrwt>
<pdfrwt beam="1">  1        2 0.16164391E+00 0.10002173E+04</pdfrwt>
<pdfrwt beam="2">  1       -2 0.36622056E-01 0.10002173E+04</pdfrwt>
<totfact> 0.19832810E+02</totfact>
</mgrwt>
</event>
<event>
 9    1  0.4307774E-036  0.1000086E+04  0.7818608E-02  0.8680956E-01
          2   -1    0    0  501    0  0.00000000000E+00  0.00000000000E+00  0.15742827786E+04  0.15742827786E+04  0.00000000000E+00 0.  1.
         -2   -1    0    0    0  501 -0.00000000000E+00 -0.00000000000E+00 -0.15882968259E+03  0.15882968259E+03  0.00000000000E+00 0.  1.
         36    2    1    2    0    0 -0.71054273576E-14  0.00000000000E+00  0.14154530960E+04  0.17331124612E+04  0.10000856644E+04 0.  0.
         25    2    3    3    0    0  0.29874088027E+02  0.23276281816E+02  0.50006919167E+03  0.51671615890E+03  0.12446744947E+03 0.  0.
         35    2    3    3    0    0 -0.29874088027E+02 -0.23276281816E+02  0.91538390433E+03  0.12163963023E+04  0.80016124966E+03 0.  0.
         22    1    5    5    0    0  0.11385847742E+03  0.29835171483E+03  0.77311240899E+03  0.83646894477E+03  0.00000000000E+00 0.  1.
         22    1    5    5    0    0 -0.14373256545E+03 -0.32162799665E+03  0.14227149534E+03  0.37992735751E+03  0.00000000000E+00 0.  1.
          5    1    4    4  502    0  0.73023011490E+02  0.21631231803E+02  0.40593401942E+03  0.41304332523E+03  0.47000000000E+01 0.  1.
         -5    1    4    4    0  502 -0.43148923464E+02  0.16450500131E+01  0.94135172253E+02  0.10367283367E+03  0.47000000000E+01 0.  1.
<mgrwt>
<rscale>  0 0.10000857E+04</rscale>
<asrwt>0</asrwt>
<pdfrwt beam="1">  1        2 0.24219734E+00 0.10000857E+04</pdfrwt>
<pdfrwt beam="2">  1       -2 0.24435337E-01 0.10000857E+04</pdfrwt>
<totfact> 0.20545708E+02</totfact>
</mgrwt>
</event>
<event>
 9    1  0.4307774E-036  0.9997459E+03  0.7818608E-02  0.8681280E-01
          2   -1    0    0  501    0  0.00000000000E+00  0.00000000000E+00  0.20239783601E+04  0.20239783601E+04  0.00000000000E+00 0. -1.
         -2   -1    0    0    0  501 -0.00000000000E+00 -0.00000000000E+00 -0.12345634299E+03  0.12345634299E+03  0.00000000000E+00 0. -1.
         36    2    1    2    0    0  0.14210854715E-13 -0.14210854715E-13  0.19005220171E+04  0.21474347031E+04  0.99974590098E+03 0.  0.
         25    2    3    3    0    0  0.65809073962E+02 -0.45602930602E+00  0.92395689000E+02  0.16880419896E+03  0.12500740802E+03 0.  0.
         35    2    3    3    0    0 -0.65809073962E+02  0.45602930602E+00  0.18081263281E+04  0.19786305041E+04  0.80082882773E+03 0.  0.
         22    1    5    5    0    0 -0.31132849456E+03  0.26367787703E+03  0.12463697357E+04  0.13114453753E+04  0.00000000000E+00 0. -1.
         22    1    5    5    0    0  0.24551942060E+03 -0.26322184773E+03  0.56175659241E+03  0.66718512883E+03  0.00000000000E+00 0. -1.
          5    1    4    4  502    0  0.99576209175E+02  0.18858516570E+02  0.73636908712E+02  0.12536167439E+03  0.47000000000E+01 0.  1.
         -5    1    4    4    0  502 -0.33767135213E+02 -0.19314545876E+02  0.18758780288E+02  0.43442524567E+02  0.47000000000E+01 0.  1.
<mgrwt>
<rscale>  0 0.99974590E+03</rscale>
<asrwt>0</asrwt>
<pdfrwt beam="1">  1        2 0.31138126E+00 0.99974590E+03</pdfrwt>
<pdfrwt beam="2">  1       -2 0.18993285E-01 0.99974590E+03</pdfrwt>
<totfact> 0.17757306E+02</totfact>
</mgrwt>
</event>
<event>
 9    1  0.4307774E-036  0.9992409E+03  0.7818608E-02  0.8681761E-01
          2   -1    0    0  501    0  0.00000000000E+00  0.00000000000E+00  0.20920665551E+04  0.20920665551E+04  0.00000000000E+00 0. -1.
         -2   -1    0    0    0  501 -0.00000000000E+00 -0.00000000000E+00 -0.11931770576E+03  0.11931770576E+03  0.00000000000E+00 0. -1.
         36    2    1    2    0    0  0.28421709430E-13 -0.14210854715E-13  0.19727488493E+04  0.22113842609E+04  0.99924087518E+03 0.  0.
         25    2    3    3    0    0 -0.90785668193E+02  0.11000267899E+03  0.51916986499E+03  0.55270714302E+03  0.12492081612E+03 0.  0.
         35    2    3    3    0    0  0.90785668193E+02 -0.11000267899E+03  0.14535789843E+04  0.16586771178E+04  0.78611404426E+03 0.  0.
         22    1    5    5    0    0 -0.13938399387E+03  0.19317447714E+03  0.11425403846E+04  0.11671087382E+04  0.00000000000E+00 0. -1.
         22    1    5    5    0    0  0.23016966207E+03 -0.30317715613E+03  0.31103859978E+03  0.49156837966E+03  0.00000000000E+00 0. -1.
          5    1    4    4  502    0 -0.96900640973E+02  0.30827651744E+02  0.20861709108E+03  0.23212767828E+03  0.47000000000E+01 0.  1.
         -5    1    4    4    0  502  0.61149727805E+01  0.79175027242E+02  0.31055277391E+03  0.32057946474E+03  0.47000000000E+01 0.  1.
<mgrwt>
<rscale>  0 0.99924088E+03</rscale>
<asrwt>0</asrwt>
<pdfrwt beam="1">  1        2 0.32185637E+00 0.99924088E+03</pdfrwt>
<pdfrwt beam="2">  1       -2 0.18356572E-01 0.99924088E+03</pdfrwt>
<totfact> 0.17212150E+02</totfact>
</mgrwt>
</event>
<event>
 9    1  0.4307774E-036  0.1000138E+04  0.7818608E-02  0.8680907E-01
          2   -1    0    0  501    0  0.00000000000E+00  0.00000000000E+00  0.14842018848E+04  0.14842018848E+04  0.00000000000E+00 0. -1.
         -2   -1    0    0    0  501 -0.00000000000E+00 -0.00000000000E+00 -0.16848706849E+03  0.16848706849E+03  0.00000000000E+00 0. -1.
         36    2    1    2    0    0  0.71054273576E-14  0.14210854715E-13  0.13157148163E+04  0.16526889533E+04  0.10001376398E+04 0.  0.
         25    2    3    3    0    0 -0.61442308660E+02  0.68960675576E+02  0.79885055110E+02  0.17478003245E+03  0.12504281525E+03 0.  0.
         35    2    3    3    0    0  0.61442308660E+02 -0.68960675576E+02  0.12358297612E+04  0.14779089209E+04  0.80523837934E+03 0.  0.
         22    1    5    5    0    0 -0.25945207009E+03  0.24820582200E+03  0.52851704948E+03  0.63894583365E+03  0.00000000000E+00 0.  1.
         22    1    5    5    0    0  0.32089437875E+03 -0.31716649758E+03  0.70731271175E+03  0.83896308722E+03  0.00000000000E+00 0.  1.
          5    1    4    4  502    0 -0.63198503844E+02  0.90119008929E+01  0.93297191958E+02  0.11314469176E+03  0.47000000000E+01 0. -1.
         -5    1    4    4    0  502  0.17561951846E+01  0.59948774683E+02 -0.13412136848E+02  0.61635340693E+02  0.47000000000E+01 0. -1.
<mgrwt>
<rscale>  0 0.10001376E+04</rscale>
<asrwt>0</asrwt>
<pdfrwt beam="1">  1        2 0.22833874E+00 0.10001376E+04</pdfrwt>
<pdfrwt beam="2">  1       -2 0.25921088E-01 0.10001376E+04</pdfrwt>
<totfact> 0.20803753E+02</totfact>
</mgrwt>
</event>
<event>
 9    1  0.4307774E-036  0.1000163E+04  0.7818608E-02  0.8680883E-01
         -1   -1    0    0    0  501 -0.00000000000E+00  0.00000000000E+00  0.31578917592E+03  0.31578917592E+03  0.00000000000E+00 0.  1.
          1   -1    0    0  501    0  0.00000000000E+00 -0.00000000000E+00 -0.79192474920E+03  0.79192474920E+03  0.00000000000E+00 0.  1.
         36    2    1    2    0    0  0.14210854715E-13  0.14210854715E-13 -0.47613557328E+03  0.11077139251E+04  0.10001625147E+04 0.  0.
         25    2    3    3    0    0 -0.52149096105E+02 -0.58456135245E+02 -0.21671392031E+03  0.26209043660E+03  0.12485922364E+03 0.  0.
         35    2    3    3    0    0  0.52149096105E+02  0.58456135245E+02 -0.25942165297E+03  0.84562348852E+03  0.80102611839E+03 0.  0.
         22    1    5    5    0    0  0.40460494390E+03 -0.99955427904E+02 -0.10746927362E+03  0.43040201320E+03  0.00000000000E+00 0. -1.
         22    1    5    5    0    0 -0.35245584779E+03  0.15841156315E+03 -0.15195237934E+03  0.41522147532E+03  0.00000000000E+00 0. -1.
          5    1    4    4  502    0 -0.65656903318E+02  0.14648342245E+02 -0.68023908884E+02  0.95784889537E+02  0.47000000000E+01 0.  1.
         -5    1    4    4    0  502  0.13507807213E+02 -0.73104477491E+02 -0.14869001143E+03  0.16630554706E+03  0.47000000000E+01 0.  1.
<mgrwt>
<rscale>  0 0.10001625E+04</rscale>
<asrwt>0</asrwt>
<pdfrwt beam="1">  1        1 0.12183458E+00 0.10001625E+04</pdfrwt>
<pdfrwt beam="2">  1       -1 0.48582950E-01 0.10001625E+04</pdfrwt>
<totfact> 0.10858234E+02</totfact>
</mgrwt>
</event>
<event>
 9    1  0.4307774E-036  0.1000337E+04  0.7818608E-02  0.8680717E-01
         -2   -1    0    0    0  501 -0.00000000000E+00  0.00000000000E+00  0.33871842896E+03  0.33871842896E+03  0.00000000000E+00 0. -1.
          2   -1    0    0  501    0  0.00000000000E+00 -0.00000000000E+00 -0.73857432176E+03  0.73857432176E+03  0.00000000000E+00 0. -1.
         36    2    1    2    0    0  0.28421709430E-13  0.28421709430E-13 -0.39985589280E+03  0.10772927507E+04  0.10003374110E+04 0.  0.
         25    2    3    3    0    0 -0.13103902464E+03 -0.21018040022E+02 -0.25437914611E+02  0.18333196854E+03  0.12389729296E+03 0.  0.
         35    2    3    3    0    0  0.13103902464E+03  0.21018040022E+02 -0.37441797819E+03  0.89396078218E+03  0.80085209228E+03 0.  0.
         22    1    5    5    0    0 -0.91889981353E+02  0.37888254749E+03 -0.16802111999E+03  0.42453133009E+03  0.00000000000E+00 0.  1.
         22    1    5    5    0    0  0.22292900599E+03 -0.35786450747E+03 -0.20639685821E+03  0.46942945210E+03  0.00000000000E+00 0.  1.
          5    1    4    4  502    0 -0.14124132257E+03  0.13165489665E+02 -0.34834028558E+02  0.14614356252E+03  0.47000000000E+01 0.  1.
         -5    1    4    4    0  502  0.10202297933E+02 -0.34183529687E+02  0.93961139465E+01  0.37188406019E+02  0.47000000000E+01 0.  1.
<mgrwt>
<rscale>  0 0.10003374E+04</rscale>
<asrwt>0</asrwt>
<pdfrwt beam="1">  1        2 0.11362682E+00 0.10003374E+04</pdfrwt>
<pdfrwt beam="2">  1       -2 0.52110527E-01 0.10003374E+04</pdfrwt>
<totfact> 0.16097301E+02</totfact>
</mgrwt>
</event>
<event>
 9    1  0.4307774E-036  0.1000797E+04  0.7818608E-02  0.8680279E-01
          2   -1    0    0  501    0  0.00000000000E+00  0.00000000000E+00  0.18886882680E+04  0.18886882680E+04  0.00000000000E+00 0.  1.
         -2   -1    0    0    0  501 -0.00000000000E+00 -0.00000000000E+00 -0.13257816483E+03  0.13257816483E+03  0.00000000000E+00 0.  1.
         36    2    1    2    0    0  0.14210854715E-13  0.00000000000E+00  0.17561101032E+04  0.20212664328E+04  0.10007973311E+04 0.  0.
         25    2    3    3    0    0 -0.12412902724E+03 -0.57335150518E+02  0.38869282606E+03  0.43045114613E+03  0.12454212653E+03 0.  0.
         35    2    3    3    0    0  0.12412902724E+03  0.57335150518E+02  0.13674172771E+04  0.15908152867E+04  0.80135381186E+03 0.  0.
         22    1    5    5    0    0 -0.29529299164E+03 -0.15217848464E+03  0.43682307453E+03  0.54879016075E+03  0.00000000000E+00 0.  1.
         22    1    5    5    0    0  0.41942201888E+03  0.20951363516E+03  0.93059420257E+03  0.10420251259E+04  0.00000000000E+00 0.  1.
          5    1    4    4  502    0 -0.13221502128E+03 -0.34611364531E+02  0.38084897309E+03  0.40465638351E+03  0.47000000000E+01 0. -1.
         -5    1    4    4    0  502  0.80859940356E+01 -0.22723785988E+02  0.78438529664E+01  0.25794762618E+02  0.47000000000E+01 0. -1.
<mgrwt>
<rscale>  0 0.10007973E+04</rscale>
<asrwt>0</asrwt>
<pdfrwt beam="1">  1        2 0.29056741E+00 0.10007973E+04</pdfrwt>
<pdfrwt beam="2">  1       -2 0.20396642E-01 0.10007973E+04</pdfrwt>
<totfact> 0.18740858E+02</totfact>
</mgrwt>
</event>
<event>
 9    1  0.4307774E-036  0.9999888E+03  0.7818608E-02  0.8681049E-01
         -2   -1    0    0    0  501 -0.00000000000E+00  0.00000000000E+00  0.11592886806E+03  0.11592886806E+03  0.00000000000E+00 0.  1.
          2   -1    0    0  501    0  0.00000000000E+00 -0.00000000000E+00 -0.21564464748E+04  0.21564464748E+04  0.00000000000E+00 0.  1.
         36    2    1    2    0    0 -0.14210854715E-13 -0.71054273576E-14 -0.20405176067E+04  0.22723753428E+04  0.99998879765E+03 0.  0.
         25    2    3    3    0    0 -0.79665608672E+02 -0.49284135655E+02 -0.15268444264E+03  0.21949902510E+03  0.12685325286E+03 0.  0.
         35    2    3    3    0    0  0.79665608672E+02  0.49284135655E+02 -0.18878331641E+04  0.20528763178E+04  0.80100660755E+03 0.  0.
         22    1    5    5    0    0  0.33371661303E+03  0.87297608078E+02 -0.34165862486E+03  0.48550825547E+03  0.00000000000E+00 0. -1.
         22    1    5    5    0    0 -0.25405100436E+03 -0.38013472423E+02 -0.15461745392E+04  0.15673680623E+04  0.00000000000E+00 0. -1.
          5    1    4    4  502    0 -0.25015229214E+02  0.30214017555E+02 -0.10417889315E+03  0.11141804310E+03  0.47000000000E+01 0.  1.
         -5    1    4    4    0  502 -0.54650379457E+02 -0.79498153210E+02 -0.48505549494E+02  0.10808098200E+03  0.47000000000E+01 0.  1.
<mgrwt>
<rscale>  0 0.99998880E+03</rscale>
<asrwt>0</asrwt>
<pdfrwt beam="1">  1        2 0.33176099E+00 0.99998880E+03</pdfrwt>
<pdfrwt beam="2">  1       -2 0.17835211E-01 0.99998880E+03</pdfrwt>
<totfact> 0.16600673E+02</totfact>
</mgrwt>
</event>
<event>
 9    1  0.4307774E-036  0.1000324E+04  0.7818608E-02  0.8680729E-01
          1   -1    0    0  501    0  0.00000000000E+00  0.00000000000E+00  0.38722757906E+03  0.38722757906E+03  0.00000000000E+00 0. -1.
         -1   -1    0    0    0  501 -0.00000000000E+00 -0.00000000000E+00 -0.64603368860E+03  0.64603368860E+03  0.00000000000E+00 0. -1.
         36    2    1    2    0    0 -0.71054273576E-14  0.28421709430E-13 -0.25880610954E+03  0.10332612677E+04  0.10003240700E+04 0.  0.
         25    2    3    3    0    0  0.56024376382E+02  0.12926377182E+03 -0.29815834991E+02  0.19051648914E+03  0.12473850714E+03 0.  0.
         35    2    3    3    0    0 -0.56024376382E+02 -0.12926377182E+03 -0.22899027455E+03  0.84274477853E+03  0.79870793313E+03 0.  0.
         22    1    5    5    0    0  0.71696590292E+02  0.32826886955E+03 -0.96399793994E+02  0.34956225777E+03  0.00000000000E+00 0.  1.
         22    1    5    5    0    0 -0.12772096667E+03 -0.45753264137E+03 -0.13259048055E+03  0.49318252076E+03  0.00000000000E+00 0.  1.
          5    1    4    4  502    0  0.77957453484E+02  0.12548201071E+03 -0.53961087064E+02  0.15734353651E+03  0.47000000000E+01 0. -1.
         -5    1    4    4    0  502 -0.21933077102E+02  0.37817611141E+01  0.24145252073E+02  0.33172952626E+02  0.47000000000E+01 0. -1.
<mgrwt>
<rscale>  0 0.10003241E+04</rscale>
<asrwt>0</asrwt>
<pdfrwt beam="1">  1        1 0.59573474E-01 0.10003241E+04</pdfrwt>
<pdfrwt beam="2">  1       -1 0.99389798E-01 0.10003241E+04</pdfrwt>
<totfact> 0.72520210E+01</totfact>
</mgrwt>
</event>
<event>
 9    1  0.4307774E-036  0.1000579E+04  0.7818608E-02  0.8680487E-01
          2   -1    0    0  501    0  0.00000000000E+00  0.00000000000E+00  0.11227501190E+04  0.11227501190E+04  0.00000000000E+00 0. -1.
         -2   -1    0    0    0  501 -0.00000000000E+00 -0.00000000000E+00 -0.22292546845E+03  0.22292546845E+03  0.00000000000E+00 0. -1.
         36    2    1    2    0    0  0.00000000000E+00  0.00000000000E+00  0.89982465051E+03  0.13456755874E+04  0.10005790248E+04 0.  0.
         25    2    3    3    0    0 -0.75625028036E+02 -0.11769958213E+03  0.15348646749E+03  0.24260211202E+03  0.12540076777E+03 0.  0.
         35    2    3    3    0    0  0.75625028036E+02  0.11769958213E+03  0.74633818302E+03  0.11030734754E+04  0.80011128736E+03 0.  0.
         22    1    5    5    0    0  0.12188372150E+03  0.14236181073E+03 -0.12813740349E+03  0.22702801787E+03  0.00000000000E+00 0.  1.
         22    1    5    5    0    0 -0.46258693469E+02 -0.24662228608E+02  0.87447558651E+03  0.87604545752E+03  0.00000000000E+00 0.  1.
          5    1    4    4  502    0 -0.67588573252E+02  0.18345564893E+01  0.50047033083E+02  0.84251862604E+02  0.47000000000E+01 0.  1.
         -5    1    4    4    0  502 -0.80364547836E+01 -0.11953413862E+03  0.10343943441E+03  0.15835024942E+03  0.47000000000E+01 0.  1.
<mgrwt>
<rscale>  0 0.10005790E+04</rscale>
<asrwt>0</asrwt>
<pdfrwt beam="1">  1        2 0.17273078E+00 0.10005790E+04</pdfrwt>
<pdfrwt beam="2">  1       -2 0.34296226E-01 0.10005790E+04</pdfrwt>
<totfact> 0.20266677E+02</totfact>
</mgrwt>
</event>
<event>
 9    1  0.4307774E-036  0.9998646E+03  0.7818608E-02  0.8681167E-01
          2   -1    0    0  501    0  0.00000000000E+00  0.00000000000E+00  0.85143090375E+03  0.85143090375E+03  0.00000000000E+00 0.  1.
         -2   -1    0    0    0  501 -0.00000000000E+00 -0.00000000000E+00 -0.29354385677E+03  0.29354385677E+03  0.00000000000E+00 0.  1.
         36    2    1    2    0    0  0.00000000000E+00  0.00000000000E+00  0.55788704698E+03  0.11449747605E+04  0.99986461335E+03 0.  0.
         25    2    3    3    0    0 -0.88231522696E+02  0.10052340630E+03  0.10173742753E+03  0.21041884589E+03  0.12663265667E+03 0.  0.
         35    2    3    3    0    0  0.88231522696E+02 -0.10052340630E+03  0.45614961945E+03  0.93455591463E+03  0.80463191922E+03 0.  0.
         22    1    5    5    0    0  0.44138093564E+03 -0.11941276222E+03  0.20682085229E+03  0.50184798801E+03  0.00000000000E+00 0. -1.
         22    1    5    5    0    0 -0.35314941294E+03  0.18889355920E+02  0.24932876716E+03  0.43270792662E+03  0.00000000000E+00 0. -1.
          5    1    4    4  502    0  0.32226981657E+02  0.31268797829E+02  0.23861538084E+02  0.51066418165E+02  0.47000000000E+01 0.  1.
         -5    1    4    4    0  502 -0.12045850435E+03  0.69254608469E+02  0.77875889445E+02  0.15935242773E+03  0.47000000000E+01 0.  1.
<mgrwt>
<rscale>  0 0.99986461E+03</rscale>
<asrwt>0</asrwt>
<pdfrwt beam="1">  1        2 0.13098937E+00 0.99986461E+03</pdfrwt>
<pdfrwt beam="2">  1       -2 0.45160594E-01 0.99986461E+03</pdfrwt>
<totfact> 0.17817594E+02</totfact>
</mgrwt>
</event>
<event>
 9    1  0.4307774E-036  0.9995766E+03  0.7818608E-02  0.8681441E-01
          2   -1    0    0  501    0  0.00000000000E+00  0.00000000000E+00  0.14086763613E+04  0.14086763613E+04  0.00000000000E+00 0.  1.
         -2   -1    0    0    0  501 -0.00000000000E+00 -0.00000000000E+00 -0.17732131097E+03  0.17732131097E+03  0.00000000000E+00 0.  1.
         36    2    1    2    0    0  0.00000000000E+00 -0.14210854715E-13  0.12313550503E+04  0.15859976723E+04  0.99957658861E+03 0.  0.
         25    2    3    3    0    0  0.12002815569E+03 -0.48216031301E+02  0.14486713789E+03  0.23103516918E+03  0.12513679683E+03 0.  0.
         35    2    3    3    0    0 -0.12002815569E+03  0.48216031301E+02  0.10864879125E+04  0.13549625031E+04  0.79920952015E+03 0.  0.
         22    1    5    5    0    0 -0.46336914631E+03  0.51027519082E+02  0.63543855866E+03  0.78809703418E+03  0.00000000000E+00 0. -1.
         22    1    5    5    0    0  0.34334099062E+03 -0.28114877807E+01  0.45104935380E+03  0.56686546894E+03  0.00000000000E+00 0. -1.
          5    1    4    4  502    0  0.67937118480E+02 -0.57815598629E+02  0.14841923106E+02  0.90556436511E+02  0.47000000000E+01 0.  1.
         -5    1    4    4    0  502  0.52091037212E+02  0.95995673284E+01  0.13002521479E+03  0.14047873266E+03  0.47000000000E+01 0.  1.
<mgrwt>
<rscale>  0 0.99957659E+03</rscale>
<asrwt>0</asrwt>
<pdfrwt beam="1">  1        2 0.21671943E+00 0.99957659E+03</pdfrwt>
<pdfrwt beam="2">  1       -2 0.27280203E-01 0.99957659E+03</pdfrwt>
<totfact> 0.20959485E+02</totfact>
</mgrwt>
</event>
<event>
 9    1  0.4307774E-036  0.1000008E+04  0.7818608E-02  0.8681030E-01
         -2   -1    0    0    0  501 -0.00000000000E+00  0.00000000000E+00  0.11207878475E+04  0.11207878475E+04  0.00000000000E+00 0. -1.
          2   -1    0    0  501    0  0.00000000000E+00 -0.00000000000E+00 -0.22306103351E+03  0.22306103351E+03  0.00000000000E+00 0. -1.
         36    2    1    2    0    0  0.14210854715E-13 -0.14210854715E-13  0.89772681395E+03  0.13438488810E+04  0.10000081912E+04 0.  0.
         25    2    3    3    0    0 -0.18454006651E+02 -0.36403515824E+02  0.35089684361E+03  0.37439806399E+03  0.12401431022E+03 0.  0.
         35    2    3    3    0    0  0.18454006651E+02  0.36403515824E+02  0.54682997035E+03  0.96945081699E+03  0.79946613672E+03 0.  0.
         22    1    5    5    0    0  0.16341166484E+03 -0.14903467342E+03 -0.12745654119E+03  0.25526432571E+03  0.00000000000E+00 0.  1.
         22    1    5    5    0    0 -0.14495765819E+03  0.18543818925E+03  0.67428651153E+03  0.71418649128E+03  0.00000000000E+00 0.  1.
          5    1    4    4  502    0  0.87419219992E+01 -0.45733105796E+02  0.34013705776E+03  0.34334129700E+03  0.47000000000E+01 0. -1.
         -5    1    4    4    0  502 -0.27195928650E+02  0.93295899718E+01  0.10759785850E+02  0.31056766988E+02  0.47000000000E+01 0. -1.
<mgrwt>
<rscale>  0 0.10000082E+04</rscale>
<asrwt>0</asrwt>
<pdfrwt beam="1">  1        2 0.34317083E-01 0.10000082E+04</pdfrwt>
<pdfrwt beam="2">  1       -2 0.17242890E+00 0.10000082E+04</pdfrwt>
<totfact> 0.34791328E+01</totfact>
</mgrwt>
</event>
<event>
 9    1  0.4307774E-036  0.9980095E+03  0.7818608E-02  0.8682936E-01
          2   -1    0    0  501    0  0.00000000000E+00  0.00000000000E+00  0.12626326162E+04  0.12626326162E+04  0.00000000000E+00 0. -1.
         -2   -1    0    0    0  501 -0.00000000000E+00 -0.00000000000E+00 -0.19721154271E+03  0.19721154271E+03  0.00000000000E+00 0. -1.
         36    2    1    2    0    0 -0.42632564146E-13  0.00000000000E+00  0.10654210735E+04  0.14598441589E+04  0.99800947114E+03 0.  0.
         25    2    3    3    0    0  0.25628691827E+02  0.14747203794E+02  0.19324540526E+01  0.12839851923E+03  0.12493252378E+03 0.  0.
         35    2    3    3    0    0 -0.25628691827E+02 -0.14747203794E+02  0.10634886195E+04  0.13314456397E+04  0.80054052857E+03 0.  0.
         22    1    5    5    0    0 -0.40983567974E+03 -0.57925558035E+02  0.52515148684E+03  0.66865891065E+03  0.00000000000E+00 0.  1.
         22    1    5    5    0    0  0.38420698792E+03  0.43178354241E+02  0.53833713263E+03  0.66278672905E+03  0.00000000000E+00 0.  1.
          5    1    4    4  502    0 -0.12548615604E+02  0.60410129305E+02  0.21595939048E+02  0.65538737091E+02  0.47000000000E+01 0.  1.
         -5    1    4    4    0  502  0.38177307432E+02 -0.45662925511E+02 -0.19663484995E+02  0.62859782143E+02  0.47000000000E+01 0.  1.
<mgrwt>
<rscale>  0 0.99800947E+03</rscale>
<asrwt>0</asrwt>
<pdfrwt beam="1">  1        2 0.19425117E+00 0.99800947E+03</pdfrwt>
<pdfrwt beam="2">  1       -2 0.30340238E-01 0.99800947E+03</pdfrwt>
<totfact> 0.20988859E+02</totfact>
</mgrwt>
</event>
<event>
 9    1  0.4307774E-036  0.1000252E+04  0.7818608E-02  0.8680798E-01
         -2   -1    0    0    0  501 -0.00000000000E+00  0.00000000000E+00  0.25986982446E+03  0.25986982446E+03  0.00000000000E+00 0.  1.
          2   -1    0    0  501    0  0.00000000000E+00 -0.00000000000E+00 -0.96250581406E+03  0.96250581406E+03  0.00000000000E+00 0.  1.
         36    2    1    2    0    0  0.14210854715E-13  0.00000000000E+00 -0.70263598960E+03  0.12223756385E+04  0.10002524020E+04 0.  0.
         25    2    3    3    0    0  0.65610915652E+00 -0.82185006713E+02 -0.27455021525E+03  0.31257120471E+03  0.12477231870E+03 0.  0.
         35    2    3    3    0    0 -0.65610915652E+00  0.82185006713E+02 -0.42808577435E+03  0.90980443382E+03  0.79858116167E+03 0.  0.
         22    1    5    5    0    0  0.20297726819E+03  0.76022727541E+02  0.17160381348E+03  0.27645450857E+03  0.00000000000E+00 0. -1.
         22    1    5    5    0    0 -0.20363337735E+03  0.61622791719E+01 -0.59968958783E+03  0.63334992525E+03  0.00000000000E+00 0. -1.
          5    1    4    4  502    0 -0.19281769327E+02 -0.47094559178E+02 -0.26623701512E+03  0.27109762513E+03  0.47000000000E+01 0. -1.
         -5    1    4    4    0  502  0.19937878483E+02 -0.35090447535E+02 -0.83132001298E+01  0.41473579578E+02  0.47000000000E+01 0. -1.
<mgrwt>
<rscale>  0 0.10002524E+04</rscale>
<asrwt>0</asrwt>
<pdfrwt beam="1">  1        2 0.14807782E+00 0.10002524E+04</pdfrwt>
<pdfrwt beam="2">  1       -2 0.39979973E-01 0.10002524E+04</pdfrwt>
<totfact> 0.19070438E+02</totfact>
</mgrwt>
</event>
<event>
 9    1  0.4307774E-036  0.9990354E+03  0.7818608E-02  0.8681957E-01
          1   -1    0    0  501    0  0.00000000000E+00  0.00000000000E+00  0.61498482236E+03  0.61498482236E+03  0.00000000000E+00 0. -1.
         -1   -1    0    0    0  501 -0.00000000000E+00 -0.00000000000E+00 -0.40573018876E+03  0.40573018876E+03  0.00000000000E+00 0. -1.
         36    2    1    2    0    0  0.00000000000E+00  0.00000000000E+00  0.20925463360E+03  0.10207150111E+04  0.99903535085E+03 0.  0.
         25    2    3    3    0    0  0.30847875537E+02 -0.27727387281E+02  0.17667800231E+03  0.21982155960E+03  0.12404032462E+03 0.  0.
         35    2    3    3    0    0 -0.30847875537E+02  0.27727387281E+02  0.32576631290E+02  0.80089345153E+03  0.79915498144E+03 0.  0.
         22    1    5    5    0    0  0.89177638550E+02 -0.21731579367E+03  0.32495804085E+03  0.40096949224E+03  0.00000000000E+00 0. -1.
         22    1    5    5    0    0 -0.12002551409E+03  0.24504318095E+03 -0.29238140956E+03  0.39992395929E+03  0.00000000000E+00 0. -1.
          5    1    4    4  502    0 -0.32390815173E+02  0.29390182667E+02  0.76245017485E+02  0.88024658114E+02  0.47000000000E+01 0.  1.
         -5    1    4    4    0  502  0.63238690710E+02 -0.57117569948E+02  0.10043298483E+03  0.13179690148E+03  0.47000000000E+01 0.  1.
<mgrwt>
<rscale>  0 0.99903535E+03</rscale>
<asrwt>0</asrwt>
<pdfrwt beam="1">  1        1 0.94613049E-01 0.99903535E+03</pdfrwt>
<pdfrwt beam="2">  1       -1 0.62420029E-01 0.99903535E+03</pdfrwt>
<totfact> 0.99902557E+01</totfact>
</mgrwt>
</event>
<event>
 9    1  0.4307774E-036  0.1000125E+04  0.7818608E-02  0.8680919E-01
          1   -1    0    0  501    0  0.00000000000E+00  0.00000000000E+00  0.42635105392E+03  0.42635105392E+03  0.00000000000E+00 0.  1.
         -1   -1    0    0    0  501 -0.00000000000E+00 -0.00000000000E+00 -0.58651741685E+03  0.58651741685E+03  0.00000000000E+00 0.  1.
         36    2    1    2    0    0  0.14210854715E-13 -0.28421709430E-13 -0.16016636292E+03  0.10128684708E+04  0.10001246299E+04 0.  0.
         25    2    3    3    0    0 -0.57196363426E+02 -0.12328062465E+03 -0.63248313378E+02  0.19518753698E+03  0.12501315549E+03 0.  0.
         35    2    3    3    0    0  0.57196363426E+02  0.12328062465E+03 -0.96918049547E+02  0.81768093379E+03  0.80046203205E+03 0.  0.
         22    1    5    5    0    0 -0.14570653813E+03  0.41687277503E+03  0.20218073856E+02  0.44206569231E+03  0.00000000000E+00 0.  1.
         22    1    5    5    0    0  0.20290290155E+03 -0.29359215038E+03 -0.11713612340E+03  0.37561524147E+03  0.00000000000E+00 0.  1.
          5    1    4    4  502    0 -0.78102894416E+02 -0.55298548884E+02  0.57474360997E+01  0.95984970941E+02  0.47000000000E+01 0.  1.
         -5    1    4    4    0  502  0.20906530990E+02 -0.67982075767E+02 -0.68995749477E+02  0.99202566043E+02  0.47000000000E+01 0.  1.
<mgrwt>
<rscale>  0 0.10001246E+04</rscale>
<asrwt>0</asrwt>
<pdfrwt beam="1">  1        1 0.65592470E-01 0.10001246E+04</pdfrwt>
<pdfrwt beam="2">  1       -1 0.90233448E-01 0.10001246E+04</pdfrwt>
<totfact> 0.78745689E+01</totfact>
</mgrwt>
</event>
<event>
 9    1  0.4307774E-036  0.1002046E+04  0.7818608E-02  0.8679092E-01
         -2   -1    0    0    0  501 -0.00000000000E+00  0.00000000000E+00  0.44508132825E+03  0.44508132825E+03  0.00000000000E+00 0.  1.
          2   -1    0    0  501    0  0.00000000000E+00 -0.00000000000E+00 -0.56399631841E+03  0.56399631841E+03  0.00000000000E+00 0.  1.
         36    2    1    2    0    0  0.00000000000E+00 -0.71054273576E-14 -0.11891499015E+03  0.10090776467E+04  0.10020463672E+04 0.  0.
         25    2    3    3    0    0 -0.75814616650E+02 -0.58393789699E+02  0.84146417649E+02  0.17787285109E+03  0.12409851240E+03 0.  0.
         35    2    3    3    0    0  0.75814616650E+02  0.58393789699E+02 -0.20306140780E+03  0.83120479557E+03  0.80031855287E+03 0.  0.
         22    1    5    5    0    0 -0.27143443306E+03 -0.93333858273E+02 -0.32453996789E+03  0.43325979655E+03  0.00000000000E+00 0. -1.
         22    1    5    5    0    0  0.34724904971E+03  0.15172764797E+03  0.12147856009E+03  0.39794499902E+03  0.00000000000E+00 0. -1.
          5    1    4    4  502    0  0.92905816757E+01 -0.68466009337E+02  0.24950145014E+02  0.73610522880E+02  0.47000000000E+01 0. -1.
         -5    1    4    4    0  502 -0.85105198326E+02  0.10072219638E+02  0.59196272635E+02  0.10426232821E+03  0.47000000000E+01 0. -1.
<mgrwt>
<rscale>  0 0.10020464E+04</rscale>
<asrwt>0</asrwt>
<pdfrwt beam="1">  1        2 0.86768664E-01 0.10020464E+04</pdfrwt>
<pdfrwt beam="2">  1       -2 0.68474051E-01 0.10020464E+04</pdfrwt>
<totfact> 0.12606969E+02</totfact>
</mgrwt>
</event>
<event>
 9    1  0.4307774E-036  0.1000088E+04  0.7818608E-02  0.8680955E-01
         -2   -1    0    0    0  501 -0.00000000000E+00  0.00000000000E+00  0.61163292654E+03  0.61163292654E+03  0.00000000000E+00 0. -1.
          2   -1    0    0  501    0  0.00000000000E+00 -0.00000000000E+00 -0.40881349908E+03  0.40881349908E+03  0.00000000000E+00 0. -1.
         36    2    1    2    0    0  0.71054273576E-14  0.00000000000E+00  0.20281942746E+03  0.10204464256E+04  0.10000875899E+04 0.  0.
         25    2    3    3    0    0 -0.48387419950E+02  0.12999732218E+03  0.81726492400E+02  0.20427615217E+03  0.12573337107E+03 0.  0.
         35    2    3    3    0    0  0.48387419950E+02 -0.12999732218E+03  0.12109293506E+03  0.81617027345E+03  0.79512877583E+03 0.  0.
         22    1    5    5    0    0  0.26241472803E+03  0.25621675671E+02 -0.24803214416E+03  0.36199158041E+03  0.00000000000E+00 0.  1.
         22    1    5    5    0    0 -0.21402730808E+03 -0.15561899785E+03  0.36912507922E+03  0.45417869304E+03  0.00000000000E+00 0.  1.
          5    1    4    4  502    0 -0.44452342672E+02  0.14834937457E+03  0.42695662680E+02  0.16071265450E+03  0.47000000000E+01 0. -1.
         -5    1    4    4    0  502 -0.39350772786E+01 -0.18352052394E+02  0.39030829720E+02  0.43563497666E+02  0.47000000000E+01 0. -1.
<mgrwt>
<rscale>  0 0.10000876E+04</rscale>
<asrwt>0</asrwt>
<pdfrwt beam="1">  1        2 0.62894384E-01 0.10000876E+04</pdfrwt>
<pdfrwt beam="2">  1       -2 0.94097374E-01 0.10000876E+04</pdfrwt>
<totfact> 0.88169943E+01</totfact>
</mgrwt>
</event>
<event>
 9    1  0.4307774E-036  0.9991657E+03  0.7818608E-02  0.8681833E-01
         -2   -1    0    0    0  501 -0.00000000000E+00  0.00000000000E+00  0.11290319487E+03  0.11290319487E+03  0.00000000000E+00 0. -1.
          2   -1    0    0  501    0  0.00000000000E+00 -0.00000000000E+00 -0.22105928940E+04  0.22105928940E+04  0.00000000000E+00 0. -1.
         36    2    1    2    0    0  0.00000000000E+00 -0.35527136788E-13 -0.20976896991E+04  0.23234960889E+04  0.99916565250E+03 0.  0.
         25    2    3    3    0    0 -0.11503959944E+03 -0.37179616742E+02 -0.56364938086E+03  0.58983725968E+03  0.12486366572E+03 0.  0.
         35    2    3    3    0    0  0.11503959944E+03  0.37179616742E+02 -0.15340403183E+04  0.17336588292E+04  0.79854668280E+03 0.  0.
         22    1    5    5    0    0  0.15942814866E+03  0.40597647513E+03 -0.82105739570E+03  0.92971473043E+03  0.00000000000E+00 0. -1.
         22    1    5    5    0    0 -0.44388549213E+02 -0.36879685839E+03 -0.71298292257E+03  0.80394409876E+03  0.00000000000E+00 0. -1.
          5    1    4    4  502    0 -0.13804022338E+03 -0.49318713733E+02 -0.49525123726E+03  0.51651071315E+03  0.47000000000E+01 0.  1.
         -5    1    4    4    0  502  0.23000623935E+02  0.12139096991E+02 -0.68398143598E+02  0.73326546522E+02  0.47000000000E+01 0.  1.
<mgrwt>
<rscale>  0 0.99916565E+03</rscale>
<asrwt>0</asrwt>
<pdfrwt beam="1">  1        2 0.34009125E+00 0.99916565E+03</pdfrwt>
<pdfrwt beam="2">  1       -2 0.17369721E-01 0.99916565E+03</pdfrwt>
<totfact> 0.16154726E+02</totfact>
</mgrwt>
</event>
<event>
 9    1  0.4307774E-036  0.1001729E+04  0.7818608E-02  0.8679394E-01
          2   -1    0    0  501    0  0.00000000000E+00  0.00000000000E+00  0.21768515493E+04  0.21768515493E+04  0.00000000000E+00 0. -1.
         -2   -1    0    0    0  501 -0.00000000000E+00 -0.00000000000E+00 -0.11524212624E+03  0.11524212624E+03  0.00000000000E+00 0. -1.
         36    2    1    2    0    0  0.00000000000E+00  0.00000000000E+00  0.20616094230E+04  0.22920936755E+04  0.10017285082E+04 0.  0.
         25    2    3    3    0    0 -0.36646117047E+02  0.13175750416E+03  0.30053188629E+03  0.35243151870E+03  0.12322979713E+03 0.  0.
         35    2    3    3    0    0  0.36646117047E+02 -0.13175750416E+03  0.17610775367E+04  0.19396621568E+04  0.80136896266E+03 0.  0.
         22    1    5    5    0    0 -0.22064908693E+02 -0.14966451828E+02 -0.84938018252E+02  0.89024276579E+02  0.00000000000E+00 0. -1.
         22    1    5    5    0    0  0.58711025741E+02 -0.11679105234E+03  0.18460155550E+04  0.18506378802E+04  0.00000000000E+00 0. -1.
          5    1    4    4  502    0  0.34061264859E+01  0.43432615630E+02  0.22551408034E+03  0.22973176583E+03  0.47000000000E+01 0. -1.
         -5    1    4    4    0  502 -0.40052243533E+02  0.88324888534E+02  0.75017805950E+02  0.12269975288E+03  0.47000000000E+01 0. -1.
<mgrwt>
<rscale>  0 0.10017285E+04</rscale>
<asrwt>0</asrwt>
<pdfrwt beam="1">  1        2 0.33490021E+00 0.10017285E+04</pdfrwt>
<pdfrwt beam="2">  1       -2 0.17729559E-01 0.10017285E+04</pdfrwt>
<totfact> 0.16319360E+02</totfact>
</mgrwt>
</event>
<event>
 9    1  0.4307774E-036  0.9990657E+03  0.7818608E-02  0.8681928E-01
         -3   -1    0    0    0  501 -0.00000000000E+00  0.00000000000E+00  0.20443339242E+04  0.20443339242E+04  0.00000000000E+00 0. -1.
          3   -1    0    0  501    0  0.00000000000E+00 -0.00000000000E+00 -0.12206081334E+03  0.12206081334E+03  0.00000000000E+00 0. -1.
         36    2    1    2    0    0  0.71054273576E-14 -0.14210854715E-13  0.19222731108E+04  0.21663947375E+04  0.99906568658E+03 0.  0.
         25    2    3    3    0    0 -0.36913343799E+02  0.12414395571E+03  0.47439151764E+03  0.50701367144E+03  0.12345539409E+03 0.  0.
         35    2    3    3    0    0  0.36913343799E+02 -0.12414395571E+03  0.14478815932E+04  0.16593810661E+04  0.80025627010E+03 0.  0.
         22    1    5    5    0    0 -0.32870115517E+02  0.94093937565E+02 -0.71599888382E+02  0.12272187090E+03  0.00000000000E+00 0. -1.
         22    1    5    5    0    0  0.69783459316E+02 -0.21823789328E+03  0.15194814816E+04  0.15366591952E+04  0.00000000000E+00 0. -1.
          5    1    4    4  502    0 -0.17364190125E+02  0.81627704489E+02  0.44217662419E+03  0.45000761573E+03  0.47000000000E+01 0.  1.
         -5    1    4    4    0  502 -0.19549153673E+02  0.42516251223E+02  0.32214893452E+02  0.57006055709E+02  0.47000000000E+01 0.  1.
<mgrwt>
<rscale>  0 0.99906569E+03</rscale>
<asrwt>0</asrwt>
<pdfrwt beam="1">  1        3 0.18778588E-01 0.99906569E+03</pdfrwt>
<pdfrwt beam="2">  1       -3 0.31451289E+00 0.99906569E+03</pdfrwt>
<totfact> 0.13176567E+00</totfact>
</mgrwt>
</event>
<event>
 9    1  0.4307774E-036  0.9999893E+03  0.7818608E-02  0.8681048E-01
          2   -1    0    0  501    0  0.00000000000E+00  0.00000000000E+00  0.76529519557E+03  0.76529519557E+03  0.00000000000E+00 0.  1.
         -2   -1    0    0    0  501 -0.00000000000E+00 -0.00000000000E+00 -0.32666436457E+03  0.32666436457E+03  0.00000000000E+00 0.  1.
         36    2    1    2    0    0 -0.28421709430E-13  0.00000000000E+00  0.43863083100E+03  0.10919595601E+04  0.99998933749E+03 0.  0.
         25    2    3    3    0    0 -0.87365823559E+02  0.21071873293E+02  0.20468687276E+03  0.25617820656E+03  0.12511493383E+03 0.  0.
         35    2    3    3    0    0  0.87365823559E+02 -0.21071873293E+02  0.23394395824E+03  0.83578135359E+03  0.79732294865E+03 0.  0.
         22    1    5    5    0    0 -0.29722226876E+03  0.37085972789E+02  0.31905110832E+03  0.43761861951E+03  0.00000000000E+00 0.  1.
         22    1    5    5    0    0  0.38458809232E+03 -0.58157846082E+02 -0.85107150076E+02  0.39816273408E+03  0.00000000000E+00 0.  1.
          5    1    4    4  502    0 -0.48304479259E+02  0.68685902885E+02  0.15714354984E+03  0.17823372641E+03  0.47000000000E+01 0. -1.
         -5    1    4    4    0  502 -0.39061344299E+02 -0.47614029591E+02  0.47543322915E+02  0.77944480153E+02  0.47000000000E+01 0. -1.
<mgrwt>
<rscale>  0 0.99998934E+03</rscale>
<asrwt>0</asrwt>
<pdfrwt beam="1">  1        2 0.11773772E+00 0.99998934E+03</pdfrwt>
<pdfrwt beam="2">  1       -2 0.50256056E-01 0.99998934E+03</pdfrwt>
<totfact> 0.16556362E+02</totfact>
</mgrwt>
</event>
<event>
 9    1  0.4307774E-036  0.9992585E+03  0.7818608E-02  0.8681744E-01
          1   -1    0    0  501    0  0.00000000000E+00  0.00000000000E+00  0.16418929911E+04  0.16418929911E+04  0.00000000000E+00 0. -1.
         -1   -1    0    0    0  501 -0.00000000000E+00 -0.00000000000E+00 -0.15203755898E+03  0.15203755898E+03  0.00000000000E+00 0. -1.
         36    2    1    2    0    0  0.00000000000E+00 -0.21316282073E-13  0.14898554321E+04  0.17939305501E+04  0.99925853005E+03 0.  0.
         25    2    3    3    0    0 -0.12958202490E+03 -0.41347776947E+02  0.21446426744E+03  0.28237254003E+03  0.12344306184E+03 0.  0.
         35    2    3    3    0    0  0.12958202490E+03  0.41347776947E+02  0.12753911647E+04  0.15115580100E+04  0.79980238495E+03 0.  0.
         22    1    5    5    0    0 -0.66882038905E+02  0.37291712273E+03  0.88639153353E+03  0.96396594248E+03  0.00000000000E+00 0.  1.
         22    1    5    5    0    0  0.19646406381E+03 -0.33156934578E+03  0.38899963113E+03  0.54759206755E+03  0.00000000000E+00 0.  1.
          5    1    4    4  502    0 -0.15092261059E+03 -0.49496275737E+02  0.19773753097E+03  0.25367249921E+03  0.47000000000E+01 0. -1.
         -5    1    4    4    0  502  0.21340585692E+02  0.81484987894E+01  0.16726736470E+02  0.28700040821E+02  0.47000000000E+01 0. -1.
<mgrwt>
<rscale>  0 0.99925853E+03</rscale>
<asrwt>0</asrwt>
<pdfrwt beam="1">  1        1 0.25259891E+00 0.99925853E+03</pdfrwt>
<pdfrwt beam="2">  1       -1 0.23390395E-01 0.99925853E+03</pdfrwt>
<totfact> 0.87644775E+01</totfact>
</mgrwt>
</event>
<event>
 9    1  0.4307774E-036  0.9999091E+03  0.7818608E-02  0.8681124E-01
         -1   -1    0    0    0  501 -0.00000000000E+00  0.00000000000E+00  0.11763535658E+03  0.11763535658E+03  0.00000000000E+00 0. -1.
          1   -1    0    0  501    0  0.00000000000E+00 -0.00000000000E+00 -0.21248252556E+04  0.21248252556E+04  0.00000000000E+00 0. -1.
         36    2    1    2    0    0 -0.14210854715E-13  0.00000000000E+00 -0.20071898990E+04  0.22424606122E+04  0.99990914909E+03 0.  0.
         25    2    3    3    0    0 -0.76555305939E+02  0.12228720009E+03 -0.33094501009E+03  0.37945138693E+03  0.11680702533E+03 0.  0.
         35    2    3    3    0    0  0.76555305939E+02 -0.12228720009E+03 -0.16762448889E+04  0.18630092252E+04  0.80011972323E+03 0.  0.
         22    1    5    5    0    0  0.41709872271E+03 -0.60128782349E+02 -0.12170949723E+04  0.12879856313E+04  0.00000000000E+00 0.  1.
         22    1    5    5    0    0 -0.34054341677E+03 -0.62158417745E+02 -0.45914991667E+03  0.57502359393E+03  0.00000000000E+00 0.  1.
          5    1    4    4  502    0 -0.48823985182E+02 -0.50797621275E+01 -0.13807142914E+03  0.14661307942E+03  0.47000000000E+01 0. -1.
         -5    1    4    4    0  502 -0.27731320757E+02  0.12736696222E+03 -0.19287358096E+03  0.23283830752E+03  0.47000000000E+01 0. -1.
<mgrwt>
<rscale>  0 0.99990915E+03</rscale>
<asrwt>0</asrwt>
<pdfrwt beam="1">  1        1 0.32689620E+00 0.99990915E+03</pdfrwt>
<pdfrwt beam="2">  1       -1 0.18097747E-01 0.99990915E+03</pdfrwt>
<totfact> 0.61380297E+01</totfact>
</mgrwt>
</event>
<event>
 9    1  0.4307774E-036  0.9986226E+03  0.7818608E-02  0.8682351E-01
          1   -1    0    0  501    0  0.00000000000E+00  0.00000000000E+00  0.19817112380E+04  0.19817112380E+04  0.00000000000E+00 0.  1.
         -1   -1    0    0    0  501 -0.00000000000E+00 -0.00000000000E+00 -0.12580630046E+03  0.12580630046E+03  0.00000000000E+00 0.  1.
         36    2    1    2    0    0  0.71054273576E-14  0.00000000000E+00  0.18559049376E+04  0.21075175385E+04  0.99862257020E+03 0.  0.
         25    2    3    3    0    0 -0.32752605390E+02 -0.12917022403E+03  0.46752353442E+03  0.50180670046E+03  0.12439465200E+03 0.  0.
         35    2    3    3    0    0  0.32752605390E+02  0.12917022403E+03  0.13883814032E+04  0.16057108380E+04  0.79557947109E+03 0.  0.
         22    1    5    5    0    0  0.12046433525E+03 -0.80600536035E+02 -0.47047260539E+02  0.15238617785E+03  0.00000000000E+00 0. -1.
         22    1    5    5    0    0 -0.87711729861E+02  0.20977076006E+03  0.14354286637E+04  0.14533246602E+04  0.00000000000E+00 0. -1.
          5    1    4    4  502    0 -0.35268386031E+01 -0.46327429605E+02  0.29950197906E+02  0.55477686316E+02  0.47000000000E+01 0. -1.
         -5    1    4    4    0  502 -0.29225766787E+02 -0.82842794424E+02  0.43757333652E+03  0.44632901414E+03  0.47000000000E+01 0. -1.
<mgrwt>
<rscale>  0 0.99862257E+03</rscale>
<asrwt>0</asrwt>
<pdfrwt beam="1">  1        1 0.30487863E+00 0.99862257E+03</pdfrwt>
<pdfrwt beam="2">  1       -1 0.19354817E-01 0.99862257E+03</pdfrwt>
<totfact> 0.69257584E+01</totfact>
</mgrwt>
</event>
<event>
 9    1  0.4307774E-036  0.9965277E+03  0.7818608E-02  0.8684352E-01
          2   -1    0    0  501    0  0.00000000000E+00  0.00000000000E+00  0.38564044114E+03  0.38564044114E+03  0.00000000000E+00 0.  1.
         -2   -1    0    0    0  501 -0.00000000000E+00 -0.00000000000E+00 -0.64377809756E+03  0.64377809756E+03  0.00000000000E+00 0.  1.
         36    2    1    2    0    0  0.00000000000E+00 -0.42632564146E-13 -0.25813765642E+03  0.10294185387E+04  0.99652771068E+03 0.  0.
         25    2    3    3    0    0  0.83273588200E+02  0.64908938899E+02 -0.13706610043E+03  0.21381776572E+03  0.12563144594E+03 0.  0.
         35    2    3    3    0    0 -0.83273588200E+02 -0.64908938899E+02 -0.12107155599E+03  0.81560077298E+03  0.79962406065E+03 0.  0.
         22    1    5    5    0    0 -0.34507540646E+03  0.22457660087E+03 -0.10530824629E+03  0.42497236680E+03  0.00000000000E+00 0.  1.
         22    1    5    5    0    0  0.26180181826E+03 -0.28948553977E+03 -0.15763309698E+02  0.39062840618E+03  0.00000000000E+00 0.  1.
          5    1    4    4  502    0  0.95743947953E+02  0.75844730117E+02 -0.14909466490E+03  0.19279687694E+03  0.47000000000E+01 0. -1.
         -5    1    4    4    0  502 -0.12470359753E+02 -0.10935791218E+02  0.12028564470E+02  0.21020888780E+02  0.47000000000E+01 0. -1.
<mgrwt>
<rscale>  0 0.99652771E+03</rscale>
<asrwt>0</asrwt>
<pdfrwt beam="1">  1        2 0.59329299E-01 0.99652771E+03</pdfrwt>
<pdfrwt beam="2">  1       -2 0.99042784E-01 0.99652771E+03</pdfrwt>
<totfact> 0.83262558E+01</totfact>
</mgrwt>
</event>
<event>
 9    1  0.4307774E-036  0.1000299E+04  0.7818608E-02  0.8680753E-01
         -2   -1    0    0    0  501 -0.00000000000E+00  0.00000000000E+00  0.20301852981E+03  0.20301852981E+03  0.00000000000E+00 0.  1.
          2   -1    0    0  501    0  0.00000000000E+00 -0.00000000000E+00 -0.12321513804E+04  0.12321513804E+04  0.00000000000E+00 0.  1.
         36    2    1    2    0    0  0.00000000000E+00 -0.14210854715E-13 -0.10291328505E+04  0.14351699102E+04  0.10002990788E+04 0.  0.
         25    2    3    3    0    0 -0.10246826150E+03  0.79181003213E+02 -0.27417310386E+03  0.32774825242E+03  0.12441322359E+03 0.  0.
         35    2    3    3    0    0  0.10246826150E+03 -0.79181003213E+02 -0.75495974669E+03  0.11074216577E+04  0.79978067808E+03 0.  0.
         22    1    5    5    0    0 -0.10953315097E+03 -0.36969693024E+03 -0.17144933548E+03  0.42198128635E+03  0.00000000000E+00 0. -1.
         22    1    5    5    0    0  0.21200141247E+03  0.29051592703E+03 -0.58351041121E+03  0.68544037139E+03  0.00000000000E+00 0. -1.
          5    1    4    4  502    0 -0.82540154673E+01 -0.15675768089E+02 -0.12915988567E+03  0.13045391731E+03  0.47000000000E+01 0. -1.
         -5    1    4    4    0  502 -0.94214246028E+02  0.94856771302E+02 -0.14501321819E+03  0.19729433511E+03  0.47000000000E+01 0. -1.
<mgrwt>
<rscale>  0 0.10002991E+04</rscale>
<asrwt>0</asrwt>
<pdfrwt beam="1">  1        2 0.18956175E+00 0.10002991E+04</pdfrwt>
<pdfrwt beam="2">  1       -2 0.31233620E-01 0.10002991E+04</pdfrwt>
<totfact> 0.20737656E+02</totfact>
</mgrwt>
</event>
<event>
 9    1  0.4307774E-036  0.1000390E+04  0.7818608E-02  0.8680667E-01
          2   -1    0    0  501    0  0.00000000000E+00  0.00000000000E+00  0.25688295988E+04  0.25688295988E+04  0.00000000000E+00 0. -1.
         -2   -1    0    0    0  501 -0.00000000000E+00 -0.00000000000E+00 -0.97396468115E+02  0.97396468115E+02  0.00000000000E+00 0. -1.
         36    2    1    2    0    0 -0.28421709430E-13  0.71054273576E-14  0.24714331307E+04  0.26662260669E+04  0.10003897843E+04 0.  0.
         25    2    3    3    0    0  0.91485740855E+02 -0.23024017804E+02  0.74418026121E+03  0.76031864593E+03  0.12401788581E+03 0.  0.
         35    2    3    3    0    0 -0.91485740855E+02  0.23024017804E+02  0.17272528695E+04  0.19059074210E+04  0.80011303956E+03 0.  0.
         22    1    5    5    0    0 -0.37512909169E+03 -0.14205409311E+03  0.13376625987E+04  0.13965108051E+04  0.00000000000E+00 0. -1.
         22    1    5    5    0    0  0.28364335084E+03  0.16507811092E+03  0.38959027071E+03  0.50939661582E+03  0.00000000000E+00 0. -1.
          5    1    4    4  502    0  0.28138709959E+02  0.49014556599E+02  0.35260813746E+03  0.35713975186E+03  0.47000000000E+01 0. -1.
         -5    1    4    4    0  502  0.63347030896E+02 -0.72038574403E+02  0.39157212375E+03  0.40317889407E+03  0.47000000000E+01 0. -1.
<mgrwt>
<rscale>  0 0.10003898E+04</rscale>
<asrwt>0</asrwt>
<pdfrwt beam="1">  1        2 0.39520450E+00 0.10003898E+04</pdfrwt>
<pdfrwt beam="2">  1       -2 0.14984074E-01 0.10003898E+04</pdfrwt>
<totfact> 0.12660833E+02</totfact>
</mgrwt>
</event>
<event>
 9    1  0.4307774E-036  0.1000304E+04  0.7818608E-02  0.8680749E-01
         -2   -1    0    0    0  501 -0.00000000000E+00  0.00000000000E+00  0.20587138373E+03  0.20587138373E+03  0.00000000000E+00 0.  1.
          2   -1    0    0  501    0  0.00000000000E+00 -0.00000000000E+00 -0.12150887622E+04  0.12150887622E+04  0.00000000000E+00 0.  1.
         36    2    1    2    0    0  0.28421709430E-13 -0.14210854715E-13 -0.10092173784E+04  0.14209601459E+04  0.10003039635E+04 0.  0.
         25    2    3    3    0    0  0.13758920270E+03 -0.45772806591E+02 -0.16442953362E+03  0.25234286393E+03  0.12495563584E+03 0.  0.
         35    2    3    3    0    0 -0.13758920270E+03  0.45772806591E+02 -0.84478784482E+03  0.11686172820E+04  0.79433866232E+03 0.  0.
         22    1    5    5    0    0  0.30591918532E+02  0.13825432650E+03 -0.94261595143E+03  0.95319198285E+03  0.00000000000E+00 0. -1.
         22    1    5    5    0    0 -0.16818112123E+03 -0.92481519905E+02  0.97828106610E+02  0.21542529913E+03  0.00000000000E+00 0. -1.
          5    1    4    4  502    0  0.39607768896E+02 -0.17598939245E+02  0.14844101883E+02  0.46053614192E+02  0.47000000000E+01 0.  1.
         -5    1    4    4    0  502  0.97981433803E+02 -0.28173867346E+02 -0.17927363550E+03  0.20628924974E+03  0.47000000000E+01 0.  1.
<mgrwt>
<rscale>  0 0.10003040E+04</rscale>
<asrwt>0</asrwt>
<pdfrwt beam="1">  1        2 0.18693673E+00 0.10003040E+04</pdfrwt>
<pdfrwt beam="2">  1       -2 0.31672520E-01 0.10003040E+04</pdfrwt>
<totfact> 0.20685755E+02</totfact>
</mgrwt>
</event>
<event>
 9    1  0.4307774E-036  0.1000627E+04  0.7818608E-02  0.8680441E-01
          2   -1    0    0  501    0  0.00000000000E+00  0.00000000000E+00  0.20240475884E+04  0.20240475884E+04  0.00000000000E+00 0. -1.
         -2   -1    0    0    0  501 -0.00000000000E+00 -0.00000000000E+00 -0.12366972471E+03  0.12366972471E+03  0.00000000000E+00 0. -1.
         36    2    1    2    0    0 -0.35527136788E-14  0.00000000000E+00  0.19003778637E+04  0.21477173131E+04  0.10006266198E+04 0.  0.
         25    2    3    3    0    0  0.12391339320E+02  0.72751989653E+02  0.10790936446E+03  0.18339829810E+03  0.12862389948E+03 0.  0.
         35    2    3    3    0    0 -0.12391339320E+02 -0.72751989653E+02  0.17924684993E+04  0.19643190150E+04  0.80009966553E+03 0.  0.
         22    1    5    5    0    0 -0.12865863001E+03 -0.38525369689E+03  0.58866658765E+03  0.71519354405E+03  0.00000000000E+00 0. -1.
         22    1    5    5    0    0  0.11626729069E+03  0.31250170723E+03  0.12038019116E+04  0.12491254710E+04  0.00000000000E+00 0. -1.
          5    1    4    4  502    0 -0.26681574718E+02  0.49328974165E+01  0.10099671060E+03  0.10468364465E+03  0.47000000000E+01 0.  1.
         -5    1    4    4    0  502  0.39072914038E+02  0.67819092237E+02  0.69126538673E+01  0.78714653444E+02  0.47000000000E+01 0.  1.
<mgrwt>
<rscale>  0 0.10006266E+04</rscale>
<asrwt>0</asrwt>
<pdfrwt beam="1">  1        2 0.31139191E+00 0.10006266E+04</pdfrwt>
<pdfrwt beam="2">  1       -2 0.19026113E-01 0.10006266E+04</pdfrwt>
<totfact> 0.17702882E+02</totfact>
</mgrwt>
</event>
<event>
 9    1  0.4307774E-036  0.9999548E+03  0.7818608E-02  0.8681081E-01
          4   -1    0    0  501    0  0.00000000000E+00  0.00000000000E+00  0.75010207706E+03  0.75010207706E+03  0.00000000000E+00 0. -1.
         -4   -1    0    0    0  501 -0.00000000000E+00 -0.00000000000E+00 -0.33325784608E+03  0.33325784608E+03  0.00000000000E+00 0. -1.
         36    2    1    2    0    0  0.00000000000E+00  0.28421709430E-13  0.41684423098E+03  0.10833599231E+04  0.99995480407E+03 0.  0.
         25    2    3    3    0    0 -0.53273350067E+01 -0.13487294584E+03  0.51977279719E+02  0.19102542914E+03  0.12477974577E+03 0.  0.
         35    2    3    3    0    0  0.53273350067E+01  0.13487294584E+03  0.36486695126E+03  0.89233449400E+03  0.80306529314E+03 0.  0.
         22    1    5    5    0    0  0.50965179988E+02 -0.24083849228E+03 -0.12274524954E+03  0.27507639888E+03  0.00000000000E+00 0. -1.
         22    1    5    5    0    0 -0.45637844982E+02  0.37571143812E+03  0.48761220080E+03  0.61725809512E+03  0.00000000000E+00 0. -1.
          5    1    4    4  502    0 -0.45779138180E+02 -0.94556010572E+01  0.33886501989E+02  0.57926875463E+02  0.47000000000E+01 0.  1.
         -5    1    4    4    0  502  0.40451803174E+02 -0.12541734478E+03  0.18090777730E+02  0.13309855368E+03  0.47000000000E+01 0.  1.
<mgrwt>
<rscale>  0 0.99995480E+03</rscale>
<asrwt>0</asrwt>
<pdfrwt beam="1">  1        4 0.11540032E+00 0.99995480E+03</pdfrwt>
<pdfrwt beam="2">  1       -4 0.51270438E-01 0.99995480E+03</pdfrwt>
<totfact> 0.46422312E+00</totfact>
</mgrwt>
</event>
<event>
 9    1  0.4307774E-036  0.9926904E+03  0.7818608E-02  0.8688030E-01
         -1   -1    0    0    0  501 -0.00000000000E+00  0.00000000000E+00  0.33946899328E+03  0.33946899328E+03  0.00000000000E+00 0.  1.
          1   -1    0    0  501    0  0.00000000000E+00 -0.00000000000E+00 -0.72571739026E+03  0.72571739026E+03  0.00000000000E+00 0.  1.
         36    2    1    2    0    0  0.00000000000E+00  0.00000000000E+00 -0.38624839698E+03  0.10651863835E+04  0.99269038855E+03 0.  0.
         25    2    3    3    0    0 -0.66269049811E+02 -0.10689931480E+03 -0.40999496510E+02  0.18476431876E+03  0.12898776804E+03 0.  0.
         35    2    3    3    0    0  0.66269049811E+02  0.10689931480E+03 -0.34524890047E+03  0.88042206479E+03  0.80007947007E+03 0.  0.
         22    1    5    5    0    0  0.29847173409E+03  0.20577644400E+03  0.93383255549E+02  0.37436580155E+03  0.00000000000E+00 0. -1.
         22    1    5    5    0    0 -0.23220268428E+03 -0.98877129195E+02 -0.43863215602E+03  0.50605626323E+03  0.00000000000E+00 0. -1.
          5    1    4    4  502    0  0.20931047188E+02  0.16891942983E+02  0.17330241014E+01  0.27359456257E+02  0.47000000000E+01 0.  1.
         -5    1    4    4    0  502 -0.87200096999E+02 -0.12379125778E+03 -0.42732520611E+02  0.15740486250E+03  0.47000000000E+01 0.  1.
<mgrwt>
<rscale>  0 0.99269039E+03</rscale>
<asrwt>0</asrwt>
<pdfrwt beam="1">  1        1 0.11164883E+00 0.99269039E+03</pdfrwt>
<pdfrwt beam="2">  1       -1 0.52225999E-01 0.99269039E+03</pdfrwt>
<totfact> 0.10917586E+02</totfact>
</mgrwt>
</event>
<event>
 9    1  0.4307774E-036  0.1000492E+04  0.7818608E-02  0.8680569E-01
         -1   -1    0    0    0  501 -0.00000000000E+00  0.00000000000E+00  0.65939858777E+03  0.65939858777E+03  0.00000000000E+00 0. -1.
          1   -1    0    0  501    0  0.00000000000E+00 -0.00000000000E+00 -0.37950685529E+03  0.37950685529E+03  0.00000000000E+00 0. -1.
         36    2    1    2    0    0  0.00000000000E+00  0.00000000000E+00  0.27989173248E+03  0.10389054431E+04  0.10004924476E+04 0.  0.
         25    2    3    3    0    0 -0.11700196189E+03 -0.26257034473E+02 -0.34858848029E+02  0.17117322582E+03  0.11707366487E+03 0.  0.
         35    2    3    3    0    0  0.11700196189E+03  0.26257034473E+02  0.31475058051E+03  0.86773221725E+03  0.79969518066E+03 0.  0.
         22    1    5    5    0    0 -0.51033438007E+01 -0.38052868787E+03  0.18824453880E+03  0.42457523809E+03  0.00000000000E+00 0. -1.
         22    1    5    5    0    0  0.12210530569E+03  0.40678572235E+03  0.12650604171E+03  0.44315697915E+03  0.00000000000E+00 0. -1.
          5    1    4    4  502    0 -0.13394036160E+03 -0.33782091501E+02 -0.83222339557E+01  0.13846515717E+03  0.47000000000E+01 0. -1.
         -5    1    4    4    0  502  0.16938399715E+02  0.75250570279E+01 -0.26536614073E+02  0.32708068648E+02  0.47000000000E+01 0. -1.
<mgrwt>
<rscale>  0 0.10004924E+04</rscale>
<asrwt>0</asrwt>
<pdfrwt beam="1">  1        1 0.58385670E-01 0.10004924E+04</pdfrwt>
<pdfrwt beam="2">  1       -1 0.10144594E+00 0.10004924E+04</pdfrwt>
<totfact> 0.71135959E+01</totfact>
</mgrwt>
</event>
<event>
 9    1  0.4307774E-036  0.9993004E+03  0.7818608E-02  0.8681704E-01
          1   -1    0    0  501    0  0.00000000000E+00  0.00000000000E+00  0.76989247705E+03  0.76989247705E+03  0.00000000000E+00 0. -1.
         -1   -1    0    0    0  501 -0.00000000000E+00 -0.00000000000E+00 -0.32426650252E+03  0.32426650252E+03  0.00000000000E+00 0. -1.
         36    2    1    2    0    0  0.71054273576E-14  0.00000000000E+00  0.44562597453E+03  0.10941589796E+04  0.99930043700E+03 0.  0.
         25    2    3    3    0    0 -0.12939631733E+01 -0.13633153998E+03  0.77132122494E+02  0.20109027441E+03  0.12609508717E+03 0.  0.
         35    2    3    3    0    0  0.12939631733E+01  0.13633153998E+03  0.36849385204E+03  0.89306870515E+03  0.80199503116E+03 0.  0.
         22    1    5    5    0    0 -0.16419458894E+03 -0.60486382127E+02  0.55075367947E+03  0.57788241097E+03  0.00000000000E+00 0.  1.
         22    1    5    5    0    0  0.16548855212E+03  0.19681792210E+03 -0.18225982743E+03  0.31518629418E+03  0.00000000000E+00 0.  1.
          5    1    4    4  502    0 -0.56947508586E+02 -0.67651012560E+02  0.82744923292E+01  0.88939504484E+02  0.47000000000E+01 0. -1.
         -5    1    4    4    0  502  0.55653545413E+02 -0.68680527417E+02  0.68857630165E+02  0.11215076993E+03  0.47000000000E+01 0. -1.
<mgrwt>
<rscale>  0 0.99930044E+03</rscale>
<asrwt>0</asrwt>
<pdfrwt beam="1">  1        1 0.11844500E+00 0.99930044E+03</pdfrwt>
<pdfrwt beam="2">  1       -1 0.49887155E-01 0.99930044E+03</pdfrwt>
<totfact> 0.10821793E+02</totfact>
</mgrwt>
</event>
<event>
 9    1  0.4307774E-036  0.9991246E+03  0.7818608E-02  0.8681872E-01
         -2   -1    0    0    0  501 -0.00000000000E+00  0.00000000000E+00  0.49385509735E+03  0.49385509735E+03  0.00000000000E+00 0.  1.
          2   -1    0    0  501    0  0.00000000000E+00 -0.00000000000E+00 -0.50533542176E+03  0.50533542176E+03  0.00000000000E+00 0.  1.
         36    2    1    2    0    0 -0.71054273576E-14  0.14210854715E-13 -0.11480324406E+02  0.99919051911E+03  0.99912456462E+03 0.  0.
         25    2    3    3    0    0  0.15080224568E+02  0.67201302332E+02  0.11854032668E+03  0.18583333706E+03  0.12545434191E+03 0.  0.
         35    2    3    3    0    0 -0.15080224568E+02 -0.67201302332E+02 -0.13002065109E+03  0.81335718205E+03  0.79993818991E+03 0.  0.
         22    1    5    5    0    0  0.63510933831E+02  0.86587796013E+02  0.31670194970E+03  0.33441173735E+03  0.00000000000E+00 0.  1.
         22    1    5    5    0    0 -0.78591158400E+02 -0.15378909834E+03 -0.44672260078E+03  0.47894544470E+03  0.00000000000E+00 0.  1.
          5    1    4    4  502    0  0.48835601844E+02 -0.30064475798E+01  0.90350594896E+02  0.10285560137E+03  0.47000000000E+01 0. -1.
         -5    1    4    4    0  502 -0.33755377276E+02  0.70207749911E+02  0.28189731786E+02  0.82977735694E+02  0.47000000000E+01 0. -1.
<mgrwt>
<rscale>  0 0.99912456E+03</rscale>
<asrwt>0</asrwt>
<pdfrwt beam="1">  1        2 0.77743912E-01 0.99912456E+03</pdfrwt>
<pdfrwt beam="2">  1       -2 0.75977707E-01 0.99912456E+03</pdfrwt>
<totfact> 0.11395441E+02</totfact>
</mgrwt>
</event>
<event>
 9    1  0.4307774E-036  0.1000105E+04  0.7818608E-02  0.8680938E-01
         -1   -1    0    0    0  501 -0.00000000000E+00  0.00000000000E+00  0.22053310319E+03  0.22053310319E+03  0.00000000000E+00 0.  1.
          1   -1    0    0  501    0  0.00000000000E+00 -0.00000000000E+00 -0.11338537661E+04  0.11338537661E+04  0.00000000000E+00 0.  1.
         36    2    1    2    0    0  0.14210854715E-13  0.00000000000E+00 -0.91332066296E+03  0.13543868693E+04  0.10001045738E+04 0.  0.
         25    2    3    3    0    0  0.11054592665E+03  0.33592805316E+02 -0.61473882017E+02  0.18017305367E+03  0.12383219545E+03 0.  0.
         35    2    3    3    0    0 -0.11054592665E+03 -0.33592805316E+02 -0.85184678094E+03  0.11742138157E+04  0.79986640649E+03 0.  0.
         22    1    5    5    0    0  0.29096488287E+03 -0.55829954485E+02 -0.67059488350E+03  0.73312689533E+03  0.00000000000E+00 0.  1.
         22    1    5    5    0    0 -0.40151080952E+03  0.22237149169E+02 -0.18125189744E+03  0.44108692033E+03  0.00000000000E+00 0.  1.
          5    1    4    4  502    0  0.20603510062E+02 -0.24215067285E+02  0.26483299893E+02  0.41645279249E+02  0.47000000000E+01 0. -1.
         -5    1    4    4    0  502  0.89942416591E+02  0.57807872601E+02 -0.87957181910E+02  0.13852777442E+03  0.47000000000E+01 0. -1.
<mgrwt>
<rscale>  0 0.10001046E+04</rscale>
<asrwt>0</asrwt>
<pdfrwt beam="1">  1        1 0.17443904E+00 0.10001046E+04</pdfrwt>
<pdfrwt beam="2">  1       -1 0.33928170E-01 0.10001046E+04</pdfrwt>
<totfact> 0.10869771E+02</totfact>
</mgrwt>
</event>
<event>
 9    1  0.4307774E-036  0.1002388E+04  0.7818608E-02  0.8678767E-01
         -2   -1    0    0    0  501 -0.00000000000E+00  0.00000000000E+00  0.25898483278E+03  0.25898483278E+03  0.00000000000E+00 0. -1.
          2   -1    0    0  501    0  0.00000000000E+00 -0.00000000000E+00 -0.96992346959E+03  0.96992346959E+03  0.00000000000E+00 0. -1.
         36    2    1    2    0    0  0.00000000000E+00  0.28421709430E-13 -0.71093863682E+03  0.12289083024E+04  0.10023880837E+04 0.  0.
         25    2    3    3    0    0  0.54875557587E+02  0.12464130737E+03 -0.84437216081E+02  0.20351141497E+03  0.12546103076E+03 0.  0.
         35    2    3    3    0    0 -0.54875557587E+02 -0.12464130737E+03 -0.62650142073E+03  0.10253968874E+04  0.80024244089E+03 0.  0.
         22    1    5    5    0    0  0.26079796668E+03 -0.30900282214E+03 -0.48972235749E+03  0.63507976738E+03  0.00000000000E+00 0. -1.
         22    1    5    5    0    0 -0.31567352426E+03  0.18436151476E+03 -0.13677906325E+03  0.39031712003E+03  0.00000000000E+00 0. -1.
          5    1    4    4  502    0  0.53084775626E+02  0.14291298190E+03 -0.97015636422E+02  0.18076569782E+03  0.47000000000E+01 0.  1.
         -5    1    4    4    0  502  0.17907819612E+01 -0.18271674528E+02  0.12578420341E+02  0.22745717144E+02  0.47000000000E+01 0.  1.
<mgrwt>
<rscale>  0 0.10023881E+04</rscale>
<asrwt>0</asrwt>
<pdfrwt beam="1">  1        2 0.14921899E+00 0.10023881E+04</pdfrwt>
<pdfrwt beam="2">  1       -2 0.39843821E-01 0.10023881E+04</pdfrwt>
<totfact> 0.18987050E+02</totfact>
</mgrwt>
</event>
<event>
 9    1  0.4307774E-036  0.1000458E+04  0.7818608E-02  0.8680602E-01
         -1   -1    0    0    0  501 -0.00000000000E+00  0.00000000000E+00  0.29790294188E+03  0.29790294188E+03  0.00000000000E+00 0. -1.
          1   -1    0    0  501    0  0.00000000000E+00 -0.00000000000E+00 -0.83996858920E+03  0.83996858920E+03  0.00000000000E+00 0. -1.
         36    2    1    2    0    0  0.71054273576E-14 -0.14210854715E-13 -0.54206564732E+03  0.11378715311E+04  0.10004581227E+04 0.  0.
         25    2    3    3    0    0  0.19581027288E+02 -0.91200718393E+02 -0.22076238675E+03  0.26990404142E+03  0.12414174360E+03 0.  0.
         35    2    3    3    0    0 -0.19581027288E+02  0.91200718393E+02 -0.32130326057E+03  0.86796748966E+03  0.80089374463E+03 0.  0.
         22    1    5    5    0    0  0.10864179482E+03  0.15694784453E+03  0.22956990272E+03  0.29855988632E+03  0.00000000000E+00 0.  1.
         22    1    5    5    0    0 -0.12822282211E+03 -0.65747126140E+02 -0.55087316329E+03  0.56940760334E+03  0.00000000000E+00 0.  1.
          5    1    4    4  502    0  0.56757462896E+02 -0.60556036458E+02 -0.61385270333E+02  0.10333772089E+03  0.47000000000E+01 0. -1.
         -5    1    4    4    0  502 -0.37176435608E+02 -0.30644681935E+02 -0.15937711641E+03  0.16656632052E+03  0.47000000000E+01 0. -1.
<mgrwt>
<rscale>  0 0.10004581E+04</rscale>
<asrwt>0</asrwt>
<pdfrwt beam="1">  1        1 0.12922594E+00 0.10004581E+04</pdfrwt>
<pdfrwt beam="2">  1       -1 0.45831222E-01 0.10004581E+04</pdfrwt>
<totfact> 0.10966134E+02</totfact>
</mgrwt>
</event>
<event>
 9    1  0.4307774E-036  0.1000011E+04  0.7818608E-02  0.8681028E-01
          1   -1    0    0  501    0  0.00000000000E+00  0.00000000000E+00  0.20641108972E+04  0.20641108972E+04  0.00000000000E+00 0.  1.
         -1   -1    0    0    0  501 -0.00000000000E+00 -0.00000000000E+00 -0.12112011256E+03  0.12112011256E+03  0.00000000000E+00 0.  1.
         36    2    1    2    0    0  0.44408920985E-13  0.00000000000E+00  0.19429907847E+04  0.21852310098E+04  0.10000106884E+04 0.  0.
         25    2    3    3    0    0  0.12204634086E+02 -0.13259265459E+03  0.27208597491E+03  0.32777797849E+03  0.12521126265E+03 0.  0.
         35    2    3    3    0    0 -0.12204634086E+02  0.13259265459E+03  0.16709048098E+04  0.18574530313E+04  0.80029939090E+03 0.  0.
         22    1    5    5    0    0 -0.37338325219E+03  0.22683990384E+03  0.94992801531E+03  0.10455786098E+04  0.00000000000E+00 0. -1.
         22    1    5    5    0    0  0.36117861810E+03 -0.94247249253E+02  0.72097679447E+03  0.81187442153E+03  0.00000000000E+00 0. -1.
          5    1    4    4  502    0  0.56298779707E+01 -0.58935606305E+02  0.16459977600E+02  0.61628906198E+02  0.47000000000E+01 0.  1.
         -5    1    4    4    0  502  0.65747561154E+01 -0.73657048284E+02  0.25562599731E+03  0.26614907229E+03  0.47000000000E+01 0.  1.
<mgrwt>
<rscale>  0 0.10000107E+04</rscale>
<asrwt>0</asrwt>
<pdfrwt beam="1">  1        1 0.31755550E+00 0.10000107E+04</pdfrwt>
<pdfrwt beam="2">  1       -1 0.18633865E-01 0.10000107E+04</pdfrwt>
<totfact> 0.64535082E+01</totfact>
</mgrwt>
</event>
<event>
 9    1  0.4307774E-036  0.1000370E+04  0.7818608E-02  0.8680685E-01
         -2   -1    0    0    0  501 -0.00000000000E+00  0.00000000000E+00  0.10210357839E+03  0.10210357839E+03  0.00000000000E+00 0. -1.
          2   -1    0    0  501    0  0.00000000000E+00 -0.00000000000E+00 -0.24503079522E+04  0.24503079522E+04  0.00000000000E+00 0. -1.
         36    2    1    2    0    0  0.00000000000E+00  0.00000000000E+00 -0.23482043738E+04  0.25524115306E+04  0.10003703516E+04 0.  0.
         25    2    3    3    0    0  0.50695420386E+02  0.50819855500E+02 -0.13859937702E+03  0.19998506474E+03  0.12502621905E+03 0.  0.
         35    2    3    3    0    0 -0.50695420386E+02 -0.50819855500E+02 -0.22096049968E+04  0.23524264658E+04  0.80399213430E+03 0.  0.
         22    1    5    5    0    0 -0.14601727235E+03  0.35299001713E+03 -0.87333624953E+03  0.95322568197E+03  0.00000000000E+00 0.  1.
         22    1    5    5    0    0  0.95321851969E+02 -0.40380987263E+03 -0.13362687473E+04  0.13992007839E+04  0.00000000000E+00 0.  1.
          5    1    4    4  502    0  0.84214072941E+02  0.62774564402E+02 -0.83686441729E+02  0.13438067773E+03  0.47000000000E+01 0.  1.
         -5    1    4    4    0  502 -0.33518652556E+02 -0.11954708902E+02 -0.54912935287E+02  0.65604387017E+02  0.47000000000E+01 0.  1.
<mgrwt>
<rscale>  0 0.10003704E+04</rscale>
<asrwt>0</asrwt>
<pdfrwt beam="1">  1        2 0.37697047E+00 0.10003704E+04</pdfrwt>
<pdfrwt beam="2">  1       -2 0.15708242E-01 0.10003704E+04</pdfrwt>
<totfact> 0.13811830E+02</totfact>
</mgrwt>
</event>
<event>
 9    1  0.4307774E-036  0.9998297E+03  0.7818608E-02  0.8681200E-01
         -2   -1    0    0    0  501 -0.00000000000E+00  0.00000000000E+00  0.12784778332E+03  0.12784778332E+03  0.00000000000E+00 0.  1.
          2   -1    0    0  501    0  0.00000000000E+00 -0.00000000000E+00 -0.19547842589E+04  0.19547842589E+04  0.00000000000E+00 0.  1.
         36    2    1    2    0    0  0.00000000000E+00  0.14210854715E-13 -0.18269364756E+04  0.20826320422E+04  0.99982965423E+03 0.  0.
         25    2    3    3    0    0 -0.68795843382E+02 -0.54189267763E+02 -0.57315079469E+03  0.59292529625E+03  0.12405332994E+03 0.  0.
         35    2    3    3    0    0  0.68795843382E+02  0.54189267763E+02 -0.12537856809E+04  0.14897067460E+04  0.79973640069E+03 0.  0.
         22    1    5    5    0    0 -0.14275019519E+03 -0.11121752368E+03  0.25313643429E+02  0.18272311388E+03  0.00000000000E+00 0. -1.
         22    1    5    5    0    0  0.21154603858E+03  0.16540679144E+03 -0.12790993243E+04  0.13069836321E+04  0.00000000000E+00 0. -1.
          5    1    4    4  502    0 -0.46394032053E+02 -0.89060021352E+02 -0.48623546782E+03  0.49651899639E+03  0.47000000000E+01 0. -1.
         -5    1    4    4    0  502 -0.22401811329E+02  0.34870753589E+02 -0.86915326876E+02  0.96406299860E+02  0.47000000000E+01 0. -1.
<mgrwt>
<rscale>  0 0.99982965E+03</rscale>
<asrwt>0</asrwt>
<pdfrwt beam="1">  1        2 0.30073600E+00 0.99982965E+03</pdfrwt>
<pdfrwt beam="2">  1       -2 0.19668892E-01 0.99982965E+03</pdfrwt>
<totfact> 0.18306430E+02</totfact>
</mgrwt>
</event>
<event>
 9    1  0.4307774E-036  0.1000160E+04  0.7818608E-02  0.8680886E-01
         -2   -1    0    0    0  501 -0.00000000000E+00  0.00000000000E+00  0.12440680829E+04  0.12440680829E+04  0.00000000000E+00 0.  1.
          2   -1    0    0  501    0  0.00000000000E+00 -0.00000000000E+00 -0.20101793655E+03  0.20101793655E+03  0.00000000000E+00 0.  1.
         36    2    1    2    0    0  0.00000000000E+00 -0.14210854715E-13  0.10430501463E+04  0.14450860194E+04  0.10001599851E+04 0.  0.
         25    2    3    3    0    0 -0.13904344902E+03  0.82342654271E+01  0.22273601120E+03  0.29087024378E+03  0.12487307230E+03 0.  0.
         35    2    3    3    0    0  0.13904344902E+03 -0.82342654271E+01  0.82031413511E+03  0.11542157756E+04  0.79993618035E+03 0.  0.
         22    1    5    5    0    0 -0.18623250976E+03  0.94717178803E+02 -0.53907303636E+02  0.21577740622E+03  0.00000000000E+00 0. -1.
         22    1    5    5    0    0  0.32527595878E+03 -0.10295144423E+03  0.87422143875E+03  0.93843836942E+03  0.00000000000E+00 0. -1.
          5    1    4    4  502    0 -0.12573197572E+03 -0.23161852609E+02  0.22225191855E+03  0.25644298866E+03  0.47000000000E+01 0. -1.
         -5    1    4    4    0  502 -0.13311473297E+02  0.31396118036E+02  0.48409265433E+00  0.34427255115E+02  0.47000000000E+01 0. -1.
<mgrwt>
<rscale>  0 0.10001600E+04</rscale>
<asrwt>0</asrwt>
<pdfrwt beam="1">  1        2 0.30925837E-01 0.10001600E+04</pdfrwt>
<pdfrwt beam="2">  1       -2 0.19139508E+00 0.10001600E+04</pdfrwt>
<totfact> 0.28576198E+01</totfact>
</mgrwt>
</event>
<event>
 9    1  0.4307774E-036  0.1000121E+04  0.7818608E-02  0.8680923E-01
         -1   -1    0    0    0  501 -0.00000000000E+00  0.00000000000E+00  0.12686754689E+03  0.12686754689E+03  0.00000000000E+00 0.  1.
          1   -1    0    0  501    0  0.00000000000E+00 -0.00000000000E+00 -0.19710366853E+04  0.19710366853E+04  0.00000000000E+00 0.  1.
         36    2    1    2    0    0  0.14210854715E-13  0.00000000000E+00 -0.18441691384E+04  0.20979042322E+04  0.10001211708E+04 0.  0.
         25    2    3    3    0    0  0.42536404051E+02  0.11955971270E+03 -0.47114436685E+03  0.50367319182E+03  0.12492317311E+03 0.  0.
         35    2    3    3    0    0 -0.42536404051E+02 -0.11955971270E+03 -0.13730247716E+04  0.15942310404E+04  0.80016980457E+03 0.  0.
         22    1    5    5    0    0 -0.27867740017E+03  0.56499377755E+02 -0.12271921489E+03  0.30969869027E+03  0.00000000000E+00 0. -1.
         22    1    5    5    0    0  0.23614099612E+03 -0.17605909046E+03 -0.12503055567E+04  0.12845323501E+04  0.00000000000E+00 0. -1.
          5    1    4    4  502    0  0.46843101345E+02  0.69871690692E+02 -0.10743907851E+03  0.13653415285E+03  0.47000000000E+01 0. -1.
         -5    1    4    4    0  502 -0.43066972934E+01  0.49688022011E+02 -0.36370528834E+03  0.36713903897E+03  0.47000000000E+01 0. -1.
<mgrwt>
<rscale>  0 0.10001212E+04</rscale>
<asrwt>0</asrwt>
<pdfrwt beam="1">  1        1 0.30323638E+00 0.10001212E+04</pdfrwt>
<pdfrwt beam="2">  1       -1 0.19518086E-01 0.10001212E+04</pdfrwt>
<totfact> 0.69484957E+01</totfact>
</mgrwt>
</event>
<event>
 9    1  0.4307774E-036  0.1008058E+04  0.7818608E-02  0.8673402E-01
         -2   -1    0    0    0  501 -0.00000000000E+00  0.00000000000E+00  0.33966146105E+03  0.33966146105E+03  0.00000000000E+00 0.  1.
          2   -1    0    0  501    0  0.00000000000E+00 -0.00000000000E+00 -0.74793672571E+03  0.74793672571E+03  0.00000000000E+00 0.  1.
         36    2    1    2    0    0  0.00000000000E+00  0.28421709430E-13 -0.40827526466E+03  0.10875981868E+04  0.10080580956E+04 0.  0.
         25    2    3    3    0    0 -0.66282339799E+02 -0.94142480113E+02 -0.18002043012E+03  0.24762570077E+03  0.12511985171E+03 0.  0.
         35    2    3    3    0    0  0.66282339799E+02  0.94142480113E+02 -0.22825483454E+03  0.83997248598E+03  0.80012333586E+03 0.  0.
         22    1    5    5    0    0 -0.16512617137E+03 -0.30071186258E+03 -0.41110469309E+02  0.34552040092E+03  0.00000000000E+00 0.  1.
         22    1    5    5    0    0  0.23140851117E+03  0.39485434269E+03 -0.18714436523E+03  0.49445208506E+03  0.00000000000E+00 0.  1.
          5    1    4    4  502    0 -0.44868190529E+02 -0.86525595543E+02 -0.39615299158E+02  0.10531521795E+03  0.47000000000E+01 0. -1.
         -5    1    4    4    0  502 -0.21414149269E+02 -0.76168845700E+01 -0.14040513096E+03  0.14231048282E+03  0.47000000000E+01 0. -1.
<mgrwt>
<rscale>  0 0.10080581E+04</rscale>
<asrwt>0</asrwt>
<pdfrwt beam="1">  1        2 0.11506719E+00 0.10080581E+04</pdfrwt>
<pdfrwt beam="2">  1       -2 0.52255610E-01 0.10080581E+04</pdfrwt>
<totfact> 0.15753032E+02</totfact>
</mgrwt>
</event>
<event>
 9    1  0.4307774E-036  0.1000618E+04  0.7818608E-02  0.8680450E-01
         -1   -1    0    0    0  501 -0.00000000000E+00  0.00000000000E+00  0.66329602925E+03  0.66329602925E+03  0.00000000000E+00 0.  1.
          1   -1    0    0  501    0  0.00000000000E+00 -0.00000000000E+00 -0.37737160764E+03  0.37737160764E+03  0.00000000000E+00 0.  1.
         36    2    1    2    0    0 -0.71054273576E-14  0.14210854715E-13  0.28592442161E+03  0.10406676369E+04  0.10006179869E+04 0.  0.
         25    2    3    3    0    0 -0.22096500566E+02  0.51614046915E+02  0.20664250939E+03  0.24793164297E+03  0.12496682648E+03 0.  0.
         35    2    3    3    0    0  0.22096500566E+02 -0.51614046915E+02  0.79281912220E+02  0.79273599393E+03  0.78676074463E+03 0.  0.
         22    1    5    5    0    0  0.26466363137E+03 -0.12153722131E+03 -0.24583338110E+03  0.38111964682E+03  0.00000000000E+00 0.  1.
         22    1    5    5    0    0 -0.24256713080E+03  0.69923174395E+02  0.32511529332E+03  0.41161634711E+03  0.00000000000E+00 0.  1.
          5    1    4    4  502    0  0.42437316767E+02  0.45912192792E+02  0.56735572894E+02  0.84556907069E+02  0.47000000000E+01 0.  1.
         -5    1    4    4    0  502 -0.64533817334E+02  0.57018541229E+01  0.14990693649E+03  0.16337473590E+03  0.47000000000E+01 0.  1.
<mgrwt>
<rscale>  0 0.10006180E+04</rscale>
<asrwt>0</asrwt>
<pdfrwt beam="1">  1        1 0.58057170E-01 0.10006180E+04</pdfrwt>
<pdfrwt beam="2">  1       -1 0.10204554E+00 0.10006180E+04</pdfrwt>
<totfact> 0.70721772E+01</totfact>
</mgrwt>
</event>
<event>
 9    1  0.4307774E-036  0.1001593E+04  0.7818608E-02  0.8679522E-01
          1   -1    0    0  501    0  0.00000000000E+00  0.00000000000E+00  0.27751597899E+04  0.27751597899E+04  0.00000000000E+00 0. -1.
         -1   -1    0    0    0  501 -0.00000000000E+00 -0.00000000000E+00 -0.90372186101E+02  0.90372186101E+02  0.00000000000E+00 0. -1.
         36    2    1    2    0    0 -0.28421709430E-13  0.00000000000E+00  0.26847876038E+04  0.28655319760E+04  0.10015932448E+04 0.  0.
         25    2    3    3    0    0  0.47392894420E+02  0.52733948857E+02  0.85902881659E+03  0.87101193308E+03  0.12531689442E+03 0.  0.
         35    2    3    3    0    0 -0.47392894420E+02 -0.52733948857E+02  0.18257587872E+04  0.19945200429E+04  0.79980503671E+03 0.  0.
         22    1    5    5    0    0 -0.37596088844E+03 -0.18703234865E+03  0.12446865727E+04  0.13136104268E+04  0.00000000000E+00 0.  1.
         22    1    5    5    0    0  0.32856799402E+03  0.13429839980E+03  0.58107221450E+03  0.68090961613E+03  0.00000000000E+00 0.  1.
          5    1    4    4  502    0  0.12749621697E+02 -0.40384534830E+02  0.32710054865E+03  0.32986409692E+03  0.47000000000E+01 0. -1.
         -5    1    4    4    0  502  0.34643272724E+02  0.93118483687E+02  0.53192826794E+03  0.54114783616E+03  0.47000000000E+01 0. -1.
<mgrwt>
<rscale>  0 0.10015932E+04</rscale>
<asrwt>0</asrwt>
<pdfrwt beam="1">  1        1 0.42694759E+00 0.10015932E+04</pdfrwt>
<pdfrwt beam="2">  1       -1 0.13903415E-01 0.10015932E+04</pdfrwt>
<totfact> 0.32827235E+01</totfact>
</mgrwt>
</event>
<event>
 9    1  0.4307774E-036  0.9998869E+03  0.7818608E-02  0.8681146E-01
         -3   -1    0    0    0  501 -0.00000000000E+00  0.00000000000E+00  0.40868817245E+03  0.40868817245E+03  0.00000000000E+00 0. -1.
          3   -1    0    0  501    0  0.00000000000E+00 -0.00000000000E+00 -0.61157492477E+03  0.61157492477E+03  0.00000000000E+00 0. -1.
         36    2    1    2    0    0  0.35527136788E-14  0.35527136788E-13 -0.20288675232E+03  0.10202630972E+04  0.99988687024E+03 0.  0.
         25    2    3    3    0    0  0.19871912469E+02 -0.34170439663E+02 -0.18419878756E+03  0.21845432732E+03  0.11059198856E+03 0.  0.
         35    2    3    3    0    0 -0.19871912469E+02  0.34170439663E+02 -0.18687964753E+02  0.80180876990E+03  0.80061573280E+03 0.  0.
         22    1    5    5    0    0  0.54107291043E+02  0.32422662218E+03  0.23933566818E+03  0.40661045674E+03  0.00000000000E+00 0.  1.
         22    1    5    5    0    0 -0.73979203512E+02 -0.29005618251E+03 -0.25802363293E+03  0.39519831315E+03  0.00000000000E+00 0.  1.
          5    1    4    4  502    0 -0.25794960428E+02 -0.31948139493E+02 -0.16383361459E+02  0.44458611463E+02  0.47000000000E+01 0.  1.
         -5    1    4    4    0  502  0.45666872897E+02 -0.22223001697E+01 -0.16781542610E+03  0.17399571586E+03  0.47000000000E+01 0.  1.
<mgrwt>
<rscale>  0 0.99988687E+03</rscale>
<asrwt>0</asrwt>
<pdfrwt beam="1">  1        3 0.94088450E-01 0.99988687E+03</pdfrwt>
<pdfrwt beam="2">  1       -3 0.62875103E-01 0.99988687E+03</pdfrwt>
<totfact> 0.10163488E+01</totfact>
</mgrwt>
</event>
<event>
 9    1  0.4307774E-036  0.9999495E+03  0.7818608E-02  0.8681086E-01
          2   -1    0    0  501    0  0.00000000000E+00  0.00000000000E+00  0.14530921072E+04  0.14530921072E+04  0.00000000000E+00 0. -1.
         -2   -1    0    0    0  501 -0.00000000000E+00 -0.00000000000E+00 -0.17202954237E+03  0.17202954237E+03  0.00000000000E+00 0. -1.
         36    2    1    2    0    0 -0.71054273576E-14  0.00000000000E+00  0.12810625648E+04  0.16251216496E+04  0.99994953919E+03 0.  0.
         25    2    3    3    0    0  0.18703590256E+02 -0.14668647497E+03  0.28593034711E+03  0.34522945449E+03  0.12474159940E+03 0.  0.
         35    2    3    3    0    0 -0.18703590256E+02  0.14668647497E+03  0.99513221774E+03  0.12798921951E+04  0.79118212448E+03 0.  0.
         22    1    5    5    0    0  0.55802662080E+02  0.45789400047E+03  0.43090464325E+03  0.63123661518E+03  0.00000000000E+00 0.  1.
         22    1    5    5    0    0 -0.74506252336E+02 -0.31120752551E+03  0.56422757449E+03  0.64865557993E+03  0.00000000000E+00 0.  1.
          5    1    4    4  502    0 -0.87650728305E+01 -0.57862452045E+02  0.22832998229E+03  0.23575741912E+03  0.47000000000E+01 0. -1.
         -5    1    4    4    0  502  0.27468663087E+02 -0.88824022922E+02  0.57600364820E+02  0.10947203537E+03  0.47000000000E+01 0. -1.
<mgrwt>
<rscale>  0 0.99994954E+03</rscale>
<asrwt>0</asrwt>
<pdfrwt beam="1">  1        2 0.22355262E+00 0.99994954E+03</pdfrwt>
<pdfrwt beam="2">  1       -2 0.26466084E-01 0.99994954E+03</pdfrwt>
<totfact> 0.20876546E+02</totfact>
</mgrwt>
</event>
<event>
 9    1  0.4307774E-036  0.9951168E+03  0.7818608E-02  0.8685702E-01
          2   -1    0    0  501    0  0.00000000000E+00  0.00000000000E+00  0.54914826252E+03  0.54914826252E+03  0.00000000000E+00 0.  1.
         -2   -1    0    0    0  501 -0.00000000000E+00 -0.00000000000E+00 -0.45081515453E+03  0.45081515453E+03  0.00000000000E+00 0.  1.
         36    2    1    2    0    0  0.00000000000E+00  0.00000000000E+00  0.98333107990E+02  0.99996341706E+03  0.99511679481E+03 0.  0.
         25    2    3    3    0    0 -0.36700937396E+02 -0.89798594620E+02 -0.78906813888E+02  0.17502563096E+03  0.12246199334E+03 0.  0.
         35    2    3    3    0    0  0.36700937396E+02  0.89798594620E+02  0.17723992188E+03  0.82493778610E+03  0.79981098681E+03 0.  0.
         22    1    5    5    0    0 -0.20826434157E+02 -0.16822484608E+03  0.42813728713E+03  0.46047244850E+03  0.00000000000E+00 0.  1.
         22    1    5    5    0    0  0.57527371553E+02  0.25802344070E+03 -0.25089736525E+03  0.36446533760E+03  0.00000000000E+00 0.  1.
          5    1    4    4  502    0  0.23759243996E+02 -0.75723170482E+02 -0.79966680271E+02  0.11276196246E+03  0.47000000000E+01 0. -1.
         -5    1    4    4    0  502 -0.60460181391E+02 -0.14075424138E+02  0.10598663829E+01  0.62263668502E+02  0.47000000000E+01 0. -1.
<mgrwt>
<rscale>  0 0.99511679E+03</rscale>
<asrwt>0</asrwt>
<pdfrwt beam="1">  1        2 0.84484348E-01 0.99511679E+03</pdfrwt>
<pdfrwt beam="2">  1       -2 0.69356178E-01 0.99511679E+03</pdfrwt>
<totfact> 0.12653364E+02</totfact>
</mgrwt>
</event>
<event>
 9    1  0.4307774E-036  0.9993386E+03  0.7818608E-02  0.8681668E-01
          1   -1    0    0  501    0  0.00000000000E+00  0.00000000000E+00  0.22105666278E+04  0.22105666278E+04  0.00000000000E+00 0. -1.
         -1   -1    0    0    0  501 -0.00000000000E+00 -0.00000000000E+00 -0.11294363091E+03  0.11294363091E+03  0.00000000000E+00 0. -1.
         36    2    1    2    0    0  0.24868995752E-13  0.14210854715E-13  0.20976229969E+04  0.23235102587E+04  0.99933862393E+03 0.  0.
         25    2    3    3    0    0 -0.16546767571E+01 -0.11069864220E+03  0.59314783865E+03  0.61613724140E+03  0.12467483473E+03 0.  0.
         35    2    3    3    0    0  0.16546767571E+01  0.11069864220E+03  0.15044751582E+04  0.17073730173E+04  0.79963753735E+03 0.  0.
         22    1    5    5    0    0 -0.21194508804E+03  0.78235040178E+02  0.42956112769E+02  0.22997101878E+03  0.00000000000E+00 0.  1.
         22    1    5    5    0    0  0.21359976480E+03  0.32463602023E+02  0.14615190455E+04  0.14774019985E+04  0.00000000000E+00 0.  1.
          5    1    4    4  502    0  0.99025205344E+01  0.17227120757E+02  0.23017479059E+03  0.23107868319E+03  0.47000000000E+01 0.  1.
         -5    1    4    4    0  502 -0.11557197292E+02 -0.12792576296E+03  0.36297304806E+03  0.38505855822E+03  0.47000000000E+01 0.  1.
<mgrwt>
<rscale>  0 0.99933862E+03</rscale>
<asrwt>0</asrwt>
<pdfrwt beam="1">  1        1 0.34008714E+00 0.99933862E+03</pdfrwt>
<pdfrwt beam="2">  1       -1 0.17375945E-01 0.99933862E+03</pdfrwt>
<totfact> 0.57117389E+01</totfact>
</mgrwt>
</event>
<event>
 9    1  0.4307774E-036  0.1000638E+04  0.7818608E-02  0.8680430E-01
          2   -1    0    0  501    0  0.00000000000E+00  0.00000000000E+00  0.61131278837E+03  0.61131278837E+03  0.00000000000E+00 0. -1.
         -2   -1    0    0    0  501 -0.00000000000E+00 -0.00000000000E+00 -0.40947816516E+03  0.40947816516E+03  0.00000000000E+00 0. -1.
         36    2    1    2    0    0  0.14210854715E-13  0.14210854715E-13  0.20183462321E+03  0.10207909535E+04  0.10006382741E+04 0.  0.
         25    2    3    3    0    0 -0.98167957958E+02  0.53430840353E+02 -0.50201090098E+02  0.17440890989E+03  0.12412298632E+03 0.  0.
         35    2    3    3    0    0  0.98167957958E+02 -0.53430840353E+02  0.25203571331E+03  0.84638204364E+03  0.80021794553E+03 0.  0.
         22    1    5    5    0    0  0.32713513034E+03  0.25167975139E+03  0.20855008049E+03  0.46244267410E+03  0.00000000000E+00 0. -1.
         22    1    5    5    0    0 -0.22896717238E+03 -0.30511059174E+03  0.43485632823E+02  0.38393936954E+03  0.00000000000E+00 0. -1.
          5    1    4    4  502    0 -0.55253128988E+02 -0.20987197433E+02  0.20827822803E+02  0.62843129471E+02  0.47000000000E+01 0. -1.
         -5    1    4    4    0  502 -0.42914828971E+02  0.74418037786E+02 -0.71028912901E+02  0.11156578042E+03  0.47000000000E+01 0. -1.
<mgrwt>
<rscale>  0 0.10006383E+04</rscale>
<asrwt>0</asrwt>
<pdfrwt beam="1">  1        2 0.94048121E-01 0.10006383E+04</pdfrwt>
<pdfrwt beam="2">  1       -2 0.62996641E-01 0.10006383E+04</pdfrwt>
<totfact> 0.13696776E+02</totfact>
</mgrwt>
</event>
<event>
 9    1  0.4307774E-036  0.9995951E+03  0.7818608E-02  0.8681424E-01
         -1   -1    0    0    0  501 -0.00000000000E+00  0.00000000000E+00  0.12981542599E+03  0.12981542599E+03  0.00000000000E+00 0. -1.
          1   -1    0    0  501    0  0.00000000000E+00 -0.00000000000E+00 -0.19242520876E+04  0.19242520876E+04  0.00000000000E+00 0. -1.
         36    2    1    2    0    0 -0.28421709430E-13  0.35527136788E-14 -0.17944366616E+04  0.20540675135E+04  0.99959512695E+03 0.  0.
         25    2    3    3    0    0  0.53543284289E+02 -0.11940859479E+02 -0.75264337431E+02  0.15641700533E+03  0.12566658924E+03 0.  0.
         35    2    3    3    0    0 -0.53543284289E+02  0.11940859479E+02 -0.17191723241E+04  0.18976505082E+04  0.80157002429E+03 0.  0.
         22    1    5    5    0    0  0.33790746444E+03 -0.32541227290E+02 -0.41989256788E+03  0.53995384484E+03  0.00000000000E+00 0. -1.
         22    1    5    5    0    0 -0.39145074873E+03  0.44482086768E+02 -0.12992797563E+04  0.13576966634E+04  0.00000000000E+00 0. -1.
          5    1    4    4  502    0 -0.10634701342E+02  0.24570218763E+02  0.21465491762E+02  0.34635961937E+02  0.47000000000E+01 0. -1.
         -5    1    4    4    0  502  0.64177985631E+02 -0.36511078242E+02 -0.96729829193E+02  0.12178104339E+03  0.47000000000E+01 0. -1.
<mgrwt>
<rscale>  0 0.99959513E+03</rscale>
<asrwt>0</asrwt>
<pdfrwt beam="1">  1        1 0.29603876E+00 0.99959513E+03</pdfrwt>
<pdfrwt beam="2">  1       -1 0.19971605E-01 0.99959513E+03</pdfrwt>
<totfact> 0.72148018E+01</totfact>
</mgrwt>
</event>
<event>
 9    1  0.4307774E-036  0.9998303E+03  0.7818608E-02  0.8681200E-01
         -2   -1    0    0    0  501 -0.00000000000E+00  0.00000000000E+00  0.27632769828E+03  0.27632769828E+03  0.00000000000E+00 0. -1.
          2   -1    0    0  501    0  0.00000000000E+00 -0.00000000000E+00 -0.90441595542E+03  0.90441595542E+03  0.00000000000E+00 0. -1.
         36    2    1    2    0    0  0.14210854715E-13 -0.14210854715E-13 -0.62808825714E+03  0.11807436537E+04  0.99983034411E+03 0.  0.
         25    2    3    3    0    0 -0.52413913268E+02  0.37270900850E+02 -0.26397569354E+03  0.29879299688E+03  0.12432919952E+03 0.  0.
         35    2    3    3    0    0  0.52413913268E+02 -0.37270900850E+02 -0.36411256360E+03  0.88195065683E+03  0.80070135740E+03 0.  0.
         22    1    5    5    0    0 -0.30429424256E+03  0.18138381160E+03 -0.28831419462E+03  0.45674954623E+03  0.00000000000E+00 0. -1.
         22    1    5    5    0    0  0.35670815583E+03 -0.21865471245E+03 -0.75798368986E+02  0.42520111059E+03  0.00000000000E+00 0. -1.
          5    1    4    4  502    0  0.21004006028E+02 -0.14635386525E+02 -0.15621713232E+03  0.15837059462E+03  0.47000000000E+01 0. -1.
         -5    1    4    4    0  502 -0.73417919296E+02  0.51906287376E+02 -0.10775856121E+03  0.14042240226E+03  0.47000000000E+01 0. -1.
<mgrwt>
<rscale>  0 0.99983034E+03</rscale>
<asrwt>0</asrwt>
<pdfrwt beam="1">  1        2 0.13914091E+00 0.99983034E+03</pdfrwt>
<pdfrwt beam="2">  1       -2 0.42511954E-01 0.99983034E+03</pdfrwt>
<totfact> 0.18477307E+02</totfact>
</mgrwt>
</event>
<event>
 9    1  0.4307774E-036  0.9997421E+03  0.7818608E-02  0.8681284E-01
         -2   -1    0    0    0  501 -0.00000000000E+00  0.00000000000E+00  0.10198597849E+04  0.10198597849E+04  0.00000000000E+00 0. -1.
          2   -1    0    0  501    0  0.00000000000E+00 -0.00000000000E+00 -0.24500529774E+03  0.24500529774E+03  0.00000000000E+00 0. -1.
         36    2    1    2    0    0  0.28421709430E-13  0.00000000000E+00  0.77485448712E+03  0.12648650826E+04  0.99974206721E+03 0.  0.
         25    2    3    3    0    0 -0.77427425765E+02 -0.10261099567E+03  0.16952662375E+03  0.24661810162E+03  0.12472846184E+03 0.  0.
         35    2    3    3    0    0  0.77427425765E+02  0.10261099567E+03  0.60532786336E+03  0.10182469810E+04  0.80862912970E+03 0.  0.
         22    1    5    5    0    0  0.43917929928E+03  0.98215452010E+02  0.40094172354E+03  0.60272630406E+03  0.00000000000E+00 0.  1.
         22    1    5    5    0    0 -0.36175187351E+03  0.43955436626E+01  0.20438613982E+03  0.41552067692E+03  0.00000000000E+00 0.  1.
          5    1    4    4  502    0 -0.15228023234E+02 -0.28291429667E+00  0.11299302092E+03  0.11411172380E+03  0.47000000000E+01 0. -1.
         -5    1    4    4    0  502 -0.62199402531E+02 -0.10232808138E+03  0.56533602832E+02  0.13250637782E+03  0.47000000000E+01 0. -1.
<mgrwt>
<rscale>  0 0.99974207E+03</rscale>
<asrwt>0</asrwt>
<pdfrwt beam="1">  1        2 0.37693123E-01 0.99974207E+03</pdfrwt>
<pdfrwt beam="2">  1       -2 0.15690150E+00 0.99974207E+03</pdfrwt>
<totfact> 0.41140882E+01</totfact>
</mgrwt>
</event>
<event>
 9    1  0.4307774E-036  0.9995657E+03  0.7818608E-02  0.8681452E-01
          1   -1    0    0  501    0  0.00000000000E+00  0.00000000000E+00  0.98359384104E+03  0.98359384104E+03  0.00000000000E+00 0.  1.
         -1   -1    0    0    0  501 -0.00000000000E+00 -0.00000000000E+00 -0.25394923971E+03  0.25394923971E+03  0.00000000000E+00 0.  1.
         36    2    1    2    0    0 -0.14210854715E-13  0.28421709430E-13  0.72964460133E+03  0.12375430807E+04  0.99956572193E+03 0.  0.
         25    2    3    3    0    0  0.34880204596E+01  0.14364346880E+03  0.13955554989E+03  0.23603896095E+03  0.12487204318E+03 0.  0.
         35    2    3    3    0    0 -0.34880204596E+01 -0.14364346880E+03  0.59008905144E+03  0.10015041198E+04  0.79634151024E+03 0.  0.
         22    1    5    5    0    0 -0.21847817410E+03 -0.37282558883E+03  0.14327972374E+03  0.45525894992E+03  0.00000000000E+00 0. -1.
         22    1    5    5    0    0  0.21499015364E+03  0.22918212003E+03  0.44680932770E+03  0.54624516988E+03  0.00000000000E+00 0. -1.
          5    1    4    4  502    0  0.41894060540E+02  0.27965303653E+02 -0.13346568318E+00  0.50589310433E+02  0.47000000000E+01 0.  1.
         -5    1    4    4    0  502 -0.38406040080E+02  0.11567816514E+03  0.13968901557E+03  0.18544965052E+03  0.47000000000E+01 0.  1.
<mgrwt>
<rscale>  0 0.99956572E+03</rscale>
<asrwt>0</asrwt>
<pdfrwt beam="1">  1        1 0.15132213E+00 0.99956572E+03</pdfrwt>
<pdfrwt beam="2">  1       -1 0.39069114E-01 0.99956572E+03</pdfrwt>
<totfact> 0.11108482E+02</totfact>
</mgrwt>
</event>
<event>
 9    1  0.4307774E-036  0.1000146E+04  0.7818608E-02  0.8680899E-01
         -2   -1    0    0    0  501 -0.00000000000E+00  0.00000000000E+00  0.53082574098E+03  0.53082574098E+03  0.00000000000E+00 0. -1.
          2   -1    0    0  501    0  0.00000000000E+00 -0.00000000000E+00 -0.47110151992E+03  0.47110151992E+03  0.00000000000E+00 0. -1.
         36    2    1    2    0    0  0.14210854715E-13  0.28421709430E-13  0.59724221053E+02  0.10019272609E+04  0.10001456162E+04 0.  0.
         25    2    3    3    0    0  0.99819100484E+02  0.58714140753E+02 -0.60709413749E+02  0.18409766851E+03  0.12959597018E+03 0.  0.
         35    2    3    3    0    0 -0.99819100484E+02 -0.58714140753E+02  0.12043363480E+03  0.81782959239E+03  0.80058090075E+03 0.  0.
         22    1    5    5    0    0 -0.19059440683E+03 -0.39362991729E+03  0.16612728461E+03  0.46783438778E+03  0.00000000000E+00 0. -1.
         22    1    5    5    0    0  0.90775306342E+02  0.33491577654E+03 -0.45693649806E+02  0.34999520461E+03  0.00000000000E+00 0. -1.
          5    1    4    4  502    0  0.17015496650E+02  0.78495438507E+02 -0.18238761282E+01  0.80476565017E+02  0.47000000000E+01 0. -1.
         -5    1    4    4    0  502  0.82803603834E+02 -0.19781297754E+02 -0.58885537621E+02  0.10362110350E+03  0.47000000000E+01 0. -1.
<mgrwt>
<rscale>  0 0.10001456E+04</rscale>
<asrwt>0</asrwt>
<pdfrwt beam="1">  1        2 0.72477157E-01 0.10001456E+04</pdfrwt>
<pdfrwt beam="2">  1       -2 0.81665499E-01 0.10001456E+04</pdfrwt>
<totfact> 0.10474331E+02</totfact>
</mgrwt>
</event>
<event>
 9    1  0.4307774E-036  0.1007378E+04  0.7818608E-02  0.8674044E-01
          1   -1    0    0  501    0  0.00000000000E+00  0.00000000000E+00  0.17042040019E+04  0.17042040019E+04  0.00000000000E+00 0. -1.
         -1   -1    0    0    0  501 -0.00000000000E+00 -0.00000000000E+00 -0.14886853940E+03  0.14886853940E+03  0.00000000000E+00 0. -1.
         36    2    1    2    0    0 -0.14210854715E-13 -0.14210854715E-13  0.15553354625E+04  0.18530725413E+04  0.10073775074E+04 0.  0.
         25    2    3    3    0    0 -0.91719197950E+02 -0.76693815262E+02  0.13947323091E+03  0.22222321112E+03  0.12504407562E+03 0.  0.
         35    2    3    3    0    0  0.91719197950E+02  0.76693815262E+02  0.14158622316E+04  0.16308493301E+04  0.80044320618E+03 0.  0.
         22    1    5    5    0    0  0.42637952494E+03  0.17232484241E+03  0.85274267198E+03  0.96884746746E+03  0.00000000000E+00 0.  1.
         22    1    5    5    0    0 -0.33466032699E+03 -0.95631027147E+02  0.56311955958E+03  0.66200186268E+03  0.00000000000E+00 0.  1.
          5    1    4    4  502    0  0.27125298621E+02 -0.63098122641E+01  0.50486911503E+02  0.57849924712E+02  0.47000000000E+01 0. -1.
         -5    1    4    4    0  502 -0.11884449657E+03 -0.70384002998E+02  0.88986319411E+02  0.16437328641E+03  0.47000000000E+01 0. -1.
<mgrwt>
<rscale>  0 0.10073775E+04</rscale>
<asrwt>0</asrwt>
<pdfrwt beam="1">  1        1 0.26218522E+00 0.10073775E+04</pdfrwt>
<pdfrwt beam="2">  1       -1 0.22902853E-01 0.10073775E+04</pdfrwt>
<totfact> 0.81992546E+01</totfact>
</mgrwt>
</event>
<event>
 9    1  0.4307774E-036  0.1000500E+04  0.7818608E-02  0.8680562E-01
         -1   -1    0    0    0  501 -0.00000000000E+00  0.00000000000E+00  0.39481997871E+03  0.39481997871E+03  0.00000000000E+00 0. -1.
          1   -1    0    0  501    0  0.00000000000E+00 -0.00000000000E+00 -0.63383386809E+03  0.63383386809E+03  0.00000000000E+00 0. -1.
         36    2    1    2    0    0 -0.71054273576E-14  0.28421709430E-13 -0.23901388938E+03  0.10286538468E+04  0.10005004234E+04 0.  0.
         25    2    3    3    0    0  0.39512908557E+02  0.23795561896E+02 -0.18217955381E+03  0.22531793229E+03  0.12430318612E+03 0.  0.
         35    2    3    3    0    0 -0.39512908557E+02 -0.23795561896E+02 -0.56834335578E+02  0.80333591450E+03  0.79999434443E+03 0.  0.
         22    1    5    5    0    0  0.22999998026E+03 -0.30140727537E+03  0.89689874901E+02  0.38960314453E+03  0.00000000000E+00 0.  1.
         22    1    5    5    0    0 -0.26951288881E+03  0.27761171348E+03 -0.14652421048E+03  0.41373276998E+03  0.00000000000E+00 0.  1.
          5    1    4    4  502    0 -0.10416518968E+02  0.18765390666E+02 -0.17262614255E+03  0.17401873130E+03  0.47000000000E+01 0. -1.
         -5    1    4    4    0  502  0.49929427525E+02  0.50301712305E+01 -0.95534112601E+01  0.51299200990E+02  0.47000000000E+01 0. -1.
<mgrwt>
<rscale>  0 0.10005004E+04</rscale>
<asrwt>0</asrwt>
<pdfrwt beam="1">  1        1 0.97512902E-01 0.10005004E+04</pdfrwt>
<pdfrwt beam="2">  1       -1 0.60741536E-01 0.10005004E+04</pdfrwt>
<totfact> 0.10068147E+02</totfact>
</mgrwt>
</event>
<event>
 9    1  0.4307774E-036  0.1001695E+04  0.7818608E-02  0.8679426E-01
          1   -1    0    0  501    0  0.00000000000E+00  0.00000000000E+00  0.54039336177E+03  0.54039336177E+03  0.00000000000E+00 0.  1.
         -1   -1    0    0    0  501 -0.00000000000E+00 -0.00000000000E+00 -0.46419517682E+03  0.46419517682E+03  0.00000000000E+00 0.  1.
         36    2    1    2    0    0 -0.71054273576E-14  0.00000000000E+00  0.76198184953E+02  0.10045885386E+04  0.10016945485E+04 0.  0.
         25    2    3    3    0    0 -0.86817994676E+01  0.83045028157E+02  0.11406270603E+03  0.18887589053E+03  0.12526751683E+03 0.  0.
         35    2    3    3    0    0  0.86817994676E+01 -0.83045028157E+02 -0.37864521081E+02  0.81571264806E+03  0.81054398517E+03 0.  0.
         22    1    5    5    0    0  0.22267827669E+03  0.16365954516E+03 -0.29189607578E+03  0.40196191447E+03  0.00000000000E+00 0.  1.
         22    1    5    5    0    0 -0.21399647722E+03 -0.24670457332E+03  0.25403155469E+03  0.41375073358E+03  0.00000000000E+00 0.  1.
          5    1    4    4  502    0  0.15971217122E+02  0.11141299151E+03  0.86651866997E+02  0.14212167501E+03  0.47000000000E+01 0.  1.
         -5    1    4    4    0  502 -0.24653016590E+02 -0.28367963357E+02  0.27410839038E+02  0.46754215519E+02  0.47000000000E+01 0.  1.
<mgrwt>
<rscale>  0 0.10016945E+04</rscale>
<asrwt>0</asrwt>
<pdfrwt beam="1">  1        1 0.83137440E-01 0.10016945E+04</pdfrwt>
<pdfrwt beam="2">  1       -1 0.71414643E-01 0.10016945E+04</pdfrwt>
<totfact> 0.92418673E+01</totfact>
</mgrwt>
</event>
<event>
 9    1  0.4307774E-036  0.1000769E+04  0.7818608E-02  0.8680306E-01
          2   -1    0    0  501    0  0.00000000000E+00  0.00000000000E+00  0.51761063004E+03  0.51761063004E+03  0.00000000000E+00 0.  1.
         -2   -1    0    0    0  501 -0.00000000000E+00 -0.00000000000E+00 -0.48373156834E+03  0.48373156834E+03  0.00000000000E+00 0.  1.
         36    2    1    2    0    0  0.21316282073E-13  0.14210854715E-13  0.33879061701E+02  0.10013421984E+04  0.10007689081E+04 0.  0.
         25    2    3    3    0    0 -0.53752801404E+02 -0.10135169871E+03 -0.73467406080E+02  0.18634190195E+03  0.12713895618E+03 0.  0.
         35    2    3    3    0    0  0.53752801404E+02  0.10135169871E+03  0.10734646778E+03  0.81500029643E+03  0.79971287882E+03 0.  0.
         22    1    5    5    0    0  0.12807412600E+03 -0.17781588490E+03 -0.26490740131E+03  0.34379849032E+03  0.00000000000E+00 0. -1.
         22    1    5    5    0    0 -0.74321324592E+02  0.27916758361E+03  0.37225386910E+03  0.47120180611E+03  0.00000000000E+00 0. -1.
          5    1    4    4  502    0 -0.93000170257E+02 -0.65767836033E+02 -0.30615959419E+02  0.11804180147E+03  0.47000000000E+01 0.  1.
         -5    1    4    4    0  502  0.39247368852E+02 -0.35583862675E+02 -0.42851446661E+02  0.68300100480E+02  0.47000000000E+01 0.  1.
<mgrwt>
<rscale>  0 0.10007689E+04</rscale>
<asrwt>0</asrwt>
<pdfrwt beam="1">  1        2 0.79632405E-01 0.10007689E+04</pdfrwt>
<pdfrwt beam="2">  1       -2 0.74420241E-01 0.10007689E+04</pdfrwt>
<totfact> 0.11608502E+02</totfact>
</mgrwt>
</event>
<event>
 9    1  0.4307774E-036  0.9999230E+03  0.7818608E-02  0.8681111E-01
         -1   -1    0    0    0  501 -0.00000000000E+00  0.00000000000E+00  0.19321804871E+03  0.19321804871E+03  0.00000000000E+00 0.  1.
          1   -1    0    0  501    0  0.00000000000E+00 -0.00000000000E+00 -0.12936756392E+04  0.12936756392E+04  0.00000000000E+00 0.  1.
         36    2    1    2    0    0  0.00000000000E+00  0.71054273576E-14 -0.11004575905E+04  0.14868936879E+04  0.99992296237E+03 0.  0.
         25    2    3    3    0    0 -0.12591431536E+03 -0.16591914852E+01 -0.11503191730E+03  0.21149812839E+03  0.12506777598E+03 0.  0.
         35    2    3    3    0    0  0.12591431536E+03  0.16591914852E+01 -0.98542567322E+03  0.12753955595E+04  0.79982054744E+03 0.  0.
         22    1    5    5    0    0 -0.27712165668E+03  0.21746551871E+03 -0.41363648415E+03  0.54330728456E+03  0.00000000000E+00 0. -1.
         22    1    5    5    0    0  0.40303597205E+03 -0.21580632722E+03 -0.57178918906E+03  0.73208827498E+03  0.00000000000E+00 0. -1.
          5    1    4    4  502    0 -0.66833875541E+02 -0.45061240066E+02 -0.72557817854E+01  0.81067987797E+02  0.47000000000E+01 0. -1.
         -5    1    4    4    0  502 -0.59080439823E+02  0.43402048581E+02 -0.10777613551E+03  0.13043014060E+03  0.47000000000E+01 0. -1.
<mgrwt>
<rscale>  0 0.99992296E+03</rscale>
<asrwt>0</asrwt>
<pdfrwt beam="1">  1        1 0.19902703E+00 0.99992296E+03</pdfrwt>
<pdfrwt beam="2">  1       -1 0.29725853E-01 0.99992296E+03</pdfrwt>
<totfact> 0.10378845E+02</totfact>
</mgrwt>
</event>
<event>
 9    1  0.4307774E-036  0.9986196E+03  0.7818608E-02  0.8682354E-01
         -2   -1    0    0    0  501 -0.00000000000E+00  0.00000000000E+00  0.16346666293E+03  0.16346666293E+03  0.00000000000E+00 0.  1.
          2   -1    0    0  501    0  0.00000000000E+00 -0.00000000000E+00 -0.15251445055E+04  0.15251445055E+04  0.00000000000E+00 0.  1.
         36    2    1    2    0    0  0.00000000000E+00 -0.28421709430E-13 -0.13616778426E+04  0.16886111684E+04  0.99861961286E+03 0.  0.
         25    2    3    3    0    0 -0.10303556291E+03 -0.62129172359E+02 -0.36980300654E+03  0.40842736894E+03  0.12482904618E+03 0.  0.
         35    2    3    3    0    0  0.10303556291E+03  0.62129172359E+02 -0.99187483603E+03  0.12801837995E+04  0.80036148635E+03 0.  0.
         22    1    5    5    0    0  0.32052637054E+03  0.27050664186E+03 -0.27215680775E+03  0.49998032512E+03  0.00000000000E+00 0. -1.
         22    1    5    5    0    0 -0.21749080763E+03 -0.20837746950E+03 -0.71971802827E+03  0.78020347437E+03  0.00000000000E+00 0. -1.
          5    1    4    4  502    0 -0.40709429410E+02  0.19741809598E+02 -0.32920962786E+02  0.56150480673E+02  0.47000000000E+01 0.  1.
         -5    1    4    4    0  502 -0.62326133501E+02 -0.81870981957E+02 -0.33688204375E+03  0.35227688826E+03  0.47000000000E+01 0. -1.
<mgrwt>
<rscale>  0 0.99861961E+03</rscale>
<asrwt>0</asrwt>
<pdfrwt beam="1">  1        2 0.23463761E+00 0.99861961E+03</pdfrwt>
<pdfrwt beam="2">  1       -2 0.25148718E-01 0.99861961E+03</pdfrwt>
<totfact> 0.20813407E+02</totfact>
</mgrwt>
</event>
<event>
 9    1  0.4307774E-036  0.1000165E+04  0.7818608E-02  0.8680881E-01
         -2   -1    0    0    0  501 -0.00000000000E+00  0.00000000000E+00  0.16611162984E+03  0.16611162984E+03  0.00000000000E+00 0.  1.
          2   -1    0    0  501    0  0.00000000000E+00 -0.00000000000E+00 -0.15055075492E+04  0.15055075492E+04  0.00000000000E+00 0.  1.
         36    2    1    2    0    0  0.00000000000E+00  0.00000000000E+00 -0.13393959193E+04  0.16716191790E+04  0.10001646119E+04 0.  0.
         25    2    3    3    0    0 -0.68787512951E+02 -0.10051068941E+03 -0.13827214121E+03  0.22358198732E+03  0.12663174719E+03 0.  0.
         35    2    3    3    0    0  0.68787512951E+02  0.10051068941E+03 -0.12011237781E+04  0.14480371917E+04  0.79954940907E+03 0.  0.
         22    1    5    5    0    0 -0.25572394421E+03 -0.22733626270E+03 -0.59464928467E+03  0.68606434372E+03  0.00000000000E+00 0.  1.
         22    1    5    5    0    0  0.32451145716E+03  0.32784695210E+03 -0.60647449344E+03  0.76197284796E+03  0.00000000000E+00 0.  1.
          5    1    4    4  502    0 -0.95453791909E+02 -0.10712723448E+03 -0.95132536608E+02  0.17222067321E+03  0.47000000000E+01 0. -1.
         -5    1    4    4    0  502  0.26666278958E+02  0.66165450781E+01 -0.43139604602E+02  0.51361314113E+02  0.47000000000E+01 0. -1.
<mgrwt>
<rscale>  0 0.10001646E+04</rscale>
<asrwt>0</asrwt>
<pdfrwt beam="1">  1        2 0.23161654E+00 0.10001646E+04</pdfrwt>
<pdfrwt beam="2">  1       -2 0.25555635E-01 0.10001646E+04</pdfrwt>
<totfact> 0.20752140E+02</totfact>
</mgrwt>
</event>
<event>
 9    1  0.4307774E-036  0.9999560E+03  0.7818608E-02  0.8681080E-01
          2   -1    0    0  501    0  0.00000000000E+00  0.00000000000E+00  0.21186714648E+04  0.21186714648E+04  0.00000000000E+00 0. -1.
         -2   -1    0    0    0  501 -0.00000000000E+00 -0.00000000000E+00 -0.11798808821E+03  0.11798808821E+03  0.00000000000E+00 0. -1.
         36    2    1    2    0    0  0.00000000000E+00  0.00000000000E+00  0.20006833766E+04  0.22366595530E+04  0.99995599037E+03 0.  0.
         25    2    3    3    0    0 -0.30913611224E+00 -0.11494863736E+03  0.18584453013E+03  0.25111688123E+03  0.12372636688E+03 0.  0.
         35    2    3    3    0    0  0.30913611224E+00  0.11494863736E+03  0.18148388464E+04  0.19855426718E+04  0.79719908305E+03 0.  0.
         22    1    5    5    0    0 -0.11889192821E+03  0.26678244220E+03  0.17611160503E+04  0.17851716737E+04  0.00000000000E+00 0. -1.
         22    1    5    5    0    0  0.11920106432E+03 -0.15183380484E+03  0.53722796148E+02  0.20037099803E+03  0.00000000000E+00 0. -1.
          5    1    4    4  502    0  0.39879541705E+02 -0.11742426307E+03  0.16205237937E+03  0.20411246670E+03  0.47000000000E+01 0. -1.
         -5    1    4    4    0  502 -0.40188677817E+02  0.24756257004E+01  0.23792150751E+02  0.47004414523E+02  0.47000000000E+01 0. -1.
<mgrwt>
<rscale>  0 0.99995599E+03</rscale>
<asrwt>0</asrwt>
<pdfrwt beam="1">  1        2 0.32594943E+00 0.99995599E+03</pdfrwt>
<pdfrwt beam="2">  1       -2 0.18152015E-01 0.99995599E+03</pdfrwt>
<totfact> 0.16938162E+02</totfact>
</mgrwt>
</event>
<event>
 9    1  0.4307774E-036  0.1000462E+04  0.7818608E-02  0.8680598E-01
         -2   -1    0    0    0  501 -0.00000000000E+00  0.00000000000E+00  0.13345169671E+03  0.13345169671E+03  0.00000000000E+00 0.  1.
          2   -1    0    0  501    0  0.00000000000E+00 -0.00000000000E+00 -0.18750669408E+04  0.18750669408E+04  0.00000000000E+00 0.  1.
         36    2    1    2    0    0  0.14210854715E-13 -0.14210854715E-13 -0.17416152441E+04  0.20085186375E+04  0.10004616228E+04 0.  0.
         25    2    3    3    0    0 -0.10535462450E+03 -0.78178709401E+02 -0.23163070836E+03  0.29441734472E+03  0.12576676949E+03 0.  0.
         35    2    3    3    0    0  0.10535462450E+03  0.78178709401E+02 -0.15099845357E+04  0.17141012928E+04  0.80054883441E+03 0.  0.
         22    1    5    5    0    0  0.76510314664E+02 -0.36035173826E+03 -0.76678078524E+03  0.85068206524E+03  0.00000000000E+00 0. -1.
         22    1    5    5    0    0  0.28844309836E+02  0.43853044766E+03 -0.74320375049E+03  0.86341922754E+03  0.00000000000E+00 0. -1.
          5    1    4    4  502    0 -0.11832765660E+03 -0.78640861636E+02 -0.23951149298E+03  0.27852049243E+03  0.47000000000E+01 0. -1.
         -5    1    4    4    0  502  0.12973032095E+02  0.46215223498E+00  0.78807846203E+01  0.15896852288E+02  0.47000000000E+01 0. -1.
<mgrwt>
<rscale>  0 0.10004616E+04</rscale>
<asrwt>0</asrwt>
<pdfrwt beam="1">  1        2 0.28847184E+00 0.10004616E+04</pdfrwt>
<pdfrwt beam="2">  1       -2 0.20531030E-01 0.10004616E+04</pdfrwt>
<totfact> 0.18860556E+02</totfact>
</mgrwt>
</event>
<event>
 9    1  0.4307774E-036  0.1002206E+04  0.7818608E-02  0.8678940E-01
         -2   -1    0    0    0  501 -0.00000000000E+00  0.00000000000E+00  0.55465343169E+03  0.55465343169E+03  0.00000000000E+00 0.  1.
          2   -1    0    0  501    0  0.00000000000E+00 -0.00000000000E+00 -0.45272276649E+03  0.45272276649E+03  0.00000000000E+00 0.  1.
         36    2    1    2    0    0  0.00000000000E+00  0.00000000000E+00  0.10193066520E+03  0.10073761982E+04  0.10022060388E+04 0.  0.
         25    2    3    3    0    0  0.68919810798E+02  0.63576289173E+02 -0.85105225876E+02  0.18058064200E+03  0.12874231600E+03 0.  0.
         35    2    3    3    0    0 -0.68919810798E+02 -0.63576289173E+02  0.18703589107E+03  0.82679555617E+03  0.79988535572E+03 0.  0.
         22    1    5    5    0    0 -0.40896918681E+03 -0.10340590718E+03  0.23208807160E+03  0.48147009292E+03  0.00000000000E+00 0.  1.
         22    1    5    5    0    0  0.34004937601E+03  0.39829618011E+02 -0.45052180525E+02  0.34532546325E+03  0.00000000000E+00 0.  1.
          5    1    4    4  502    0  0.35588732277E+02  0.80045434287E+02 -0.10606510808E+03  0.13764347630E+03  0.47000000000E+01 0. -1.
         -5    1    4    4    0  502  0.33331078521E+02 -0.16469145114E+02  0.20959882209E+02  0.42937165700E+02  0.47000000000E+01 0. -1.
<mgrwt>
<rscale>  0 0.10022060E+04</rscale>
<asrwt>0</asrwt>
<pdfrwt beam="1">  1        2 0.69649656E-01 0.10022060E+04</pdfrwt>
<pdfrwt beam="2">  1       -2 0.85331298E-01 0.10022060E+04</pdfrwt>
<totfact> 0.98897003E+01</totfact>
</mgrwt>
</event>
<event>
 9    1  0.4307774E-036  0.1003534E+04  0.7818608E-02  0.8677680E-01
         -2   -1    0    0    0  501 -0.00000000000E+00  0.00000000000E+00  0.37822389075E+03  0.37822389075E+03  0.00000000000E+00 0.  1.
          2   -1    0    0  501    0  0.00000000000E+00 -0.00000000000E+00 -0.66566402297E+03  0.66566402297E+03  0.00000000000E+00 0.  1.
         36    2    1    2    0    0  0.71054273576E-14 -0.56843418861E-13 -0.28744013222E+03  0.10438879137E+04  0.10035338294E+04 0.  0.
         25    2    3    3    0    0  0.19068842586E+02  0.13453548907E+03 -0.10609255529E+03  0.21245884591E+03  0.12417613434E+03 0.  0.
         35    2    3    3    0    0 -0.19068842586E+02 -0.13453548907E+03 -0.18134757693E+03  0.83142906780E+03  0.79995245643E+03 0.  0.
         22    1    5    5    0    0 -0.19005467564E+03  0.29034931180E+03 -0.26787058026E+02  0.34805322736E+03  0.00000000000E+00 0. -1.
         22    1    5    5    0    0  0.17098583306E+03 -0.42488480087E+03 -0.15456051891E+03  0.48337584044E+03  0.00000000000E+00 0. -1.
          5    1    4    4  502    0  0.39787857758E+02  0.89424914939E+02 -0.31092129057E+01  0.98039003676E+02  0.47000000000E+01 0. -1.
         -5    1    4    4    0  502 -0.20719015172E+02  0.45110574133E+02 -0.10298334238E+03  0.11441984223E+03  0.47000000000E+01 0. -1.
<mgrwt>
<rscale>  0 0.10035338E+04</rscale>
<asrwt>0</asrwt>
<pdfrwt beam="1">  1        2 0.10240985E+00 0.10035338E+04</pdfrwt>
<pdfrwt beam="2">  1       -2 0.58188291E-01 0.10035338E+04</pdfrwt>
<totfact> 0.14595417E+02</totfact>
</mgrwt>
</event>
<event>
 9    1  0.4307774E-036  0.9998224E+03  0.7818608E-02  0.8681207E-01
          2   -1    0    0  501    0  0.00000000000E+00  0.00000000000E+00  0.19317182132E+04  0.19317182132E+04  0.00000000000E+00 0.  1.
         -2   -1    0    0    0  501 -0.00000000000E+00 -0.00000000000E+00 -0.12937249011E+03  0.12937249011E+03  0.00000000000E+00 0.  1.
         36    2    1    2    0    0 -0.10658141036E-13 -0.28421709430E-13  0.18023457231E+04  0.20610907033E+04  0.99982237509E+03 0.  0.
         25    2    3    3    0    0  0.54451798325E+01 -0.41478206405E+02  0.61352959763E+03  0.62762634913E+03  0.12548376535E+03 0.  0.
         35    2    3    3    0    0 -0.54451798325E+01  0.41478206405E+02  0.11888161255E+04  0.14334643542E+04  0.79986635319E+03 0.  0.
         22    1    5    5    0    0  0.15010608575E+03  0.25823092571E+03  0.10392757244E+03  0.31625304470E+03  0.00000000000E+00 0.  1.
         22    1    5    5    0    0 -0.15555126558E+03 -0.21675271930E+03  0.10848885530E+04  0.11172113095E+04  0.00000000000E+00 0.  1.
          5    1    4    4  502    0  0.22747940558E+02 -0.16228979194E+02  0.23578540899E+02  0.36863073071E+02  0.47000000000E+01 0.  1.
         -5    1    4    4    0  502 -0.17302760725E+02 -0.25249227211E+02  0.58995105673E+03  0.59076327606E+03  0.47000000000E+01 0.  1.
<mgrwt>
<rscale>  0 0.99982238E+03</rscale>
<asrwt>0</asrwt>
<pdfrwt beam="1">  1        2 0.29718740E+00 0.99982238E+03</pdfrwt>
<pdfrwt beam="2">  1       -2 0.19903461E-01 0.99982238E+03</pdfrwt>
<totfact> 0.18484125E+02</totfact>
</mgrwt>
</event>
<event>
 9    1  0.4307774E-036  0.1000481E+04  0.7818608E-02  0.8680580E-01
         -2   -1    0    0    0  501 -0.00000000000E+00  0.00000000000E+00  0.15754977725E+03  0.15754977725E+03  0.00000000000E+00 0. -1.
          2   -1    0    0  501    0  0.00000000000E+00 -0.00000000000E+00 -0.15883261956E+04  0.15883261956E+04  0.00000000000E+00 0. -1.
         36    2    1    2    0    0  0.71054273576E-14 -0.28421709430E-13 -0.14307764183E+04  0.17458759728E+04  0.10004807610E+04 0.  0.
         25    2    3    3    0    0 -0.34605249475E+02 -0.74329628932E+02 -0.46984664781E+03  0.49306129349E+03  0.12502459620E+03 0.  0.
         35    2    3    3    0    0  0.34605249475E+02  0.74329628932E+02 -0.96092977051E+03  0.12528146793E+04  0.79964753475E+03 0.  0.
         22    1    5    5    0    0  0.24894933411E+03  0.33938344130E+03 -0.72477690973E+03  0.83812794969E+03  0.00000000000E+00 0.  1.
         22    1    5    5    0    0 -0.21434408464E+03 -0.26505381237E+03 -0.23615286078E+03  0.41468672962E+03  0.00000000000E+00 0.  1.
          5    1    4    4  502    0 -0.59471378538E+02 -0.46345332923E+02 -0.43561505874E+03  0.44211684445E+03  0.47000000000E+01 0.  1.
         -5    1    4    4    0  502  0.24866129062E+02 -0.27984296009E+02 -0.34231589070E+02  0.50944449040E+02  0.47000000000E+01 0.  1.
<mgrwt>
<rscale>  0 0.10004808E+04</rscale>
<asrwt>0</asrwt>
<pdfrwt beam="1">  1        2 0.24435787E+00 0.10004808E+04</pdfrwt>
<pdfrwt beam="2">  1       -2 0.24238428E-01 0.10004808E+04</pdfrwt>
<totfact> 0.20465003E+02</totfact>
</mgrwt>
</event>
<event>
 9    1  0.4307774E-036  0.9994766E+03  0.7818608E-02  0.8681537E-01
          2   -1    0    0  501    0  0.00000000000E+00  0.00000000000E+00  0.41675031395E+03  0.41675031395E+03  0.00000000000E+00 0.  1.
         -2   -1    0    0    0  501 -0.00000000000E+00 -0.00000000000E+00 -0.59925182671E+03  0.59925182671E+03  0.00000000000E+00 0.  1.
         36    2    1    2    0    0 -0.14210854715E-13  0.14210854715E-13 -0.18250151276E+03  0.10160021407E+04  0.99947663688E+03 0.  0.
         25    2    3    3    0    0  0.73532754349E+02 -0.10016829166E+03 -0.10688131074E+03  0.20577430224E+03  0.12441340869E+03 0.  0.
         35    2    3    3    0    0 -0.73532754349E+02  0.10016829166E+03 -0.75620202022E+02  0.81022783842E+03  0.79706334917E+03 0.  0.
         22    1    5    5    0    0  0.16264395257E+03 -0.32418411899E+02  0.30257840139E+03  0.34504738475E+03  0.00000000000E+00 0.  1.
         22    1    5    5    0    0 -0.23617670692E+03  0.13258670356E+03 -0.37819860341E+03  0.46518045367E+03  0.00000000000E+00 0.  1.
          5    1    4    4  502    0  0.30134511032E+02 -0.58973000770E+02  0.16636629043E+02  0.68445386995E+02  0.47000000000E+01 0. -1.
         -5    1    4    4    0  502  0.43398243317E+02 -0.41195290888E+02 -0.12351793978E+03  0.13732891524E+03  0.47000000000E+01 0. -1.
<mgrwt>
<rscale>  0 0.99947664E+03</rscale>
<asrwt>0</asrwt>
<pdfrwt beam="1">  1        2 0.64115433E-01 0.99947664E+03</pdfrwt>
<pdfrwt beam="2">  1       -2 0.92192589E-01 0.99947664E+03</pdfrwt>
<totfact> 0.90571360E+01</totfact>
</mgrwt>
</event>
<event>
 9    1  0.4307774E-036  0.9997949E+03  0.7818608E-02  0.8681233E-01
         -3   -1    0    0    0  501 -0.00000000000E+00  0.00000000000E+00  0.46059689440E+03  0.46059689440E+03  0.00000000000E+00 0. -1.
          3   -1    0    0  501    0  0.00000000000E+00 -0.00000000000E+00 -0.54255130188E+03  0.54255130188E+03  0.00000000000E+00 0. -1.
         36    2    1    2    0    0  0.14210854715E-13 -0.14210854715E-13 -0.81954407484E+02  0.10031481963E+04  0.99979486836E+03 0.  0.
         25    2    3    3    0    0  0.11809818258E+03 -0.46484755731E+02 -0.75657444466E+02  0.19332158775E+03  0.12466424564E+03 0.  0.
         35    2    3    3    0    0 -0.11809818258E+03  0.46484755731E+02 -0.62969630181E+01  0.80982660854E+03  0.79979464296E+03 0.  0.
         22    1    5    5    0    0 -0.34127822582E+03  0.21225870143E+03  0.21380675869E+03  0.45523391110E+03  0.00000000000E+00 0.  1.
         22    1    5    5    0    0  0.22318004324E+03 -0.16577394570E+03 -0.22010372170E+03  0.35459269744E+03  0.00000000000E+00 0.  1.
          5    1    4    4  502    0  0.10400322410E+03 -0.67629237418E+02 -0.98775401338E+02  0.15864757889E+03  0.47000000000E+01 0. -1.
         -5    1    4    4    0  502  0.14094958482E+02  0.21144481687E+02  0.23117956872E+02  0.34674008859E+02  0.47000000000E+01 0. -1.
<mgrwt>
<rscale>  0 0.99979487E+03</rscale>
<asrwt>0</asrwt>
<pdfrwt beam="1">  1        3 0.83469430E-01 0.99979487E+03</pdfrwt>
<pdfrwt beam="2">  1       -3 0.70861061E-01 0.99979487E+03</pdfrwt>
<totfact> 0.10146112E+01</totfact>
</mgrwt>
</event>
<event>
 9    1  0.4307774E-036  0.9989103E+03  0.7818608E-02  0.8682076E-01
          2   -1    0    0  501    0  0.00000000000E+00  0.00000000000E+00  0.19431740754E+04  0.19431740754E+04  0.00000000000E+00 0. -1.
         -2   -1    0    0    0  501 -0.00000000000E+00 -0.00000000000E+00 -0.12837525537E+03  0.12837525537E+03  0.00000000000E+00 0. -1.
         36    2    1    2    0    0 -0.28421709430E-13  0.14210854715E-13  0.18147988201E+04  0.20715493308E+04  0.99891034265E+03 0.  0.
         25    2    3    3    0    0 -0.79796844888E+02 -0.98658753717E+02  0.45931761162E+03  0.49260765220E+03  0.12485409293E+03 0.  0.
         35    2    3    3    0    0  0.79796844888E+02  0.98658753717E+02  0.13554812084E+04  0.15789416786E+04  0.79976648583E+03 0.  0.
         22    1    5    5    0    0 -0.34688713237E+03 -0.64260977449E+02  0.57127418649E+03  0.67142710102E+03  0.00000000000E+00 0. -1.
         22    1    5    5    0    0  0.42668397726E+03  0.16291973117E+03  0.78420702194E+03  0.90751457758E+03  0.00000000000E+00 0. -1.
          5    1    4    4  502    0 -0.83933868576E+02 -0.10076851803E+03  0.24284616431E+03  0.27603539273E+03  0.47000000000E+01 0.  1.
         -5    1    4    4    0  502  0.41370236880E+01  0.21097643146E+01  0.21647144731E+03  0.21657225947E+03  0.47000000000E+01 0.  1.
<mgrwt>
<rscale>  0 0.99891034E+03</rscale>
<asrwt>0</asrwt>
<pdfrwt beam="1">  1        2 0.29894984E+00 0.99891034E+03</pdfrwt>
<pdfrwt beam="2">  1       -2 0.19750041E-01 0.99891034E+03</pdfrwt>
<totfact> 0.18454723E+02</totfact>
</mgrwt>
</event>
<event>
 9    1  0.4307774E-036  0.9999049E+03  0.7818608E-02  0.8681129E-01
         -1   -1    0    0    0  501 -0.00000000000E+00  0.00000000000E+00  0.13698307700E+03  0.13698307700E+03  0.00000000000E+00 0. -1.
          1   -1    0    0  501    0  0.00000000000E+00 -0.00000000000E+00 -0.18246958782E+04  0.18246958782E+04  0.00000000000E+00 0. -1.
         36    2    1    2    0    0  0.31974423109E-13  0.00000000000E+00 -0.16877128012E+04  0.19616789552E+04  0.99990490744E+03 0.  0.
         25    2    3    3    0    0  0.31899329850E+02  0.13694213633E+03 -0.34499563990E+03  0.39261843465E+03  0.12392145789E+03 0.  0.
         35    2    3    3    0    0 -0.31899329850E+02 -0.13694213633E+03 -0.13427171613E+04  0.15690605205E+04  0.79955664336E+03 0.  0.
         22    1    5    5    0    0 -0.27303721395E+03 -0.83794765336E+02 -0.10085930190E+03  0.30289186467E+03  0.00000000000E+00 0.  1.
         22    1    5    5    0    0  0.24113788410E+03 -0.53147370996E+02 -0.12418578594E+04  0.12661686559E+04  0.00000000000E+00 0.  1.
          5    1    4    4  502    0 -0.26932344231E+02  0.11999573280E+03 -0.26111136788E+03  0.28866167652E+03  0.47000000000E+01 0.  1.
         -5    1    4    4    0  502  0.58831674081E+02  0.16946403534E+02 -0.83884272023E+02  0.10395675813E+03  0.47000000000E+01 0.  1.
<mgrwt>
<rscale>  0 0.99990491E+03</rscale>
<asrwt>0</asrwt>
<pdfrwt beam="1">  1        1 0.28072243E+00 0.99990491E+03</pdfrwt>
<pdfrwt beam="2">  1       -1 0.21074321E-01 0.99990491E+03</pdfrwt>
<totfact> 0.77517925E+01</totfact>
</mgrwt>
</event>
<event>
 9    1  0.4307774E-036  0.1000721E+04  0.7818608E-02  0.8680352E-01
          2   -1    0    0  501    0  0.00000000000E+00  0.00000000000E+00  0.41944058064E+03  0.41944058064E+03  0.00000000000E+00 0.  1.
         -2   -1    0    0    0  501 -0.00000000000E+00 -0.00000000000E+00 -0.59689144418E+03  0.59689144418E+03  0.00000000000E+00 0.  1.
         36    2    1    2    0    0  0.00000000000E+00  0.71054273576E-14 -0.17745086355E+03  0.10163320248E+04  0.10007207281E+04 0.  0.
         25    2    3    3    0    0 -0.13078265535E+03 -0.22212943223E+02 -0.73843494705E+02  0.19906632780E+03  0.12875178976E+03 0.  0.
         35    2    3    3    0    0  0.13078265535E+03  0.22212943223E+02 -0.10360736884E+03  0.81726569702E+03  0.79974446847E+03 0.  0.
         22    1    5    5    0    0  0.10636734431E+01  0.11775423577E+03 -0.43399688877E+03  0.44968932709E+03  0.00000000000E+00 0.  1.
         22    1    5    5    0    0  0.12971898191E+03 -0.95541292551E+02  0.33038951992E+03  0.36757636992E+03  0.00000000000E+00 0.  1.
          5    1    4    4  502    0 -0.22868805883E+02 -0.82674216894E+01  0.36445245283E+02  0.44064480567E+02  0.47000000000E+01 0. -1.
         -5    1    4    4    0  502 -0.10791384947E+03 -0.13945521534E+02 -0.11028873999E+03  0.15500184724E+03  0.47000000000E+01 0. -1.
<mgrwt>
<rscale>  0 0.10007207E+04</rscale>
<asrwt>0</asrwt>
<pdfrwt beam="1">  1        2 0.64529321E-01 0.10007207E+04</pdfrwt>
<pdfrwt beam="2">  1       -2 0.91829452E-01 0.10007207E+04</pdfrwt>
<totfact> 0.90753289E+01</totfact>
</mgrwt>
</event>
<event>
 9    1  0.4307774E-036  0.1000140E+04  0.7818608E-02  0.8680904E-01
         -2   -1    0    0    0  501 -0.00000000000E+00  0.00000000000E+00  0.10244380384E+03  0.10244380384E+03  0.00000000000E+00 0. -1.
          2   -1    0    0  501    0  0.00000000000E+00 -0.00000000000E+00 -0.24410480893E+04  0.24410480893E+04  0.00000000000E+00 0. -1.
         36    2    1    2    0    0 -0.42632564146E-13  0.14210854715E-13 -0.23386042854E+04  0.25434918931E+04  0.10001404934E+04 0.  0.
         25    2    3    3    0    0 -0.90367889254E+02  0.61822702617E+02 -0.21825091097E+03  0.27461135901E+03  0.12565642200E+03 0.  0.
         35    2    3    3    0    0  0.90367889254E+02 -0.61822702617E+02 -0.21203533745E+04  0.22688805341E+04  0.79995752604E+03 0.  0.
         22    1    5    5    0    0 -0.29569793946E+03  0.11280501175E+03 -0.48196618667E+03  0.57658793534E+03  0.00000000000E+00 0. -1.
         22    1    5    5    0    0  0.38606582872E+03 -0.17462771437E+03 -0.16383871878E+04  0.16922925988E+04  0.00000000000E+00 0. -1.
          5    1    4    4  502    0 -0.85985833325E+02  0.95621707820E+02 -0.19287088390E+03  0.23185845336E+03  0.47000000000E+01 0.  1.
         -5    1    4    4    0  502 -0.43820559288E+01 -0.33799005204E+02 -0.25380027070E+02  0.42752905644E+02  0.47000000000E+01 0.  1.
<mgrwt>
<rscale>  0 0.10001405E+04</rscale>
<asrwt>0</asrwt>
<pdfrwt beam="1">  1        2 0.37554588E+00 0.10001405E+04</pdfrwt>
<pdfrwt beam="2">  1       -2 0.15760584E-01 0.10001405E+04</pdfrwt>
<totfact> 0.13912247E+02</totfact>
</mgrwt>
</event>
<event>
 9    1  0.4307774E-036  0.9994862E+03  0.7818608E-02  0.8681527E-01
          1   -1    0    0  501    0  0.00000000000E+00  0.00000000000E+00  0.33638730596E+03  0.33638730596E+03  0.00000000000E+00 0. -1.
         -1   -1    0    0    0  501 -0.00000000000E+00 -0.00000000000E+00 -0.74242738191E+03  0.74242738191E+03  0.00000000000E+00 0. -1.
         36    2    1    2    0    0  0.00000000000E+00 -0.35527136788E-14 -0.40604007596E+03  0.10788146879E+04  0.99948616173E+03 0.  0.
         25    2    3    3    0    0  0.76564526648E+02 -0.30825105101E+02  0.44916579854E+02  0.15607358258E+03  0.12461601097E+03 0.  0.
         35    2    3    3    0    0 -0.76564526648E+02  0.30825105101E+02 -0.45095665581E+03  0.92274110529E+03  0.80079768239E+03 0.  0.
         22    1    5    5    0    0  0.14337306419E+03  0.69450379019E+02  0.18768785908E+03  0.24618270274E+03  0.00000000000E+00 0.  1.
         22    1    5    5    0    0 -0.21993759084E+03 -0.38625273919E+02 -0.63864451489E+03  0.67655840254E+03  0.00000000000E+00 0.  1.
          5    1    4    4  502    0 -0.14601310555E+02  0.24057034990E+02  0.40405619553E+02  0.49463555209E+02  0.47000000000E+01 0. -1.
         -5    1    4    4    0  502  0.91165837203E+02 -0.54882140091E+02  0.45109603011E+01  0.10661002737E+03  0.47000000000E+01 0. -1.
<mgrwt>
<rscale>  0 0.99948616E+03</rscale>
<asrwt>0</asrwt>
<pdfrwt beam="1">  1        1 0.51751893E-01 0.99948616E+03</pdfrwt>
<pdfrwt beam="2">  1       -1 0.11421960E+00 0.99948616E+03</pdfrwt>
<totfact> 0.63341945E+01</totfact>
</mgrwt>
</event>
<event>
 9    1  0.4307774E-036  0.1000418E+04  0.7818608E-02  0.8680640E-01
          2   -1    0    0  501    0  0.00000000000E+00  0.00000000000E+00  0.81653071483E+03  0.81653071483E+03  0.00000000000E+00 0. -1.
         -2   -1    0    0    0  501 -0.00000000000E+00 -0.00000000000E+00 -0.30642965878E+03  0.30642965878E+03  0.00000000000E+00 0. -1.
         36    2    1    2    0    0  0.00000000000E+00  0.00000000000E+00  0.51010105605E+03  0.11229603736E+04  0.10004183691E+04 0.  0.
         25    2    3    3    0    0  0.88580127174E+02 -0.14723825559E+02  0.21700802086E+03  0.26586949682E+03  0.12462294433E+03 0.  0.
         35    2    3    3    0    0 -0.88580127174E+02  0.14723825559E+02  0.29309303519E+03  0.85709087678E+03  0.80039865931E+03 0.  0.
         22    1    5    5    0    0  0.25613322183E+03 -0.49652388614E+02 -0.14297873799E+03  0.29751051500E+03  0.00000000000E+00 0. -1.
         22    1    5    5    0    0 -0.34471334900E+03  0.64376214173E+02  0.43607177318E+03  0.55958036178E+03  0.00000000000E+00 0. -1.
          5    1    4    4  502    0  0.97063830341E+02 -0.38830440955E+02  0.95697363161E+02  0.14180714235E+03  0.47000000000E+01 0.  1.
         -5    1    4    4    0  502 -0.84837031672E+01  0.24106615396E+02  0.12131065770E+03  0.12406235447E+03  0.47000000000E+01 0.  1.
<mgrwt>
<rscale>  0 0.10004184E+04</rscale>
<asrwt>0</asrwt>
<pdfrwt beam="1">  1        2 0.12562011E+00 0.10004184E+04</pdfrwt>
<pdfrwt beam="2">  1       -2 0.47143025E-01 0.10004184E+04</pdfrwt>
<totfact> 0.17299564E+02</totfact>
</mgrwt>
</event>
<event>
 9    1  0.4307774E-036  0.9997245E+03  0.7818608E-02  0.8681300E-01
         -2   -1    0    0    0  501 -0.00000000000E+00  0.00000000000E+00  0.21200754554E+03  0.21200754554E+03  0.00000000000E+00 0. -1.
          2   -1    0    0  501    0  0.00000000000E+00 -0.00000000000E+00 -0.11785536270E+04  0.11785536270E+04  0.00000000000E+00 0. -1.
         36    2    1    2    0    0  0.14210854715E-13 -0.71054273576E-14 -0.96654608146E+03  0.13905611725E+04  0.99972448555E+03 0.  0.
         25    2    3    3    0    0 -0.11922098513E+03  0.11411345958E+02 -0.84871791961E+02  0.19369719900E+03  0.12637848598E+03 0.  0.
         35    2    3    3    0    0  0.11922098513E+03 -0.11411345958E+02 -0.88167428950E+03  0.11968639735E+04  0.80049357042E+03 0.  0.
         22    1    5    5    0    0  0.74008120426E+02  0.18849093620E+03 -0.95724088591E+03  0.97842534134E+03  0.00000000000E+00 0.  1.
         22    1    5    5    0    0  0.45212864707E+02 -0.19990228216E+03  0.75566596406E+02  0.21843863221E+03  0.00000000000E+00 0.  1.
          5    1    4    4  502    0 -0.14078670740E+03  0.26299848239E+02 -0.54512850002E+02  0.15331770874E+03  0.47000000000E+01 0.  1.
         -5    1    4    4    0  502  0.21565722267E+02 -0.14888502281E+02 -0.30358941958E+02  0.40379490263E+02  0.47000000000E+01 0.  1.
<mgrwt>
<rscale>  0 0.99972449E+03</rscale>
<asrwt>0</asrwt>
<pdfrwt beam="1">  1        2 0.18131594E+00 0.99972449E+03</pdfrwt>
<pdfrwt beam="2">  1       -2 0.32616546E-01 0.99972449E+03</pdfrwt>
<totfact> 0.20597223E+02</totfact>
</mgrwt>
</event>
<event>
 9    1  0.4307774E-036  0.9996187E+03  0.7818608E-02  0.8681401E-01
         -1   -1    0    0    0  501 -0.00000000000E+00  0.00000000000E+00  0.52318161394E+03  0.52318161394E+03  0.00000000000E+00 0. -1.
          1   -1    0    0  501    0  0.00000000000E+00 -0.00000000000E+00 -0.47748123888E+03  0.47748123888E+03  0.00000000000E+00 0. -1.
         36    2    1    2    0    0  0.00000000000E+00  0.00000000000E+00  0.45700375062E+02  0.10006628528E+04  0.99961873769E+03 0.  0.
         25    2    3    3    0    0 -0.34930243445E+02  0.12698397004E+03 -0.39256648728E+02  0.18559428622E+03  0.12473613773E+03 0.  0.
         35    2    3    3    0    0  0.34930243445E+02 -0.12698397004E+03  0.84957023790E+02  0.81506856660E+03  0.79985875116E+03 0.  0.
         22    1    5    5    0    0  0.16055097600E+03 -0.38034113883E+03  0.25485392666E+03  0.48516648866E+03  0.00000000000E+00 0.  1.
         22    1    5    5    0    0 -0.12562073255E+03  0.25335716879E+03 -0.16989690287E+03  0.32990207794E+03  0.00000000000E+00 0.  1.
          5    1    4    4  502    0 -0.20223409024E+02  0.89204104249E+02 -0.84534125422E+02  0.12463734131E+03  0.47000000000E+01 0. -1.
         -5    1    4    4    0  502 -0.14706834421E+02  0.37779865790E+02  0.45277476694E+02  0.60956944917E+02  0.47000000000E+01 0. -1.
<mgrwt>
<rscale>  0 0.99961874E+03</rscale>
<asrwt>0</asrwt>
<pdfrwt beam="1">  1        1 0.73458652E-01 0.99961874E+03</pdfrwt>
<pdfrwt beam="2">  1       -1 0.80489479E-01 0.99961874E+03</pdfrwt>
<totfact> 0.86051613E+01</totfact>
</mgrwt>
</event>
<event>
 9    1  0.4307774E-036  0.9998448E+03  0.7818608E-02  0.8681186E-01
          2   -1    0    0  501    0  0.00000000000E+00  0.00000000000E+00  0.10470597814E+04  0.10470597814E+04  0.00000000000E+00 0.  1.
         -2   -1    0    0    0  501 -0.00000000000E+00 -0.00000000000E+00 -0.23868971812E+03  0.23868971812E+03  0.00000000000E+00 0.  1.
         36    2    1    2    0    0  0.28421709430E-13 -0.35527136788E-14  0.80837006324E+03  0.12857494995E+04  0.99984479608E+03 0.  0.
         25    2    3    3    0    0 -0.65994710308E+02 -0.34863145294E+01 -0.11989184540E+02  0.13807744653E+03  0.12064072496E+03 0.  0.
         35    2    3    3    0    0  0.65994710308E+02  0.34863145294E+01  0.82035924778E+03  0.11476720529E+04  0.79987148312E+03 0.  0.
         22    1    5    5    0    0  0.40152553577E+03 -0.13355804034E+03  0.55770466257E+03  0.70006785148E+03  0.00000000000E+00 0.  1.
         22    1    5    5    0    0 -0.33553082546E+03  0.13704435487E+03  0.26265458521E+03  0.44760420146E+03  0.00000000000E+00 0.  1.
          5    1    4    4  502    0 -0.92681953571E+02  0.26716886395E+02 -0.35732702329E+01  0.96636405130E+02  0.47000000000E+01 0.  1.
         -5    1    4    4    0  502  0.26687243262E+02 -0.30203200925E+02 -0.84159143069E+01  0.41441041404E+02  0.47000000000E+01 0.  1.
<mgrwt>
<rscale>  0 0.99984480E+03</rscale>
<asrwt>0</asrwt>
<pdfrwt beam="1">  1        2 0.16108612E+00 0.99984480E+03</pdfrwt>
<pdfrwt beam="2">  1       -2 0.36721496E-01 0.99984480E+03</pdfrwt>
<totfact> 0.19833819E+02</totfact>
</mgrwt>
</event>
<event>
 9    1  0.4307774E-036  0.9983204E+03  0.7818608E-02  0.8682639E-01
          1   -1    0    0  501    0  0.00000000000E+00  0.00000000000E+00  0.93713697128E+03  0.93713697128E+03  0.00000000000E+00 0.  1.
         -1   -1    0    0    0  501 -0.00000000000E+00 -0.00000000000E+00 -0.26587457224E+03  0.26587457224E+03  0.00000000000E+00 0.  1.
         36    2    1    2    0    0  0.14210854715E-13  0.00000000000E+00  0.67126239904E+03  0.12030115435E+04  0.99832037216E+03 0.  0.
         25    2    3    3    0    0  0.70594722543E+02  0.35963482323E+02  0.26134237126E+03  0.30052802473E+03  0.12546023961E+03 0.  0.
         35    2    3    3    0    0 -0.70594722543E+02 -0.35963482323E+02  0.40992002778E+03  0.90248351879E+03  0.80010317184E+03 0.  0.
         22    1    5    5    0    0 -0.38607998465E+03  0.16608162143E+03  0.28402594765E+03  0.50725890674E+03  0.00000000000E+00 0. -1.
         22    1    5    5    0    0  0.31548526211E+03 -0.20204510376E+03  0.12589408013E+03  0.39522461205E+03  0.00000000000E+00 0. -1.
          5    1    4    4  502    0 -0.14500142237E+02  0.77747007165E+01  0.17547166900E+03  0.17630398951E+03  0.47000000000E+01 0.  1.
         -5    1    4    4    0  502  0.85094864780E+02  0.28188781607E+02  0.85870702267E+02  0.12422403523E+03  0.47000000000E+01 0.  1.
<mgrwt>
<rscale>  0 0.99832037E+03</rscale>
<asrwt>0</asrwt>
<pdfrwt beam="1">  1        1 0.14417492E+00 0.99832037E+03</pdfrwt>
<pdfrwt beam="2">  1       -1 0.40903781E-01 0.99832037E+03</pdfrwt>
<totfact> 0.11163130E+02</totfact>
</mgrwt>
</event>
<event>
 9    1  0.4307774E-036  0.1001572E+04  0.7818608E-02  0.8679542E-01
          2   -1    0    0  501    0  0.00000000000E+00  0.00000000000E+00  0.29293102531E+03  0.29293102531E+03  0.00000000000E+00 0. -1.
         -2   -1    0    0    0  501 -0.00000000000E+00 -0.00000000000E+00 -0.85612922069E+03  0.85612922069E+03  0.00000000000E+00 0. -1.
         36    2    1    2    0    0  0.00000000000E+00  0.56843418861E-13 -0.56319819538E+03  0.11490602460E+04  0.10015723846E+04 0.  0.
         25    2    3    3    0    0  0.55318066605E+02 -0.12843819666E+03 -0.15293079871E+03  0.24183950372E+03  0.12466778859E+03 0.  0.
         35    2    3    3    0    0 -0.55318066605E+02  0.12843819666E+03 -0.41026739667E+03  0.90722074228E+03  0.79697784135E+03 0.  0.
         22    1    5    5    0    0 -0.61696024808E+01  0.46392987481E+03 -0.18158383093E+03  0.49823857778E+03  0.00000000000E+00 0. -1.
         22    1    5    5    0    0 -0.49148464124E+02 -0.33549167815E+03 -0.22868356574E+03  0.40898216450E+03  0.00000000000E+00 0. -1.
          5    1    4    4  502    0  0.68153454213E+02 -0.42768319935E+02 -0.12854611611E+03  0.15172414599E+03  0.47000000000E+01 0. -1.
         -5    1    4    4    0  502 -0.12835387607E+02 -0.85669876724E+02 -0.24384682601E+02  0.90115357728E+02  0.47000000000E+01 0. -1.
<mgrwt>
<rscale>  0 0.10015724E+04</rscale>
<asrwt>0</asrwt>
<pdfrwt beam="1">  1        2 0.45066312E-01 0.10015724E+04</pdfrwt>
<pdfrwt beam="2">  1       -2 0.13171219E+00 0.10015724E+04</pdfrwt>
<totfact> 0.54595903E+01</totfact>
</mgrwt>
</event>
<event>
 9    1  0.4307774E-036  0.1000815E+04  0.7818608E-02  0.8680262E-01
          2   -1    0    0  501    0  0.00000000000E+00  0.00000000000E+00  0.21937043224E+03  0.21937043224E+03  0.00000000000E+00 0.  1.
         -2   -1    0    0    0  501 -0.00000000000E+00 -0.00000000000E+00 -0.11414828794E+04  0.11414828794E+04  0.00000000000E+00 0.  1.
         36    2    1    2    0    0 -0.28421709430E-13  0.00000000000E+00 -0.92211244718E+03  0.13608533117E+04  0.10008148533E+04 0.  0.
         25    2    3    3    0    0  0.39746956666E+02  0.89379176925E+02 -0.31536222825E+03  0.35245816314E+03  0.12330840977E+03 0.  0.
         35    2    3    3    0    0 -0.39746956666E+02 -0.89379176925E+02 -0.60675021893E+03  0.10083951485E+04  0.79946637801E+03 0.  0.
         22    1    5    5    0    0 -0.32263745784E+03 -0.17426554271E+03 -0.39441171152E+02  0.36880755762E+03  0.00000000000E+00 0.  1.
         22    1    5    5    0    0  0.28289050117E+03  0.84886365790E+02 -0.56730904778E+03  0.63958759091E+03  0.00000000000E+00 0.  1.
          5    1    4    4  502    0 -0.39291406719E+02  0.25869989361E+01 -0.71079747235E+02  0.81393658674E+02  0.47000000000E+01 0.  1.
         -5    1    4    4    0  502  0.79038363384E+02  0.86792177989E+02 -0.24428248102E+03  0.27106450446E+03  0.47000000000E+01 0.  1.
<mgrwt>
<rscale>  0 0.10008149E+04</rscale>
<asrwt>0</asrwt>
<pdfrwt beam="1">  1        2 0.33749297E-01 0.10008149E+04</pdfrwt>
<pdfrwt beam="2">  1       -2 0.17561275E+00 0.10008149E+04</pdfrwt>
<totfact> 0.33575006E+01</totfact>
</mgrwt>
</event>
<event>
 9    1  0.4307774E-036  0.1000230E+04  0.7818608E-02  0.8680819E-01
          2   -1    0    0  501    0  0.00000000000E+00  0.00000000000E+00  0.67622912293E+03  0.67622912293E+03  0.00000000000E+00 0. -1.
         -2   -1    0    0    0  501 -0.00000000000E+00 -0.00000000000E+00 -0.36986750460E+03  0.36986750460E+03  0.00000000000E+00 0. -1.
         36    2    1    2    0    0  0.14210854715E-13  0.35527136788E-14  0.30636161833E+03  0.10460966275E+04  0.10002303299E+04 0.  0.
         25    2    3    3    0    0 -0.86973988537E+02 -0.30237239506E+02 -0.51782895563E+02  0.16346676915E+03  0.12474434260E+03 0.  0.
         35    2    3    3    0    0  0.86973988537E+02  0.30237239506E+02  0.35814451389E+03  0.88262985838E+03  0.80142947833E+03 0.  0.
         22    1    5    5    0    0  0.30181058477E+03 -0.28235095338E+03  0.26859705550E+03  0.49290573965E+03  0.00000000000E+00 0.  1.
         22    1    5    5    0    0 -0.21483659623E+03  0.31258819289E+03  0.89547458389E+02  0.38972411873E+03  0.00000000000E+00 0.  1.
          5    1    4    4  502    0 -0.52969745642E+02 -0.48309913208E+01  0.36988565794E+02  0.64956727365E+02  0.47000000000E+01 0.  1.
         -5    1    4    4    0  502 -0.34004242895E+02 -0.25406248185E+02 -0.88771461357E+02  0.98510041788E+02  0.47000000000E+01 0.  1.
<mgrwt>
<rscale>  0 0.10002303E+04</rscale>
<asrwt>0</asrwt>
<pdfrwt beam="1">  1        2 0.10403525E+00 0.10002303E+04</pdfrwt>
<pdfrwt beam="2">  1       -2 0.56902693E-01 0.10002303E+04</pdfrwt>
<totfact> 0.14997216E+02</totfact>
</mgrwt>
</event>
<event>
 9    1  0.4307774E-036  0.1000111E+04  0.7818608E-02  0.8680933E-01
          3   -1    0    0  501    0  0.00000000000E+00  0.00000000000E+00  0.44857278944E+03  0.44857278944E+03  0.00000000000E+00 0. -1.
         -3   -1    0    0    0  501 -0.00000000000E+00 -0.00000000000E+00 -0.55744633023E+03  0.55744633023E+03  0.00000000000E+00 0. -1.
         36    2    1    2    0    0 -0.71054273576E-14 -0.14210854715E-13 -0.10887354078E+03  0.10060191197E+04  0.10001105045E+04 0.  0.
         25    2    3    3    0    0  0.51274467455E+02  0.46736146373E+02 -0.14144066047E+03  0.20158127597E+03  0.12576252223E+03 0.  0.
         35    2    3    3    0    0 -0.51274467455E+02 -0.46736146373E+02  0.32567119686E+02  0.80443784370E+03  0.80077855160E+03 0.  0.
         22    1    5    5    0    0 -0.32697060902E+03  0.13423109600E+03 -0.19507987664E+03  0.40371267576E+03  0.00000000000E+00 0. -1.
         22    1    5    5    0    0  0.27569614156E+03 -0.18096724238E+03  0.22764699632E+03  0.40072516794E+03  0.00000000000E+00 0. -1.
          5    1    4    4  502    0  0.68950766968E+02  0.13354655876E+02 -0.18353103642E+02  0.72742570152E+02  0.47000000000E+01 0.  1.
         -5    1    4    4    0  502 -0.17676299513E+02  0.33381490497E+02 -0.12308755682E+03  0.12883870582E+03  0.47000000000E+01 0.  1.
<mgrwt>
<rscale>  0 0.10001105E+04</rscale>
<asrwt>0</asrwt>
<pdfrwt beam="1">  1        3 0.69011198E-01 0.10001105E+04</pdfrwt>
<pdfrwt beam="2">  1       -3 0.85760974E-01 0.10001105E+04</pdfrwt>
<totfact> 0.96602465E+00</totfact>
</mgrwt>
</event>
<event>
 9    1  0.4307774E-036  0.9999463E+03  0.7818608E-02  0.8681089E-01
         -2   -1    0    0    0  501 -0.00000000000E+00  0.00000000000E+00  0.33636922538E+03  0.33636922538E+03  0.00000000000E+00 0.  1.
          2   -1    0    0  501    0  0.00000000000E+00 -0.00000000000E+00 -0.74315114613E+03  0.74315114613E+03  0.00000000000E+00 0.  1.
         36    2    1    2    0    0  0.35527136788E-14 -0.17763568394E-13 -0.40678192075E+03  0.10795203715E+04  0.99994634928E+03 0.  0.
         25    2    3    3    0    0  0.77031989071E+01  0.99100614246E+00 -0.22764516064E+03  0.25987901895E+03  0.12511780034E+03 0.  0.
         35    2    3    3    0    0 -0.77031989071E+01 -0.99100614246E+00 -0.17913676011E+03  0.81964135256E+03  0.79978850119E+03 0.  0.
         22    1    5    5    0    0 -0.18651569003E+03  0.19637470486E+03 -0.39354834149E+03  0.47773572656E+03  0.00000000000E+00 0. -1.
         22    1    5    5    0    0  0.17881249113E+03 -0.19736571100E+03  0.21441158138E+03  0.34190562600E+03  0.00000000000E+00 0. -1.
          5    1    4    4  502    0 -0.20410497625E+02  0.13773099931E+02 -0.22725968482E+03  0.22863801311E+03  0.47000000000E+01 0.  1.
         -5    1    4    4    0  502  0.28113696532E+02 -0.12782093788E+02 -0.38547582015E+00  0.31241005840E+02  0.47000000000E+01 0.  1.
<mgrwt>
<rscale>  0 0.99994635E+03</rscale>
<asrwt>0</asrwt>
<pdfrwt beam="1">  1        2 0.11433095E+00 0.99994635E+03</pdfrwt>
<pdfrwt beam="2">  1       -2 0.51749112E-01 0.99994635E+03</pdfrwt>
<totfact> 0.16199307E+02</totfact>
</mgrwt>
</event>
<event>
 9    1  0.4307774E-036  0.9982863E+03  0.7818608E-02  0.8682672E-01
          2   -1    0    0  501    0  0.00000000000E+00  0.00000000000E+00  0.13272236963E+04  0.13272236963E+04  0.00000000000E+00 0. -1.
         -2   -1    0    0    0  501 -0.00000000000E+00 -0.00000000000E+00 -0.18771808347E+03  0.18771808347E+03  0.00000000000E+00 0. -1.
         36    2    1    2    0    0  0.35527136788E-13  0.00000000000E+00  0.11395056128E+04  0.15149417797E+04  0.99828630884E+03 0.  0.
         25    2    3    3    0    0  0.50752583995E+01 -0.75681357775E+02  0.36768522774E+03  0.39555832211E+03  0.12458143252E+03 0.  0.
         35    2    3    3    0    0 -0.50752583995E+01  0.75681357775E+02  0.77182038505E+03  0.11193834576E+04  0.80719216564E+03 0.  0.
         22    1    5    5    0    0  0.38068564350E+03  0.64857453057E+01  0.21132005629E+03  0.43545354546E+03  0.00000000000E+00 0.  1.
         22    1    5    5    0    0 -0.38576090190E+03  0.69195612470E+02  0.56050032875E+03  0.68392991217E+03  0.00000000000E+00 0.  1.
          5    1    4    4  502    0 -0.16878739259E+02 -0.99427619921E+02  0.33271442982E+03  0.34769487378E+03  0.47000000000E+01 0. -1.
         -5    1    4    4    0  502  0.21953997659E+02  0.23746262145E+02  0.34970797927E+02  0.47863448337E+02  0.47000000000E+01 0. -1.
<mgrwt>
<rscale>  0 0.99828631E+03</rscale>
<asrwt>0</asrwt>
<pdfrwt beam="1">  1        2 0.20418826E+00 0.99828631E+03</pdfrwt>
<pdfrwt beam="2">  1       -2 0.28879706E-01 0.99828631E+03</pdfrwt>
<totfact> 0.21060117E+02</totfact>
</mgrwt>
</event>
<event>
 9    1  0.4307774E-036  0.9984736E+03  0.7818608E-02  0.8682493E-01
         -2   -1    0    0    0  501 -0.00000000000E+00  0.00000000000E+00  0.89075363410E+02  0.89075363410E+02  0.00000000000E+00 0. -1.
          2   -1    0    0  501    0  0.00000000000E+00 -0.00000000000E+00 -0.27980506380E+04  0.27980506380E+04  0.00000000000E+00 0. -1.
         36    2    1    2    0    0  0.21316282073E-13  0.00000000000E+00 -0.27089752746E+04  0.28871260015E+04  0.99847358988E+03 0.  0.
         25    2    3    3    0    0 -0.61386165839E+00 -0.13341938482E+03 -0.60705007585E+03  0.63412774235E+03  0.12572625004E+03 0.  0.
         35    2    3    3    0    0  0.61386165839E+00  0.13341938482E+03 -0.21019251988E+04  0.22529982591E+04  0.80006906276E+03 0.  0.
         22    1    5    5    0    0 -0.12886034124E+03  0.44000118846E+03 -0.14544347865E+04  0.15249874037E+04  0.00000000000E+00 0.  1.
         22    1    5    5    0    0  0.12947420290E+03 -0.30658180364E+03 -0.64749041231E+03  0.72801085539E+03  0.00000000000E+00 0.  1.
          5    1    4    4  502    0  0.90473104163E+01 -0.15526382408E+03 -0.47449538542E+03  0.49935625527E+03  0.47000000000E+01 0.  1.
         -5    1    4    4    0  502 -0.96611720747E+01  0.21844439264E+02 -0.13255469043E+03  0.13477148707E+03  0.47000000000E+01 0.  1.
<mgrwt>
<rscale>  0 0.99847359E+03</rscale>
<asrwt>0</asrwt>
<pdfrwt beam="1">  1        2 0.43046926E+00 0.99847359E+03</pdfrwt>
<pdfrwt beam="2">  1       -2 0.13703904E-01 0.99847359E+03</pdfrwt>
<totfact> 0.10549205E+02</totfact>
</mgrwt>
</event>
<event>
 9    1  0.4307774E-036  0.1000762E+04  0.7818608E-02  0.8680313E-01
         -2   -1    0    0    0  501 -0.00000000000E+00  0.00000000000E+00  0.27115489832E+03  0.27115489832E+03  0.00000000000E+00 0.  1.
          2   -1    0    0  501    0  0.00000000000E+00 -0.00000000000E+00 -0.92338761094E+03  0.92338761094E+03  0.00000000000E+00 0.  1.
         36    2    1    2    0    0 -0.28421709430E-13  0.00000000000E+00 -0.65223271262E+03  0.11945425093E+04  0.10007618573E+04 0.  0.
         25    2    3    3    0    0  0.10624981542E+03  0.91609132222E+02 -0.14664699501E+03  0.23852578781E+03  0.12533137645E+03 0.  0.
         35    2    3    3    0    0 -0.10624981542E+03 -0.91609132222E+02 -0.50558571762E+03  0.95601672146E+03  0.79916819097E+03 0.  0.
         22    1    5    5    0    0 -0.25193801587E+03 -0.17709629501E+03  0.10276648750E+03  0.32464875250E+03  0.00000000000E+00 0.  1.
         22    1    5    5    0    0  0.14568820045E+03  0.85487162786E+02 -0.60835220512E+03  0.63136796896E+03  0.00000000000E+00 0.  1.
          5    1    4    4  502    0  0.19978633881E+02  0.13824091867E+02  0.22389150409E+02  0.33370876281E+02  0.47000000000E+01 0. -1.
         -5    1    4    4    0  502  0.86271181541E+02  0.77785040355E+02 -0.16903614542E+03  0.20515491153E+03  0.47000000000E+01 0. -1.
<mgrwt>
<rscale>  0 0.10007619E+04</rscale>
<asrwt>0</asrwt>
<pdfrwt beam="1">  1        2 0.14205963E+00 0.10007619E+04</pdfrwt>
<pdfrwt beam="2">  1       -2 0.41716138E-01 0.10007619E+04</pdfrwt>
<totfact> 0.18624797E+02</totfact>
</mgrwt>
</event>
<event>
 9    1  0.4307774E-036  0.1000104E+04  0.7818608E-02  0.8680939E-01
         -2   -1    0    0    0  501 -0.00000000000E+00  0.00000000000E+00  0.17809090056E+03  0.17809090056E+03  0.00000000000E+00 0. -1.
          2   -1    0    0  501    0  0.00000000000E+00 -0.00000000000E+00 -0.14040685118E+04  0.14040685118E+04  0.00000000000E+00 0. -1.
         36    2    1    2    0    0  0.00000000000E+00  0.00000000000E+00 -0.12259776113E+04  0.15821594124E+04  0.10001036461E+04 0.  0.
         25    2    3    3    0    0  0.90678964431E+02 -0.20938117879E+02 -0.39957653911E+03  0.42877749447E+03  0.12460999070E+03 0.  0.
         35    2    3    3    0    0 -0.90678964431E+02  0.20938117879E+02 -0.82640107214E+03  0.11533819179E+04  0.79918085383E+03 0.  0.
         22    1    5    5    0    0 -0.10827269836E+03 -0.98386344302E+02  0.12618021458E+03  0.19319497019E+03  0.00000000000E+00 0. -1.
         22    1    5    5    0    0  0.17593733932E+02  0.11932446218E+03 -0.95258128672E+03  0.96018694771E+03  0.00000000000E+00 0. -1.
          5    1    4    4  502    0  0.58113381296E+02  0.50323382698E+02 -0.20124022975E+03  0.21547465745E+03  0.47000000000E+01 0. -1.
         -5    1    4    4    0  502  0.32565583135E+02 -0.71261500577E+02 -0.19833630936E+03  0.21330283702E+03  0.47000000000E+01 0. -1.
<mgrwt>
<rscale>  0 0.10001036E+04</rscale>
<asrwt>0</asrwt>
<pdfrwt beam="1">  1        2 0.21601055E+00 0.10001036E+04</pdfrwt>
<pdfrwt beam="2">  1       -2 0.27398599E-01 0.10001036E+04</pdfrwt>
<totfact> 0.20923324E+02</totfact>
</mgrwt>
</event>
<event>
 9    1  0.4307774E-036  0.1000501E+04  0.7818608E-02  0.8680561E-01
         -2   -1    0    0    0  501 -0.00000000000E+00  0.00000000000E+00  0.28894116328E+03  0.28894116328E+03  0.00000000000E+00 0.  1.
          2   -1    0    0  501    0  0.00000000000E+00 -0.00000000000E+00 -0.86609460013E+03  0.86609460013E+03  0.00000000000E+00 0.  1.
         36    2    1    2    0    0  0.00000000000E+00  0.00000000000E+00 -0.57715343685E+03  0.11550357634E+04  0.10005006372E+04 0.  0.
         25    2    3    3    0    0 -0.85503599306E+02 -0.92395622670E+02 -0.18007250341E+03  0.25280708850E+03  0.12504999372E+03 0.  0.
         35    2    3    3    0    0  0.85503599306E+02  0.92395622670E+02 -0.39708093344E+03  0.90222867491E+03  0.80030962605E+03 0.  0.
         22    1    5    5    0    0  0.83493821928E+02  0.53786167090E+01 -0.63934860565E+03  0.64479980410E+03  0.00000000000E+00 0. -1.
         22    1    5    5    0    0  0.20097773788E+01  0.87017005961E+02  0.24226767221E+03  0.25742887082E+03  0.00000000000E+00 0. -1.
          5    1    4    4  502    0  0.10702556947E+02 -0.47740208069E+02 -0.68330448275E+01  0.49623106446E+02  0.47000000000E+01 0. -1.
         -5    1    4    4    0  502 -0.96206156253E+02 -0.44655414600E+02 -0.17323945858E+03  0.20318398206E+03  0.47000000000E+01 0. -1.
<mgrwt>
<rscale>  0 0.10005006E+04</rscale>
<asrwt>0</asrwt>
<pdfrwt beam="1">  1        2 0.13324532E+00 0.10005006E+04</pdfrwt>
<pdfrwt beam="2">  1       -2 0.44452487E-01 0.10005006E+04</pdfrwt>
<totfact> 0.17963206E+02</totfact>
</mgrwt>
</event>
<event>
 9    1  0.4307774E-036  0.9998191E+03  0.7818608E-02  0.8681210E-01
         -2   -1    0    0    0  501 -0.00000000000E+00  0.00000000000E+00  0.75490850852E+02  0.75490850852E+02  0.00000000000E+00 0. -1.
          2   -1    0    0  501    0  0.00000000000E+00 -0.00000000000E+00 -0.33104612286E+04  0.33104612286E+04  0.00000000000E+00 0. -1.
         36    2    1    2    0    0  0.00000000000E+00  0.00000000000E+00 -0.32349703777E+04  0.33859520794E+04  0.99981905334E+03 0.  0.
         25    2    3    3    0    0 -0.11326031370E+03  0.73493812826E+02 -0.47750236494E+03  0.51172823451E+03  0.12501215256E+03 0.  0.
         35    2    3    3    0    0  0.11326031370E+03 -0.73493812826E+02 -0.27574680128E+04  0.28742238449E+04  0.79956465028E+03 0.  0.
         22    1    5    5    0    0  0.20907838423E+03  0.27759059830E+03 -0.66485549461E+03  0.75020206593E+03  0.00000000000E+00 0.  1.
         22    1    5    5    0    0 -0.95818070532E+02 -0.35108441113E+03 -0.20926125182E+04  0.21240217790E+04  0.00000000000E+00 0.  1.
          5    1    4    4  502    0 -0.12276084584E+03  0.98096226421E+02 -0.40674980133E+03  0.43607405999E+03  0.47000000000E+01 0.  1.
         -5    1    4    4    0  502  0.95005321408E+01 -0.24602413595E+02 -0.70752563613E+02  0.75654174527E+02  0.47000000000E+01 0.  1.
<mgrwt>
<rscale>  0 0.99981905E+03</rscale>
<asrwt>0</asrwt>
<pdfrwt beam="1">  1        2 0.50930161E+00 0.99981905E+03</pdfrwt>
<pdfrwt beam="2">  1       -2 0.11613980E-01 0.99981905E+03</pdfrwt>
<totfact> 0.62360473E+01</totfact>
</mgrwt>
</event>
<event>
 9    1  0.4307774E-036  0.9988480E+03  0.7818608E-02  0.8682136E-01
         -1   -1    0    0    0  501 -0.00000000000E+00  0.00000000000E+00  0.10446068269E+03  0.10446068269E+03  0.00000000000E+00 0.  1.
          1   -1    0    0  501    0  0.00000000000E+00 -0.00000000000E+00 -0.23877343068E+04  0.23877343068E+04  0.00000000000E+00 0.  1.
         36    2    1    2    0    0 -0.42632564146E-13 -0.53290705182E-14 -0.22832736241E+04  0.24921949895E+04  0.99884804805E+03 0.  0.
         25    2    3    3    0    0  0.12100845987E+03  0.60702520305E+01 -0.59408976607E+03  0.61916473285E+03  0.12546880465E+03 0.  0.
         35    2    3    3    0    0 -0.12100845987E+03 -0.60702520305E+01 -0.16891838581E+04  0.18730302567E+04  0.80013770109E+03 0.  0.
         22    1    5    5    0    0  0.33629147171E+03  0.53540464381E+02 -0.84617225832E+03  0.91212171667E+03  0.00000000000E+00 0. -1.
         22    1    5    5    0    0 -0.45729993158E+03 -0.59610716411E+02 -0.84301159975E+03  0.96090854000E+03  0.00000000000E+00 0. -1.
          5    1    4    4  502    0  0.52226949147E+02 -0.12844078506E+02 -0.48955258624E+03  0.49252050644E+03  0.47000000000E+01 0.  1.
         -5    1    4    4    0  502  0.68781510722E+02  0.18914330537E+02 -0.10453717983E+03  0.12664422641E+03  0.47000000000E+01 0.  1.
<mgrwt>
<rscale>  0 0.99884805E+03</rscale>
<asrwt>0</asrwt>
<pdfrwt beam="1">  1        1 0.36734374E+00 0.99884805E+03</pdfrwt>
<pdfrwt beam="2">  1       -1 0.16070874E-01 0.99884805E+03</pdfrwt>
<totfact> 0.48696399E+01</totfact>
</mgrwt>
</event>
<event>
 9    1  0.4307774E-036  0.9907440E+03  0.7818608E-02  0.8689903E-01
         -1   -1    0    0    0  501 -0.00000000000E+00  0.00000000000E+00  0.83054835851E+02  0.83054835851E+02  0.00000000000E+00 0. -1.
          1   -1    0    0  501    0  0.00000000000E+00 -0.00000000000E+00 -0.29545949965E+04  0.29545949965E+04  0.00000000000E+00 0. -1.
         36    2    1    2    0    0  0.00000000000E+00 -0.63948846218E-13 -0.28715401606E+04  0.30376498323E+04  0.99074396781E+03 0.  0.
         25    2    3    3    0    0  0.11312108395E+03 -0.45198187933E+02 -0.38273865007E+03  0.42062893861E+03  0.12490225745E+03 0.  0.
         35    2    3    3    0    0 -0.11312108395E+03  0.45198187933E+02 -0.24888015106E+04  0.26170208937E+04  0.79989133222E+03 0.  0.
         22    1    5    5    0    0 -0.20613224616E+03 -0.32047322174E+03 -0.79362493923E+03  0.88036022907E+03  0.00000000000E+00 0. -1.
         22    1    5    5    0    0  0.93011162205E+02  0.36567140968E+03 -0.16951765713E+04  0.17366606646E+04  0.00000000000E+00 0. -1.
          5    1    4    4  502    0  0.97526205069E+02 -0.88425834393E+01 -0.12032546709E+03  0.15520908475E+03  0.47000000000E+01 0.  1.
         -5    1    4    4    0  502  0.15594878880E+02 -0.36355604494E+02 -0.26241318298E+03  0.26541985387E+03  0.47000000000E+01 0.  1.
<mgrwt>
<rscale>  0 0.99074397E+03</rscale>
<asrwt>0</asrwt>
<pdfrwt beam="1">  1        1 0.45455317E+00 0.99074397E+03</pdfrwt>
<pdfrwt beam="2">  1       -1 0.12777665E-01 0.99074397E+03</pdfrwt>
<totfact> 0.27970408E+01</totfact>
</mgrwt>
</event>
<event>
 9    1  0.4307774E-036  0.9999585E+03  0.7818608E-02  0.8681078E-01
          1   -1    0    0  501    0  0.00000000000E+00  0.00000000000E+00  0.23354619740E+04  0.23354619740E+04  0.00000000000E+00 0. -1.
         -1   -1    0    0    0  501 -0.00000000000E+00 -0.00000000000E+00 -0.10703630930E+03  0.10703630930E+03  0.00000000000E+00 0. -1.
         36    2    1    2    0    0  0.00000000000E+00  0.00000000000E+00  0.22284256647E+04  0.24424982833E+04  0.99995845958E+03 0.  0.
         25    2    3    3    0    0 -0.12218264156E+03  0.65350524187E+02  0.37173211437E+03  0.41590437104E+03  0.12486950021E+03 0.  0.
         35    2    3    3    0    0  0.12218264156E+03 -0.65350524187E+02  0.18566935504E+04  0.20265939123E+04  0.80035783030E+03 0.  0.
         22    1    5    5    0    0 -0.90986628822E+02  0.13879211000E+03  0.16680948205E+04  0.16763299635E+04  0.00000000000E+00 0.  1.
         22    1    5    5    0    0  0.21316927038E+03 -0.20414263419E+03  0.18859872991E+03  0.35026394883E+03  0.00000000000E+00 0.  1.
          5    1    4    4  502    0 -0.61626018943E+02  0.56378785559E+02  0.33291549858E+03  0.34326542626E+03  0.47000000000E+01 0.  1.
         -5    1    4    4    0  502 -0.60556622614E+02  0.89717386280E+01  0.38816615791E+02  0.72638944774E+02  0.47000000000E+01 0.  1.
<mgrwt>
<rscale>  0 0.99995846E+03</rscale>
<asrwt>0</asrwt>
<pdfrwt beam="1">  1        1 0.35930180E+00 0.99995846E+03</pdfrwt>
<pdfrwt beam="2">  1       -1 0.16467126E-01 0.99995846E+03</pdfrwt>
<totfact> 0.50935798E+01</totfact>
</mgrwt>
</event>
<event>
 9    1  0.4307774E-036  0.1002183E+04  0.7818608E-02  0.8678961E-01
         -2   -1    0    0    0  501 -0.00000000000E+00  0.00000000000E+00  0.83064811328E+02  0.83064811328E+02  0.00000000000E+00 0.  1.
          2   -1    0    0  501    0  0.00000000000E+00 -0.00000000000E+00 -0.30228555252E+04  0.30228555252E+04  0.00000000000E+00 0.  1.
         36    2    1    2    0    0  0.35527136788E-14  0.00000000000E+00 -0.29397907138E+04  0.31059203365E+04  0.10021834640E+04 0.  0.
         25    2    3    3    0    0 -0.38084316863E+01  0.39672511921E+02 -0.98129310323E+03  0.99014427173E+03  0.12594090696E+03 0.  0.
         35    2    3    3    0    0  0.38084316863E+01 -0.39672511921E+02 -0.19584976106E+04  0.21157760648E+04  0.79950425459E+03 0.  0.
         22    1    5    5    0    0  0.86618631438E+02  0.72109761564E+02  0.34547423030E+02  0.11788184535E+03  0.00000000000E+00 0. -1.
         22    1    5    5    0    0 -0.82810199752E+02 -0.11178227349E+03 -0.19930450336E+04  0.19978942194E+04  0.00000000000E+00 0. -1.
          5    1    4    4  502    0  0.15447329796E+01  0.44795999451E+02 -0.11091230455E+03  0.11971924268E+03  0.47000000000E+01 0. -1.
         -5    1    4    4    0  502 -0.53531646659E+01 -0.51234875299E+01 -0.87038079868E+03  0.87042502905E+03  0.47000000000E+01 0. -1.
<mgrwt>
<rscale>  0 0.10021835E+04</rscale>
<asrwt>0</asrwt>
<pdfrwt beam="1">  1        2 0.46505463E+00 0.10021835E+04</pdfrwt>
<pdfrwt beam="2">  1       -2 0.12779204E-01 0.10021835E+04</pdfrwt>
<totfact> 0.84347335E+01</totfact>
</mgrwt>
</event>
<event>
 9    1  0.4307774E-036  0.1000207E+04  0.7818608E-02  0.8680841E-01
         -2   -1    0    0    0  501 -0.00000000000E+00  0.00000000000E+00  0.26937201427E+03  0.26937201427E+03  0.00000000000E+00 0.  1.
          2   -1    0    0  501    0  0.00000000000E+00 -0.00000000000E+00 -0.92846806193E+03  0.92846806193E+03  0.00000000000E+00 0.  1.
         36    2    1    2    0    0  0.00000000000E+00 -0.14210854715E-13 -0.65909604766E+03  0.11978400762E+04  0.10002066027E+04 0.  0.
         25    2    3    3    0    0 -0.93186583887E+02 -0.10181944026E+03 -0.15474585402E+03  0.24216387430E+03  0.12508447085E+03 0.  0.
         35    2    3    3    0    0  0.93186583887E+02  0.10181944026E+03 -0.50435019363E+03  0.95567620189E+03  0.79993558941E+03 0.  0.
         22    1    5    5    0    0  0.11444142323E+03 -0.25936655596E+03  0.55707796317E+02  0.28891384230E+03  0.00000000000E+00 0. -1.
         22    1    5    5    0    0 -0.21254839340E+02  0.36118599622E+03 -0.56005798995E+03  0.66676235959E+03  0.00000000000E+00 0. -1.
          5    1    4    4  502    0 -0.46906557851E+02 -0.88882897100E+02 -0.24920875892E+02  0.10365102325E+03  0.47000000000E+01 0. -1.
         -5    1    4    4    0  502 -0.46280026036E+02 -0.12936543159E+02 -0.12982497813E+03  0.13851285105E+03  0.47000000000E+01 0. -1.
<mgrwt>
<rscale>  0 0.10002066E+04</rscale>
<asrwt>0</asrwt>
<pdfrwt beam="1">  1        2 0.14284124E+00 0.10002066E+04</pdfrwt>
<pdfrwt beam="2">  1       -2 0.41441848E-01 0.10002066E+04</pdfrwt>
<totfact> 0.18720491E+02</totfact>
</mgrwt>
</event>
<event>
 9    1  0.4307774E-036  0.1000054E+04  0.7818608E-02  0.8680987E-01
          2   -1    0    0  501    0  0.00000000000E+00  0.00000000000E+00  0.64563747180E+03  0.64563747180E+03  0.00000000000E+00 0. -1.
         -2   -1    0    0    0  501 -0.00000000000E+00 -0.00000000000E+00 -0.38725583628E+03  0.38725583628E+03  0.00000000000E+00 0. -1.
         36    2    1    2    0    0 -0.28421709430E-13  0.14210854715E-13  0.25838163551E+03  0.10328933081E+04  0.10000537567E+04 0.  0.
         25    2    3    3    0    0  0.73129912130E+02 -0.94261774821E+02  0.12386267881E+03  0.21274878643E+03  0.12524702266E+03 0.  0.
         35    2    3    3    0    0 -0.73129912130E+02  0.94261774821E+02  0.13451895671E+03  0.82014452165E+03  0.80019273956E+03 0.  0.
         22    1    5    5    0    0 -0.40899117517E+03  0.15321619508E+03  0.18706510008E+03  0.47512349496E+03  0.00000000000E+00 0.  1.
         22    1    5    5    0    0  0.33586126303E+03 -0.58954420259E+02 -0.52546143373E+02  0.34502102669E+03  0.00000000000E+00 0.  1.
          5    1    4    4  502    0 -0.33258867695E+02 -0.35435354153E+02  0.52536942704E+02  0.71721941921E+02  0.47000000000E+01 0. -1.
         -5    1    4    4    0  502  0.10638877982E+03 -0.58826420668E+02  0.71325736104E+02  0.14102684451E+03  0.47000000000E+01 0. -1.
<mgrwt>
<rscale>  0 0.10000538E+04</rscale>
<asrwt>0</asrwt>
<pdfrwt beam="1">  1        2 0.99328842E-01 0.10000538E+04</pdfrwt>
<pdfrwt beam="2">  1       -2 0.59577821E-01 0.10000538E+04</pdfrwt>
<totfact> 0.14421638E+02</totfact>
</mgrwt>
</event>
<event>
 9    1  0.4307774E-036  0.1000062E+04  0.7818608E-02  0.8680979E-01
         -1   -1    0    0    0  501 -0.00000000000E+00  0.00000000000E+00  0.11539578797E+03  0.11539578797E+03  0.00000000000E+00 0.  1.
          1   -1    0    0  501    0  0.00000000000E+00 -0.00000000000E+00 -0.21667264220E+04  0.21667264220E+04  0.00000000000E+00 0.  1.
         36    2    1    2    0    0  0.14210854715E-13  0.10658141036E-13 -0.20513306340E+04  0.22821222099E+04  0.10000622036E+04 0.  0.
         25    2    3    3    0    0  0.56601765287E+02 -0.17868564275E+02 -0.67297173619E+03  0.68719472093E+03  0.12578784261E+03 0.  0.
         35    2    3    3    0    0 -0.56601765287E+02  0.17868564275E+02 -0.13783588978E+04  0.15949274890E+04  0.80024833556E+03 0.  0.
         22    1    5    5    0    0  0.14283887523E+03 -0.34136805399E+03 -0.47186739539E+03  0.59966151402E+03  0.00000000000E+00 0. -1.
         22    1    5    5    0    0 -0.19944064052E+03  0.35923661826E+03 -0.90649150242E+03  0.99526597498E+03  0.00000000000E+00 0. -1.
          5    1    4    4  502    0  0.75787128910E+02  0.27677220117E+02 -0.29115027515E+03  0.30215937871E+03  0.47000000000E+01 0. -1.
         -5    1    4    4    0  502 -0.19185363622E+02 -0.45545784392E+02 -0.38182146103E+03  0.38503534222E+03  0.47000000000E+01 0. -1.
<mgrwt>
<rscale>  0 0.10000622E+04</rscale>
<asrwt>0</asrwt>
<pdfrwt beam="1">  1        1 0.33334254E+00 0.10000622E+04</pdfrwt>
<pdfrwt beam="2">  1       -1 0.17753198E-01 0.10000622E+04</pdfrwt>
<totfact> 0.59194186E+01</totfact>
</mgrwt>
</event>
<event>
 9    1  0.4307774E-036  0.1000398E+04  0.7818608E-02  0.8680659E-01
          2   -1    0    0  501    0  0.00000000000E+00  0.00000000000E+00  0.19704342527E+03  0.19704342527E+03  0.00000000000E+00 0. -1.
         -2   -1    0    0    0  501 -0.00000000000E+00 -0.00000000000E+00 -0.12697666361E+04  0.12697666361E+04  0.00000000000E+00 0. -1.
         36    2    1    2    0    0  0.00000000000E+00  0.00000000000E+00 -0.10727232109E+04  0.14668100614E+04  0.10003982553E+04 0.  0.
         25    2    3    3    0    0 -0.75588743756E+02  0.11762011520E+03 -0.20492008053E+03  0.27783632950E+03  0.12511049877E+03 0.  0.
         35    2    3    3    0    0  0.75588743756E+02 -0.11762011520E+03 -0.86780313033E+03  0.11889737319E+04  0.80064231244E+03 0.  0.
         22    1    5    5    0    0  0.16752132958E+03 -0.42156246811E+03 -0.68791711730E+03  0.82401958147E+03  0.00000000000E+00 0. -1.
         22    1    5    5    0    0 -0.91932585826E+02  0.30394235291E+03 -0.17988601303E+03  0.36495415043E+03  0.00000000000E+00 0. -1.
          5    1    4    4  502    0 -0.11026915806E+03  0.93380384442E+02 -0.14974106452E+03  0.20814336362E+03  0.47000000000E+01 0.  1.
         -5    1    4    4    0  502  0.34680414307E+02  0.24239730755E+02 -0.55179016015E+02  0.69692965871E+02  0.47000000000E+01 0.  1.
<mgrwt>
<rscale>  0 0.10003983E+04</rscale>
<asrwt>0</asrwt>
<pdfrwt beam="1">  1        2 0.30314372E-01 0.10003983E+04</pdfrwt>
<pdfrwt beam="2">  1       -2 0.19534872E+00 0.10003983E+04</pdfrwt>
<totfact> 0.27434254E+01</totfact>
</mgrwt>
</event>
<event>
 9    1  0.4307774E-036  0.9997841E+03  0.7818608E-02  0.8681244E-01
          2   -1    0    0  501    0  0.00000000000E+00  0.00000000000E+00  0.15979908379E+04  0.15979908379E+04  0.00000000000E+00 0. -1.
         -2   -1    0    0    0  501 -0.00000000000E+00 -0.00000000000E+00 -0.15637891036E+03  0.15637891036E+03  0.00000000000E+00 0. -1.
         36    2    1    2    0    0  0.00000000000E+00  0.28421709430E-13  0.14416119275E+04  0.17543697482E+04  0.99978410867E+03 0.  0.
         25    2    3    3    0    0 -0.10257737473E+03 -0.89776388919E+02  0.33005511267E+03  0.37855362440E+03  0.12563658436E+03 0.  0.
         35    2    3    3    0    0  0.10257737473E+03  0.89776388919E+02  0.11115568148E+04  0.13758161238E+04  0.79920556564E+03 0.  0.
         22    1    5    5    0    0 -0.12041652510E+03 -0.52076327762E+02  0.11036383848E+04  0.11114089111E+04  0.00000000000E+00 0. -1.
         22    1    5    5    0    0  0.22299389983E+03  0.14185271668E+03  0.79184300782E+01  0.26440721269E+03  0.00000000000E+00 0. -1.
          5    1    4    4  502    0 -0.34685584646E+02 -0.14848172162E+02  0.24024074789E+03  0.24323088814E+03  0.47000000000E+01 0. -1.
         -5    1    4    4    0  502 -0.67891790083E+02 -0.74928216758E+02  0.89814364781E+02  0.13532273626E+03  0.47000000000E+01 0. -1.
<mgrwt>
<rscale>  0 0.99978411E+03</rscale>
<asrwt>0</asrwt>
<pdfrwt beam="1">  1        2 0.24584473E+00 0.99978411E+03</pdfrwt>
<pdfrwt beam="2">  1       -2 0.24058295E-01 0.99978411E+03</pdfrwt>
<totfact> 0.20478010E+02</totfact>
</mgrwt>
</event>
<event>
 9    1  0.4307774E-036  0.9958699E+03  0.7818608E-02  0.8684981E-01
         -2   -1    0    0    0  501 -0.00000000000E+00  0.00000000000E+00  0.17116253937E+03  0.17116253937E+03  0.00000000000E+00 0. -1.
          2   -1    0    0  501    0  0.00000000000E+00 -0.00000000000E+00 -0.14485599087E+04  0.14485599087E+04  0.00000000000E+00 0. -1.
         36    2    1    2    0    0  0.00000000000E+00  0.28421709430E-13 -0.12773973693E+04  0.16197224480E+04  0.99586985576E+03 0.  0.
         25    2    3    3    0    0 -0.94634979422E+02  0.83289331642E+02 -0.30360024149E+03  0.35155766394E+03  0.12460655018E+03 0.  0.
         35    2    3    3    0    0  0.94634979422E+02 -0.83289331642E+02 -0.97379712781E+03  0.12681647841E+04  0.80253858562E+03 0.  0.
         22    1    5    5    0    0  0.57452343477E+02 -0.26329588771E+02 -0.11121765390E+04  0.11139706786E+04  0.00000000000E+00 0. -1.
         22    1    5    5    0    0  0.37182635945E+02 -0.56959742871E+02  0.13837941117E+03  0.15419410546E+03  0.00000000000E+00 0. -1.
          5    1    4    4  502    0 -0.30840396794E+02 -0.71842251696E+01 -0.19070101697E+03  0.19336936427E+03  0.47000000000E+01 0. -1.
         -5    1    4    4    0  502 -0.63794582629E+02  0.90473556812E+02 -0.11289922452E+03  0.15818829967E+03  0.47000000000E+01 0. -1.
<mgrwt>
<rscale>  0 0.99586986E+03</rscale>
<asrwt>0</asrwt>
<pdfrwt beam="1">  1        2 0.22285538E+00 0.99586986E+03</pdfrwt>
<pdfrwt beam="2">  1       -2 0.26332698E-01 0.99586986E+03</pdfrwt>
<totfact> 0.21191784E+02</totfact>
</mgrwt>
</event>
<event>
 9    1  0.4307774E-036  0.1001039E+04  0.7818608E-02  0.8680050E-01
         -1   -1    0    0    0  501 -0.00000000000E+00  0.00000000000E+00  0.87889953059E+03  0.87889953059E+03  0.00000000000E+00 0. -1.
          1   -1    0    0  501    0  0.00000000000E+00 -0.00000000000E+00 -0.28503775960E+03  0.28503775960E+03  0.00000000000E+00 0. -1.
         36    2    1    2    0    0  0.00000000000E+00  0.00000000000E+00  0.59386177099E+03  0.11639372902E+04  0.10010385669E+04 0.  0.
         25    2    3    3    0    0 -0.10506723195E+03 -0.66359968038E+02  0.19308673758E+03  0.25903091038E+03  0.11988225770E+03 0.  0.
         35    2    3    3    0    0  0.10506723195E+03  0.66359968038E+02  0.40077503341E+03  0.90490637981E+03  0.80174320093E+03 0.  0.
         22    1    5    5    0    0  0.33311642177E+02  0.16992058128E+03 -0.21518022137E+03  0.27619775002E+03  0.00000000000E+00 0. -1.
         22    1    5    5    0    0  0.71755589775E+02 -0.10356061325E+03  0.61595525478E+03  0.62870862979E+03  0.00000000000E+00 0. -1.
          5    1    4    4  502    0 -0.28939296635E+02 -0.38053922194E+02  0.16672952003E+03  0.17351197865E+03  0.47000000000E+01 0.  1.
         -5    1    4    4    0  502 -0.76127935317E+02 -0.28306045844E+02  0.26357217549E+02  0.85518931728E+02  0.47000000000E+01 0.  1.
<mgrwt>
<rscale>  0 0.10010386E+04</rscale>
<asrwt>0</asrwt>
<pdfrwt beam="1">  1        1 0.43851963E-01 0.10010386E+04</pdfrwt>
<pdfrwt beam="2">  1       -1 0.13521531E+00 0.10010386E+04</pdfrwt>
<totfact> 0.51300807E+01</totfact>
</mgrwt>
</event>
<event>
 9    1  0.4307774E-036  0.1003656E+04  0.7818608E-02  0.8677564E-01
          1   -1    0    0  501    0  0.00000000000E+00  0.00000000000E+00  0.46511360351E+03  0.46511360351E+03  0.00000000000E+00 0. -1.
         -1   -1    0    0    0  501 -0.00000000000E+00 -0.00000000000E+00 -0.54144051385E+03  0.54144051385E+03  0.00000000000E+00 0. -1.
         36    2    1    2    0    0  0.28421709430E-13 -0.14210854715E-13 -0.76326910341E+02  0.10065541174E+04  0.10036560137E+04 0.  0.
         25    2    3    3    0    0  0.98445835072E+02  0.42817839022E+02  0.83333466561E+02  0.18399235216E+03  0.12403132355E+03 0.  0.
         35    2    3    3    0    0 -0.98445835072E+02 -0.42817839022E+02 -0.15966037690E+03  0.82256176520E+03  0.79974462914E+03 0.  0.
         22    1    5    5    0    0  0.28646531115E+03  0.17728650329E+03 -0.17351540699E+03  0.37894653344E+03  0.00000000000E+00 0.  1.
         22    1    5    5    0    0 -0.38491114622E+03 -0.22010434232E+03  0.13855030089E+02  0.44361523176E+03  0.00000000000E+00 0.  1.
          5    1    4    4  502    0  0.10444218136E+03  0.54396511105E+02  0.10528434697E+03  0.15803174803E+03  0.47000000000E+01 0. -1.
         -5    1    4    4    0  502 -0.59963462884E+01 -0.11578672083E+02 -0.21950880411E+02  0.25960604131E+02  0.47000000000E+01 0. -1.
<mgrwt>
<rscale>  0 0.10036560E+04</rscale>
<asrwt>0</asrwt>
<pdfrwt beam="1">  1        1 0.71555939E-01 0.10036560E+04</pdfrwt>
<pdfrwt beam="2">  1       -1 0.83298541E-01 0.10036560E+04</pdfrwt>
<totfact> 0.82948339E+01</totfact>
</mgrwt>
</event>
<event>
 9    1  0.4307774E-036  0.1003649E+04  0.7818608E-02  0.8677571E-01
          2   -1    0    0  501    0  0.00000000000E+00  0.00000000000E+00  0.91405221269E+03  0.91405221269E+03  0.00000000000E+00 0. -1.
         -2   -1    0    0    0  501 -0.00000000000E+00 -0.00000000000E+00 -0.27550714179E+03  0.27550714179E+03  0.00000000000E+00 0. -1.
         36    2    1    2    0    0  0.14210854715E-13  0.14210854715E-13  0.63854507090E+03  0.11895593545E+04  0.10036491669E+04 0.  0.
         25    2    3    3    0    0  0.16546375851E+02 -0.10661755228E+03  0.23853413596E+03  0.29029657764E+03  0.12542919900E+03 0.  0.
         35    2    3    3    0    0 -0.16546375851E+02  0.10661755228E+03  0.40001093494E+03  0.89926277684E+03  0.79813765024E+03 0.  0.
         22    1    5    5    0    0  0.22545604984E+03  0.90410009929E+02  0.55883447254E+03  0.60934421143E+03  0.00000000000E+00 0. -1.
         22    1    5    5    0    0 -0.24200242569E+03  0.16207542356E+02 -0.15882353760E+03  0.28991856541E+03  0.00000000000E+00 0. -1.
          5    1    4    4  502    0  0.18813710504E+02 -0.13279666381E+03  0.22033344705E+03  0.25798803754E+03  0.47000000000E+01 0.  1.
         -5    1    4    4    0  502 -0.22673346531E+01  0.26179111528E+02  0.18200688910E+02  0.32308540103E+02  0.47000000000E+01 0.  1.
<mgrwt>
<rscale>  0 0.10036492E+04</rscale>
<asrwt>0</asrwt>
<pdfrwt beam="1">  1        2 0.14062342E+00 0.10036492E+04</pdfrwt>
<pdfrwt beam="2">  1       -2 0.42385714E-01 0.10036492E+04</pdfrwt>
<totfact> 0.18314735E+02</totfact>
</mgrwt>
</event>
<event>
 9    1  0.4307774E-036  0.9983237E+03  0.7818608E-02  0.8682636E-01
          2   -1    0    0  501    0  0.00000000000E+00  0.00000000000E+00  0.13377475939E+04  0.13377475939E+04  0.00000000000E+00 0. -1.
         -2   -1    0    0    0  501 -0.00000000000E+00 -0.00000000000E+00 -0.18625526659E+03  0.18625526659E+03  0.00000000000E+00 0. -1.
         36    2    1    2    0    0  0.00000000000E+00 -0.71054273576E-14  0.11514923273E+04  0.15240028605E+04  0.99832366442E+03 0.  0.
         25    2    3    3    0    0  0.62447438290E+02 -0.21396319989E+02  0.39234288575E+03  0.41596211402E+03  0.12138391675E+03 0.  0.
         35    2    3    3    0    0 -0.62447438290E+02  0.21396319989E+02  0.75914944156E+03  0.11080407465E+04  0.80441838378E+03 0.  0.
         22    1    5    5    0    0 -0.22761153642E+03  0.27892009811E+02  0.87606467160E+03  0.90557952966E+03  0.00000000000E+00 0. -1.
         22    1    5    5    0    0  0.16516409813E+03 -0.64956898225E+01 -0.11691523004E+03  0.20246121681E+03  0.00000000000E+00 0. -1.
          5    1    4    4  502    0  0.80696295998E+02  0.20453396616E+02  0.17530049523E+03  0.19412003310E+03  0.47000000000E+01 0.  1.
         -5    1    4    4    0  502 -0.18248857708E+02 -0.41849716605E+02  0.21704239051E+03  0.22184208092E+03  0.47000000000E+01 0.  1.
<mgrwt>
<rscale>  0 0.99832366E+03</rscale>
<asrwt>0</asrwt>
<pdfrwt beam="1">  1        2 0.20580732E+00 0.99832366E+03</pdfrwt>
<pdfrwt beam="2">  1       -2 0.28654657E-01 0.99832366E+03</pdfrwt>
<totfact> 0.21064116E+02</totfact>
</mgrwt>
</event>
<event>
 9    1  0.4307774E-036  0.9998274E+03  0.7818608E-02  0.8681202E-01
         -2   -1    0    0    0  501 -0.00000000000E+00  0.00000000000E+00  0.18320494367E+03  0.18320494367E+03  0.00000000000E+00 0.  1.
          2   -1    0    0  501    0  0.00000000000E+00 -0.00000000000E+00 -0.13641208973E+04  0.13641208973E+04  0.00000000000E+00 0.  1.
         36    2    1    2    0    0  0.00000000000E+00  0.00000000000E+00 -0.11809159536E+04  0.15473258409E+04  0.99982736937E+03 0.  0.
         25    2    3    3    0    0  0.14053103806E+03 -0.88301941961E+01 -0.23702198683E+03  0.30218261426E+03  0.12372536172E+03 0.  0.
         35    2    3    3    0    0 -0.14053103806E+03  0.88301941961E+01 -0.94389396675E+03  0.12451432267E+04  0.79976177042E+03 0.  0.
         22    1    5    5    0    0  0.29819030495E+03 -0.28004187926E+01 -0.14039813136E+03  0.32960117658E+03  0.00000000000E+00 0.  1.
         22    1    5    5    0    0 -0.43872134301E+03  0.11630612989E+02 -0.80349583540E+03  0.91554205008E+03  0.00000000000E+00 0.  1.
          5    1    4    4  502    0  0.58872782350E+02 -0.55086847073E+02 -0.16528830809E+03  0.18396434441E+03  0.47000000000E+01 0. -1.
         -5    1    4    4    0  502  0.81658255710E+02  0.46256652877E+02 -0.71733678742E+02  0.11821826985E+03  0.47000000000E+01 0. -1.
<mgrwt>
<rscale>  0 0.99982737E+03</rscale>
<asrwt>0</asrwt>
<pdfrwt beam="1">  1        2 0.20986476E+00 0.99982737E+03</pdfrwt>
<pdfrwt beam="2">  1       -2 0.28185376E-01 0.99982737E+03</pdfrwt>
<totfact> 0.20957680E+02</totfact>
</mgrwt>
</event>
<event>
 9    1  0.4307774E-036  0.1000126E+04  0.7818608E-02  0.8680918E-01
          2   -1    0    0  501    0  0.00000000000E+00  0.00000000000E+00  0.17925078476E+04  0.17925078476E+04  0.00000000000E+00 0. -1.
         -2   -1    0    0    0  501 -0.00000000000E+00 -0.00000000000E+00 -0.13950441447E+03  0.13950441447E+03  0.00000000000E+00 0. -1.
         36    2    1    2    0    0 -0.28421709430E-13  0.00000000000E+00  0.16530034332E+04  0.19320122621E+04  0.10001255076E+04 0.  0.
         25    2    3    3    0    0 -0.10208667250E+03  0.93827014663E+02  0.29807908368E+03  0.35175389007E+03  0.12511779117E+03 0.  0.
         35    2    3    3    0    0  0.10208667250E+03 -0.93827014663E+02  0.13549243495E+04  0.15802583720E+04  0.80135593353E+03 0.  0.
         22    1    5    5    0    0  0.28567696218E+03 -0.29641396424E+03  0.11940882630E+04  0.12630595175E+04  0.00000000000E+00 0.  1.
         22    1    5    5    0    0 -0.18359028968E+03  0.20258694957E+03  0.16083608647E+03  0.31719885453E+03  0.00000000000E+00 0.  1.
          5    1    4    4  502    0 -0.94809047643E+02  0.11620010904E+03  0.19569598703E+03  0.24659730371E+03  0.47000000000E+01 0. -1.
         -5    1    4    4    0  502 -0.72776248588E+01 -0.22373094376E+02  0.10238309665E+03  0.10515658636E+03  0.47000000000E+01 0. -1.
<mgrwt>
<rscale>  0 0.10001255E+04</rscale>
<asrwt>0</asrwt>
<pdfrwt beam="1">  1        2 0.27577042E+00 0.10001255E+04</pdfrwt>
<pdfrwt beam="2">  1       -2 0.21462219E-01 0.10001255E+04</pdfrwt>
<totfact> 0.19438973E+02</totfact>
</mgrwt>
</event>
<event>
 9    1  0.4307774E-036  0.9994649E+03  0.7818608E-02  0.8681548E-01
          2   -1    0    0  501    0  0.00000000000E+00  0.00000000000E+00  0.30247587494E+03  0.30247587494E+03  0.00000000000E+00 0. -1.
         -2   -1    0    0    0  501 -0.00000000000E+00 -0.00000000000E+00 -0.82562792835E+03  0.82562792835E+03  0.00000000000E+00 0. -1.
         36    2    1    2    0    0  0.14210854715E-13  0.00000000000E+00 -0.52315205341E+03  0.11281038033E+04  0.99946491685E+03 0.  0.
         25    2    3    3    0    0 -0.27960769852E+02 -0.13632323618E+03 -0.16374420962E+03  0.24759116398E+03  0.12297718863E+03 0.  0.
         35    2    3    3    0    0  0.27960769852E+02  0.13632323618E+03 -0.35940784379E+03  0.88051263931E+03  0.79168344711E+03 0.  0.
         22    1    5    5    0    0 -0.34069467054E+03 -0.10805689777E+03 -0.11665299133E+03  0.37597482904E+03  0.00000000000E+00 0. -1.
         22    1    5    5    0    0  0.36865544039E+03  0.24438013395E+03 -0.24275485246E+03  0.50453781027E+03  0.00000000000E+00 0. -1.
          5    1    4    4  502    0 -0.59705725902E+02 -0.94873864527E+02 -0.50973503790E+02  0.12323234950E+03  0.47000000000E+01 0. -1.
         -5    1    4    4    0  502  0.31744956050E+02 -0.41449371657E+02 -0.11277070583E+03  0.12435881448E+03  0.47000000000E+01 0. -1.
<mgrwt>
<rscale>  0 0.99946492E+03</rscale>
<asrwt>0</asrwt>
<pdfrwt beam="1">  1        2 0.46534750E-01 0.99946492E+03</pdfrwt>
<pdfrwt beam="2">  1       -2 0.12701968E+00 0.99946492E+03</pdfrwt>
<totfact> 0.58023135E+01</totfact>
</mgrwt>
</event>
<event>
 9    1  0.4307774E-036  0.1000015E+04  0.7818608E-02  0.8681023E-01
         -2   -1    0    0    0  501 -0.00000000000E+00  0.00000000000E+00  0.55704095600E+02  0.55704095600E+02  0.00000000000E+00 0. -1.
          2   -1    0    0  501    0  0.00000000000E+00 -0.00000000000E+00 -0.44881391555E+04  0.44881391555E+04  0.00000000000E+00 0. -1.
         36    2    1    2    0    0 -0.14210854715E-13  0.00000000000E+00 -0.44324350599E+04  0.45438432511E+04  0.10000154650E+04 0.  0.
         25    2    3    3    0    0 -0.30558605255E+02 -0.88913598497E+02 -0.31616378008E+03  0.34940464039E+03  0.11525888486E+03 0.  0.
         35    2    3    3    0    0  0.30558605255E+02  0.88913598497E+02 -0.41162712798E+04  0.41944386107E+04  0.80049144505E+03 0.  0.
         22    1    5    5    0    0  0.40300310116E+03  0.96843386088E+02 -0.17107818591E+04  0.17602740442E+04  0.00000000000E+00 0.  1.
         22    1    5    5    0    0 -0.37244449590E+03 -0.79297875917E+01 -0.24054894207E+04  0.24341645665E+04  0.00000000000E+00 0.  1.
          5    1    4    4  502    0 -0.68202711754E+02 -0.25088472314E+02 -0.13047404438E+03  0.14942090747E+03  0.47000000000E+01 0.  1.
         -5    1    4    4    0  502  0.37644106499E+02 -0.63825126182E+02 -0.18568973570E+03  0.19998373291E+03  0.47000000000E+01 0.  1.
<mgrwt>
<rscale>  0 0.10000155E+04</rscale>
<asrwt>0</asrwt>
<pdfrwt beam="1">  1        2 0.69048296E+00 0.10000155E+04</pdfrwt>
<pdfrwt beam="2">  1       -2 0.85698607E-02 0.10000155E+04</pdfrwt>
<totfact> 0.10040794E+01</totfact>
</mgrwt>
</event>
<event>
 9    1  0.4307774E-036  0.9991736E+03  0.7818608E-02  0.8681825E-01
         -2   -1    0    0    0  501 -0.00000000000E+00  0.00000000000E+00  0.43312434043E+03  0.43312434043E+03  0.00000000000E+00 0.  1.
          2   -1    0    0  501    0  0.00000000000E+00 -0.00000000000E+00 -0.57624784929E+03  0.57624784929E+03  0.00000000000E+00 0.  1.
         36    2    1    2    0    0  0.00000000000E+00 -0.71054273576E-14 -0.14312350887E+03  0.10093721897E+04  0.99917359783E+03 0.  0.
         25    2    3    3    0    0  0.13529670683E+03 -0.68267863672E+01 -0.60835469821E+02  0.19359234231E+03  0.12419837649E+03 0.  0.
         35    2    3    3    0    0 -0.13529670683E+03  0.68267863672E+01 -0.82288039047E+02  0.81577984741E+03  0.80023348729E+03 0.  0.
         22    1    5    5    0    0  0.16324043037E+03  0.21362211310E+03 -0.29158984224E+03  0.39661881122E+03  0.00000000000E+00 0. -1.
         22    1    5    5    0    0 -0.29853713720E+03 -0.20679532673E+03  0.20930180319E+03  0.41916103619E+03  0.00000000000E+00 0. -1.
          5    1    4    4  502    0  0.15169776868E+03 -0.29620784726E+02 -0.45175065260E+02  0.16109773565E+03  0.47000000000E+01 0.  1.
         -5    1    4    4    0  502 -0.16401061854E+02  0.22793998359E+02 -0.15660404561E+02  0.32494606663E+02  0.47000000000E+01 0.  1.
<mgrwt>
<rscale>  0 0.99917360E+03</rscale>
<asrwt>0</asrwt>
<pdfrwt beam="1">  1        2 0.88653514E-01 0.99917360E+03</pdfrwt>
<pdfrwt beam="2">  1       -2 0.66634515E-01 0.99917360E+03</pdfrwt>
<totfact> 0.13035658E+02</totfact>
</mgrwt>
</event>
<event>
 9    1  0.4307774E-036  0.9961496E+03  0.7818608E-02  0.8684713E-01
         -1   -1    0    0    0  501 -0.00000000000E+00  0.00000000000E+00  0.32945260822E+03  0.32945260822E+03  0.00000000000E+00 0. -1.
          1   -1    0    0  501    0  0.00000000000E+00 -0.00000000000E+00 -0.75300205291E+03  0.75300205291E+03  0.00000000000E+00 0. -1.
         36    2    1    2    0    0  0.00000000000E+00  0.00000000000E+00 -0.42354944470E+03  0.10824546611E+04  0.99614956773E+03 0.  0.
         25    2    3    3    0    0 -0.49648169228E+02  0.87931938623E+02 -0.17674102526E+03  0.23897751737E+03  0.12520342352E+03 0.  0.
         35    2    3    3    0    0  0.49648169228E+02 -0.87931938623E+02 -0.24680841943E+03  0.84347714375E+03  0.80021392739E+03 0.  0.
         22    1    5    5    0    0 -0.37336685313E+03 -0.20475117944E+02 -0.15837294274E+03  0.40608376779E+03  0.00000000000E+00 0. -1.
         22    1    5    5    0    0  0.42301502236E+03 -0.67456820679E+02 -0.88435476693E+02  0.43739337596E+03  0.00000000000E+00 0. -1.
          5    1    4    4  502    0 -0.48541024181E+02  0.43419396853E+02 -0.96664813912E+01  0.66007620122E+02  0.47000000000E+01 0.  1.
         -5    1    4    4    0  502 -0.11071450470E+01  0.44512541770E+02 -0.16707454387E+03  0.17296989725E+03  0.47000000000E+01 0.  1.
<mgrwt>
<rscale>  0 0.99614957E+03</rscale>
<asrwt>0</asrwt>
<pdfrwt beam="1">  1        1 0.11584647E+00 0.99614957E+03</pdfrwt>
<pdfrwt beam="2">  1       -1 0.50685017E-01 0.99614957E+03</pdfrwt>
<totfact> 0.10889065E+02</totfact>
</mgrwt>
</event>
<event>
 9    1  0.4307774E-036  0.9998068E+03  0.7818608E-02  0.8681222E-01
         -1   -1    0    0    0  501 -0.00000000000E+00  0.00000000000E+00  0.39347791905E+03  0.39347791905E+03  0.00000000000E+00 0. -1.
          1   -1    0    0  501    0  0.00000000000E+00 -0.00000000000E+00 -0.63511422935E+03  0.63511422935E+03  0.00000000000E+00 0. -1.
         36    2    1    2    0    0 -0.14210854715E-13 -0.35527136788E-13 -0.24163631031E+03  0.10285921484E+04  0.99980683199E+03 0.  0.
         25    2    3    3    0    0 -0.65459284533E+02  0.70201472222E+01 -0.17146565872E+03  0.22220734559E+03  0.12506571039E+03 0.  0.
         35    2    3    3    0    0  0.65459284533E+02 -0.70201472222E+01 -0.70170651588E+02  0.80638480281E+03  0.80062371278E+03 0.  0.
         22    1    5    5    0    0  0.19486811485E+03 -0.28317049617E+03  0.20108261109E+03  0.39823777893E+03  0.00000000000E+00 0. -1.
         22    1    5    5    0    0 -0.12940883032E+03  0.27615034895E+03 -0.27125326267E+03  0.40814702388E+03  0.00000000000E+00 0. -1.
          5    1    4    4  502    0 -0.54154258314E+02  0.50755465408E+02 -0.15833440496E+03  0.17493048550E+03  0.47000000000E+01 0. -1.
         -5    1    4    4    0  502 -0.11305026220E+02 -0.43735318186E+02 -0.13131253756E+02  0.47276860089E+02  0.47000000000E+01 0. -1.
<mgrwt>
<rscale>  0 0.99980683E+03</rscale>
<asrwt>0</asrwt>
<pdfrwt beam="1">  1        1 0.97709881E-01 0.99980683E+03</pdfrwt>
<pdfrwt beam="2">  1       -1 0.60535065E-01 0.99980683E+03</pdfrwt>
<totfact> 0.10104513E+02</totfact>
</mgrwt>
</event>
<event>
 9    1  0.4307774E-036  0.9995600E+03  0.7818608E-02  0.8681457E-01
         -2   -1    0    0    0  501 -0.00000000000E+00  0.00000000000E+00  0.35692689284E+03  0.35692689284E+03  0.00000000000E+00 0.  1.
          2   -1    0    0  501    0  0.00000000000E+00 -0.00000000000E+00 -0.69980733761E+03  0.69980733761E+03  0.00000000000E+00 0.  1.
         36    2    1    2    0    0  0.17763568394E-13 -0.17763568394E-13 -0.34288044477E+03  0.10567342304E+04  0.99956002040E+03 0.  0.
         25    2    3    3    0    0  0.11175076516E+02  0.30093468788E+02 -0.20743885057E+03  0.24408652756E+03  0.12456667697E+03 0.  0.
         35    2    3    3    0    0 -0.11175076516E+02 -0.30093468788E+02 -0.13544159420E+03  0.81264770288E+03  0.80063809824E+03 0.  0.
         22    1    5    5    0    0  0.22734805996E+03  0.13824685314E+03  0.22524259154E+03  0.34861663445E+03  0.00000000000E+00 0. -1.
         22    1    5    5    0    0 -0.23852313648E+03 -0.16834032193E+03 -0.36068418574E+03  0.46403106843E+03  0.00000000000E+00 0. -1.
          5    1    4    4  502    0  0.42717569140E+02  0.18612126096E+02 -0.15728910244E+02  0.49403345722E+02  0.47000000000E+01 0. -1.
         -5    1    4    4    0  502 -0.31542492624E+02  0.11481342692E+02 -0.19170994033E+03  0.19468318184E+03  0.47000000000E+01 0. -1.
<mgrwt>
<rscale>  0 0.99956002E+03</rscale>
<asrwt>0</asrwt>
<pdfrwt beam="1">  1        2 0.10766267E+00 0.99956002E+03</pdfrwt>
<pdfrwt beam="2">  1       -2 0.54911830E-01 0.99956002E+03</pdfrwt>
<totfact> 0.15473136E+02</totfact>
</mgrwt>
</event>
<event>
 9    1  0.4307774E-036  0.1000000E+04  0.7818608E-02  0.8681038E-01
          2   -1    0    0  501    0  0.00000000000E+00  0.00000000000E+00  0.55667227233E+03  0.55667227233E+03  0.00000000000E+00 0. -1.
         -2   -1    0    0    0  501 -0.00000000000E+00 -0.00000000000E+00 -0.44909746985E+03  0.44909746985E+03  0.00000000000E+00 0. -1.
         36    2    1    2    0    0  0.00000000000E+00  0.17763568394E-14  0.10757480248E+03  0.10057697422E+04  0.10000002181E+04 0.  0.
         25    2    3    3    0    0  0.13676916904E+03  0.30617422250E+01  0.60609270366E+01  0.18781150583E+03  0.12853500310E+03 0.  0.
         35    2    3    3    0    0 -0.13676916904E+03 -0.30617422250E+01  0.10151387544E+03  0.81795823635E+03  0.80002214322E+03 0.  0.
         22    1    5    5    0    0 -0.15416019412E+03  0.74806154927E+02 -0.33389679692E+03  0.37529774481E+03  0.00000000000E+00 0.  1.
         22    1    5    5    0    0  0.17391025084E+02 -0.77867897152E+02  0.43541067236E+03  0.44266049154E+03  0.00000000000E+00 0.  1.
          5    1    4    4  502    0  0.40538852980E+02  0.11572282755E+02 -0.57958409610E+02  0.71823280165E+02  0.47000000000E+01 0.  1.
         -5    1    4    4    0  502  0.96230316057E+02 -0.85105405305E+01  0.64019336647E+02  0.11598822567E+03  0.47000000000E+01 0.  1.
<mgrwt>
<rscale>  0 0.10000002E+04</rscale>
<asrwt>0</asrwt>
<pdfrwt beam="1">  1        2 0.85641888E-01 0.10000002E+04</pdfrwt>
<pdfrwt beam="2">  1       -2 0.69091919E-01 0.10000002E+04</pdfrwt>
<totfact> 0.12555644E+02</totfact>
</mgrwt>
</event>
<event>
 9    1  0.4307774E-036  0.9990617E+03  0.7818608E-02  0.8681932E-01
         -2   -1    0    0    0  501 -0.00000000000E+00  0.00000000000E+00  0.49985947448E+03  0.49985947448E+03  0.00000000000E+00 0. -1.
          2   -1    0    0  501    0  0.00000000000E+00 -0.00000000000E+00 -0.49920243583E+03  0.49920243583E+03  0.00000000000E+00 0. -1.
         36    2    1    2    0    0  0.14210854715E-13  0.00000000000E+00  0.65703864085E+00  0.99906191031E+03  0.99906169426E+03 0.  0.
         25    2    3    3    0    0  0.81945080250E+02 -0.97394668796E+02  0.32404094658E+02  0.18138209312E+03  0.12509484668E+03 0.  0.
         35    2    3    3    0    0 -0.81945080250E+02  0.97394668796E+02 -0.31747056017E+02  0.81767981719E+03  0.80708840296E+03 0.  0.
         22    1    5    5    0    0 -0.37335221523E+03  0.26954577405E+03  0.66471292051E+02  0.46525824399E+03  0.00000000000E+00 0. -1.
         22    1    5    5    0    0  0.29140713498E+03 -0.17215110526E+03 -0.98218348068E+02  0.35242157320E+03  0.00000000000E+00 0. -1.
          5    1    4    4  502    0  0.13301175393E+01  0.15718223909E+02  0.38911954888E+02  0.42249994186E+02  0.47000000000E+01 0. -1.
         -5    1    4    4    0  502  0.80614962711E+02 -0.11311289270E+03 -0.65078602297E+01  0.13913209893E+03  0.47000000000E+01 0. -1.
<mgrwt>
<rscale>  0 0.99906169E+03</rscale>
<asrwt>0</asrwt>
<pdfrwt beam="1">  1        2 0.76800375E-01 0.99906169E+03</pdfrwt>
<pdfrwt beam="2">  1       -2 0.76901457E-01 0.99906169E+03</pdfrwt>
<totfact> 0.11246803E+02</totfact>
</mgrwt>
</event>
<event>
 9    1  0.4307774E-036  0.1000941E+04  0.7818608E-02  0.8680142E-01
          1   -1    0    0  501    0  0.00000000000E+00  0.00000000000E+00  0.12153351826E+04  0.12153351826E+04  0.00000000000E+00 0. -1.
         -1   -1    0    0    0  501 -0.00000000000E+00 -0.00000000000E+00 -0.20609202976E+03  0.20609202976E+03  0.00000000000E+00 0. -1.
         36    2    1    2    0    0 -0.21316282073E-13  0.14210854715E-13  0.10092431528E+04  0.14214272124E+04  0.10009413462E+04 0.  0.
         25    2    3    3    0    0  0.55164674132E+02  0.87879392743E+02  0.31971572008E+03  0.35765953406E+03  0.12221404050E+03 0.  0.
         35    2    3    3    0    0 -0.55164674132E+02 -0.87879392743E+02  0.68952743277E+03  0.10637676783E+04  0.80336023299E+03 0.  0.
         22    1    5    5    0    0 -0.21668844338E+03 -0.13642769209E+03 -0.85997119559E+02  0.27011460760E+03  0.00000000000E+00 0.  1.
         22    1    5    5    0    0  0.16152376925E+03  0.48548299350E+02  0.77552455233E+03  0.79365307072E+03  0.00000000000E+00 0.  1.
          5    1    4    4  502    0 -0.35230779283E+02  0.43282310655E+02  0.80839415158E+02  0.98344635175E+02  0.47000000000E+01 0.  1.
         -5    1    4    4    0  502  0.90395453416E+02  0.44597082088E+02  0.23887630492E+03  0.25931489888E+03  0.47000000000E+01 0.  1.
<mgrwt>
<rscale>  0 0.10009413E+04</rscale>
<asrwt>0</asrwt>
<pdfrwt beam="1">  1        1 0.18697464E+00 0.10009413E+04</pdfrwt>
<pdfrwt beam="2">  1       -1 0.31706467E-01 0.10009413E+04</pdfrwt>
<totfact> 0.10612186E+02</totfact>
</mgrwt>
</event>
<event>
 9    1  0.4307774E-036  0.1000196E+04  0.7818608E-02  0.8680851E-01
         -1   -1    0    0    0  501 -0.00000000000E+00  0.00000000000E+00  0.19591140313E+03  0.19591140313E+03  0.00000000000E+00 0.  1.
          1   -1    0    0  501    0  0.00000000000E+00 -0.00000000000E+00 -0.12765878275E+04  0.12765878275E+04  0.00000000000E+00 0.  1.
         36    2    1    2    0    0  0.28421709430E-13 -0.71054273576E-14 -0.10806764243E+04  0.14724992306E+04  0.10001962057E+04 0.  0.
         25    2    3    3    0    0  0.13444311279E+03 -0.50290574990E+01 -0.26159880445E+03  0.31954496582E+03  0.12479907331E+03 0.  0.
         35    2    3    3    0    0 -0.13444311279E+03  0.50290574990E+01 -0.81907761989E+03  0.11529542648E+04  0.80019694278E+03 0.  0.
         22    1    5    5    0    0  0.23162711088E+03  0.22558130189E+03 -0.14393982790E+03  0.35391625607E+03  0.00000000000E+00 0. -1.
         22    1    5    5    0    0 -0.36607022367E+03 -0.22055224439E+03 -0.67513779199E+03  0.79903800870E+03  0.00000000000E+00 0. -1.
          5    1    4    4  502    0  0.18095632212E+02  0.48130410140E+02 -0.47832748857E+02  0.70385013665E+02  0.47000000000E+01 0.  1.
         -5    1    4    4    0  502  0.11634748058E+03 -0.53159467639E+02 -0.21376605559E+03  0.24915995216E+03  0.47000000000E+01 0.  1.
<mgrwt>
<rscale>  0 0.10001962E+04</rscale>
<asrwt>0</asrwt>
<pdfrwt beam="1">  1        1 0.19639813E+00 0.10001962E+04</pdfrwt>
<pdfrwt beam="2">  1       -1 0.30140215E-01 0.10001962E+04</pdfrwt>
<totfact> 0.10432251E+02</totfact>
</mgrwt>
</event>
<event>
 9    1  0.4307774E-036  0.1000412E+04  0.7818608E-02  0.8680646E-01
          1   -1    0    0  501    0  0.00000000000E+00  0.00000000000E+00  0.71253037002E+03  0.71253037002E+03  0.00000000000E+00 0. -1.
         -1   -1    0    0    0  501 -0.00000000000E+00 -0.00000000000E+00 -0.35115153933E+03  0.35115153933E+03  0.00000000000E+00 0. -1.
         36    2    1    2    0    0  0.35527136788E-14 -0.14210854715E-13  0.36137883069E+03  0.10636819094E+04  0.10004121876E+04 0.  0.
         25    2    3    3    0    0 -0.12502900929E+02 -0.12573517370E+03 -0.13317315951E+02  0.17564679117E+03  0.12127979184E+03 0.  0.
         35    2    3    3    0    0  0.12502900929E+02  0.12573517370E+03  0.37469614665E+03  0.88803511818E+03  0.79513741729E+03 0.  0.
         22    1    5    5    0    0  0.10059091879E+03 -0.18746625693E+03 -0.15719753737E+03  0.26452447181E+03  0.00000000000E+00 0.  1.
         22    1    5    5    0    0 -0.88088017857E+02  0.31320143063E+03  0.53189368401E+03  0.62351064637E+03  0.00000000000E+00 0.  1.
          5    1    4    4  502    0  0.18070190020E+02 -0.84993936669E+02 -0.60556872479E+02  0.10601757327E+03  0.47000000000E+01 0. -1.
         -5    1    4    4    0  502 -0.30573090950E+02 -0.40741237030E+02  0.47239556527E+02  0.69629217903E+02  0.47000000000E+01 0. -1.
<mgrwt>
<rscale>  0 0.10004122E+04</rscale>
<asrwt>0</asrwt>
<pdfrwt beam="1">  1        1 0.10962006E+00 0.10004122E+04</pdfrwt>
<pdfrwt beam="2">  1       -1 0.54023314E-01 0.10004122E+04</pdfrwt>
<totfact> 0.10536672E+02</totfact>
</mgrwt>
</event>
<event>
 9    1  0.4307774E-036  0.1000590E+04  0.7818608E-02  0.8680477E-01
         -1   -1    0    0    0  501 -0.00000000000E+00  0.00000000000E+00  0.21704624867E+03  0.21704624867E+03  0.00000000000E+00 0.  1.
          1   -1    0    0  501    0  0.00000000000E+00 -0.00000000000E+00 -0.11531872683E+04  0.11531872683E+04  0.00000000000E+00 0.  1.
         36    2    1    2    0    0  0.00000000000E+00  0.00000000000E+00 -0.93614101968E+03  0.13702335170E+04  0.10005897673E+04 0.  0.
         25    2    3    3    0    0  0.15850083677E+02 -0.83225936665E+02 -0.64999018584E+01  0.14267496327E+03  0.11461289078E+03 0.  0.
         35    2    3    3    0    0 -0.15850083677E+02  0.83225936665E+02 -0.92964111782E+03  0.12275585537E+04  0.79717602400E+03 0.  0.
         22    1    5    5    0    0 -0.81453563676E+02  0.42860754963E+03 -0.62597657095E+03  0.76301099731E+03  0.00000000000E+00 0.  1.
         22    1    5    5    0    0  0.65603479999E+02 -0.34538161296E+03 -0.30366454686E+03  0.46454755643E+03  0.00000000000E+00 0.  1.
          5    1    4    4  502    0 -0.45396491943E+02 -0.96282232369E+01 -0.32321820749E+01  0.46755546883E+02  0.47000000000E+01 0. -1.
         -5    1    4    4    0  502  0.61246575620E+02 -0.73597713428E+02 -0.32677197836E+01  0.95919416385E+02  0.47000000000E+01 0. -1.
<mgrwt>
<rscale>  0 0.10005898E+04</rscale>
<asrwt>0</asrwt>
<pdfrwt beam="1">  1        1 0.17741342E+00 0.10005898E+04</pdfrwt>
<pdfrwt beam="2">  1       -1 0.33391731E-01 0.10005898E+04</pdfrwt>
<totfact> 0.10803648E+02</totfact>
</mgrwt>
</event>
<event>
 9    1  0.4307774E-036  0.1000492E+04  0.7818608E-02  0.8680570E-01
         -2   -1    0    0    0  501 -0.00000000000E+00  0.00000000000E+00  0.15434049895E+03  0.15434049895E+03  0.00000000000E+00 0. -1.
          2   -1    0    0  501    0  0.00000000000E+00 -0.00000000000E+00 -0.16213895565E+04  0.16213895565E+04  0.00000000000E+00 0. -1.
         36    2    1    2    0    0  0.14210854715E-13  0.28421709430E-13 -0.14670490576E+04  0.17757300555E+04  0.10004920253E+04 0.  0.
         25    2    3    3    0    0  0.92094552997E+02  0.10418992254E+03 -0.31697244380E+03  0.36796314703E+03  0.12485351735E+03 0.  0.
         35    2    3    3    0    0 -0.92094552997E+02 -0.10418992254E+03 -0.11500766138E+04  0.14077669084E+04  0.79987155489E+03 0.  0.
         22    1    5    5    0    0 -0.78272489288E+02  0.34836045677E+03 -0.45762997469E+03  0.58043671848E+03  0.00000000000E+00 0.  1.
         22    1    5    5    0    0 -0.13822063709E+02 -0.45255037931E+03 -0.69244663907E+03  0.82733018996E+03  0.00000000000E+00 0.  1.
          5    1    4    4  502    0  0.42838297783E+02  0.12018609780E+03 -0.26644401585E+03  0.29545612440E+03  0.47000000000E+01 0. -1.
         -5    1    4    4    0  502  0.49256255214E+02 -0.15996175254E+02 -0.50528427948E+02  0.72507022635E+02  0.47000000000E+01 0. -1.
<mgrwt>
<rscale>  0 0.10004920E+04</rscale>
<asrwt>0</asrwt>
<pdfrwt beam="1">  1        2 0.24944454E+00 0.10004920E+04</pdfrwt>
<pdfrwt beam="2">  1       -2 0.23744693E-01 0.10004920E+04</pdfrwt>
<totfact> 0.20331095E+02</totfact>
</mgrwt>
</event>
<event>
 9    1  0.4307774E-036  0.9999949E+03  0.7818608E-02  0.8681043E-01
         -2   -1    0    0    0  501 -0.00000000000E+00  0.00000000000E+00  0.41439090545E+03  0.41439090545E+03  0.00000000000E+00 0.  1.
          2   -1    0    0  501    0  0.00000000000E+00 -0.00000000000E+00 -0.60328898177E+03  0.60328898177E+03  0.00000000000E+00 0.  1.
         36    2    1    2    0    0 -0.21316282073E-13  0.00000000000E+00 -0.18889807632E+03  0.10176798872E+04  0.99999493480E+03 0.  0.
         25    2    3    3    0    0 -0.35579944758E+02 -0.39693289130E+02  0.97069125037E+02  0.16755547249E+03  0.12574152717E+03 0.  0.
         35    2    3    3    0    0  0.35579944758E+02  0.39693289130E+02 -0.28596720135E+03  0.85012441473E+03  0.79880710475E+03 0.  0.
         22    1    5    5    0    0  0.32572800245E+03  0.22608984093E+02  0.12255819994E+03  0.34875551625E+03  0.00000000000E+00 0. -1.
         22    1    5    5    0    0 -0.29014805769E+03  0.17084305037E+02 -0.40852540129E+03  0.50136889848E+03  0.00000000000E+00 0. -1.
          5    1    4    4  502    0 -0.82379804669E+02 -0.32131914237E+02  0.57031506759E+02  0.10532604091E+03  0.47000000000E+01 0. -1.
         -5    1    4    4    0  502  0.46799859911E+02 -0.75613748929E+01  0.40037618279E+02  0.62229431585E+02  0.47000000000E+01 0. -1.
<mgrwt>
<rscale>  0 0.99999493E+03</rscale>
<asrwt>0</asrwt>
<pdfrwt beam="1">  1        2 0.92813689E-01 0.99999493E+03</pdfrwt>
<pdfrwt beam="2">  1       -2 0.63752447E-01 0.99999493E+03</pdfrwt>
<totfact> 0.13567356E+02</totfact>
</mgrwt>
</event>
<event>
 9    1  0.4307774E-036  0.9959139E+03  0.7818608E-02  0.8684939E-01
         -1   -1    0    0    0  501 -0.00000000000E+00  0.00000000000E+00  0.81132084107E+03  0.81132084107E+03  0.00000000000E+00 0. -1.
          1   -1    0    0  501    0  0.00000000000E+00 -0.00000000000E+00 -0.30562644765E+03  0.30562644765E+03  0.00000000000E+00 0. -1.
         36    2    1    2    0    0 -0.39968028887E-13  0.00000000000E+00  0.50569439342E+03  0.11169472887E+04  0.99591386486E+03 0.  0.
         25    2    3    3    0    0 -0.56751460842E+01  0.68936114897E+02  0.22129568952E+03  0.26502150422E+03  0.12837531022E+03 0.  0.
         35    2    3    3    0    0  0.56751460842E+01 -0.68936114897E+02  0.28439870390E+03  0.85192578450E+03  0.80006907470E+03 0.  0.
         22    1    5    5    0    0  0.29241203665E+03 -0.23646123262E+03 -0.51515439093E+02  0.37956890570E+03  0.00000000000E+00 0. -1.
         22    1    5    5    0    0 -0.28673689057E+03  0.16752511772E+03  0.33591414299E+03  0.47235687879E+03  0.00000000000E+00 0. -1.
          5    1    4    4  502    0 -0.10933821273E+01 -0.22623383279E+02  0.14154321445E+03  0.14342100443E+03  0.47000000000E+01 0.  1.
         -5    1    4    4    0  502 -0.45817639569E+01  0.91559498176E+02  0.79752475071E+02  0.12160049978E+03  0.47000000000E+01 0.  1.
<mgrwt>
<rscale>  0 0.99591386E+03</rscale>
<asrwt>0</asrwt>
<pdfrwt beam="1">  1        1 0.47019454E-01 0.99591386E+03</pdfrwt>
<pdfrwt beam="2">  1       -1 0.12481859E+00 0.99591386E+03</pdfrwt>
<totfact> 0.57719573E+01</totfact>
</mgrwt>
</event>
<event>
 9    1  0.4307774E-036  0.1000737E+04  0.7818608E-02  0.8680336E-01
          2   -1    0    0  501    0  0.00000000000E+00  0.00000000000E+00  0.58467857772E+03  0.58467857772E+03  0.00000000000E+00 0. -1.
         -2   -1    0    0    0  501 -0.00000000000E+00 -0.00000000000E+00 -0.42821592101E+03  0.42821592101E+03  0.00000000000E+00 0. -1.
         36    2    1    2    0    0  0.14210854715E-13  0.00000000000E+00  0.15646265671E+03  0.10128944987E+04  0.10007370797E+04 0.  0.
         25    2    3    3    0    0 -0.50033681202E+02 -0.12609970960E+03  0.49322703499E+02  0.19149446254E+03  0.12582882852E+03 0.  0.
         35    2    3    3    0    0  0.50033681202E+02  0.12609970960E+03  0.10713995321E+03  0.82140003619E+03  0.80300345196E+03 0.  0.
         22    1    5    5    0    0  0.33601347054E+03  0.32346779897E+03  0.47153987289E+02  0.46878563104E+03  0.00000000000E+00 0. -1.
         22    1    5    5    0    0 -0.28597978933E+03 -0.19736808938E+03  0.59985965921E+02  0.35261440515E+03  0.00000000000E+00 0. -1.
          5    1    4    4  502    0 -0.17958635394E+02 -0.61818137762E+02  0.88496018486E+02  0.10953369358E+03  0.47000000000E+01 0. -1.
         -5    1    4    4    0  502 -0.32075045808E+02 -0.64281571834E+02 -0.39173314987E+02  0.81960768957E+02  0.47000000000E+01 0. -1.
<mgrwt>
<rscale>  0 0.10007371E+04</rscale>
<asrwt>0</asrwt>
<pdfrwt beam="1">  1        2 0.89950550E-01 0.10007371E+04</pdfrwt>
<pdfrwt beam="2">  1       -2 0.65879372E-01 0.10007371E+04</pdfrwt>
<totfact> 0.13130366E+02</totfact>
</mgrwt>
</event>
<event>
 9    1  0.4307774E-036  0.1000245E+04  0.7818608E-02  0.8680804E-01
          2   -1    0    0  501    0  0.00000000000E+00  0.00000000000E+00  0.82011230867E+03  0.82011230867E+03  0.00000000000E+00 0. -1.
         -2   -1    0    0    0  501 -0.00000000000E+00 -0.00000000000E+00 -0.30498594833E+03  0.30498594833E+03  0.00000000000E+00 0. -1.
         36    2    1    2    0    0  0.14210854715E-13  0.00000000000E+00  0.51512636034E+03  0.11250982570E+04  0.10002454303E+04 0.  0.
         25    2    3    3    0    0  0.89867455870E+02  0.10818466443E+03  0.76803581362E+02  0.20290846093E+03  0.12447076832E+03 0.  0.
         35    2    3    3    0    0 -0.89867455870E+02 -0.10818466443E+03  0.43832277898E+03  0.92218979606E+03  0.79907889482E+03 0.  0.
         22    1    5    5    0    0 -0.13191129483E+03  0.33289717631E+03  0.12400597305E+03  0.37894406059E+03  0.00000000000E+00 0. -1.
         22    1    5    5    0    0  0.42043838963E+02 -0.44108184074E+03  0.31431680592E+03  0.54324573547E+03  0.00000000000E+00 0. -1.
          5    1    4    4  502    0  0.89246666714E+02  0.14967093270E+02  0.17400019726E+02  0.92270429104E+02  0.47000000000E+01 0. -1.
         -5    1    4    4    0  502  0.62078915582E+00  0.93217571159E+02  0.59403561636E+02  0.11063803183E+03  0.47000000000E+01 0. -1.
<mgrwt>
<rscale>  0 0.10002454E+04</rscale>
<asrwt>0</asrwt>
<pdfrwt beam="1">  1        2 0.12617112E+00 0.10002454E+04</pdfrwt>
<pdfrwt beam="2">  1       -2 0.46920915E-01 0.10002454E+04</pdfrwt>
<totfact> 0.17362383E+02</totfact>
</mgrwt>
</event>
<event>
 9    1  0.4307774E-036  0.9934253E+03  0.7818608E-02  0.8687324E-01
         -1   -1    0    0    0  501 -0.00000000000E+00  0.00000000000E+00  0.55788082985E+03  0.55788082985E+03  0.00000000000E+00 0. -1.
          1   -1    0    0  501    0  0.00000000000E+00 -0.00000000000E+00 -0.44225119758E+03  0.44225119758E+03  0.00000000000E+00 0. -1.
         36    2    1    2    0    0 -0.14210854715E-13  0.71054273576E-14  0.11562963227E+03  0.10001320274E+04  0.99342531698E+03 0.  0.
         25    2    3    3    0    0 -0.86626534351E+02 -0.18528388516E+02  0.12120212211E+03  0.19526405289E+03  0.12486247760E+03 0.  0.
         35    2    3    3    0    0  0.86626534351E+02  0.18528388516E+02 -0.55724898401E+01  0.80486797453E+03  0.79995871528E+03 0.  0.
         22    1    5    5    0    0  0.18144165437E+02 -0.38691576780E+03  0.47609640946E+02  0.39025594169E+03  0.00000000000E+00 0. -1.
         22    1    5    5    0    0  0.68482368914E+02  0.40544415632E+03 -0.53182130786E+02  0.41461203284E+03  0.00000000000E+00 0. -1.
          5    1    4    4  502    0 -0.37100769905E+02  0.18294624750E+02  0.12647039762E+03  0.13314658050E+03  0.47000000000E+01 0.  1.
         -5    1    4    4    0  502 -0.49525764446E+02 -0.36823013266E+02 -0.52682755126E+01  0.62117472395E+02  0.47000000000E+01 0.  1.
<mgrwt>
<rscale>  0 0.99342532E+03</rscale>
<asrwt>0</asrwt>
<pdfrwt beam="1">  1        1 0.68038646E-01 0.99342532E+03</pdfrwt>
<pdfrwt beam="2">  1       -1 0.85827820E-01 0.99342532E+03</pdfrwt>
<totfact> 0.83460307E+01</totfact>
</mgrwt>
</event>
<event>
 9    1  0.4307774E-036  0.1000356E+04  0.7818608E-02  0.8680699E-01
          1   -1    0    0  501    0  0.00000000000E+00  0.00000000000E+00  0.12277985916E+04  0.12277985916E+04  0.00000000000E+00 0.  1.
         -1   -1    0    0    0  501 -0.00000000000E+00 -0.00000000000E+00 -0.20376125817E+03  0.20376125817E+03  0.00000000000E+00 0.  1.
         36    2    1    2    0    0  0.14210854715E-13  0.14210854715E-13  0.10240373334E+04  0.14315598498E+04  0.10003555084E+04 0.  0.
         25    2    3    3    0    0  0.96419770346E+02 -0.94572597328E+02  0.25376520410E+03  0.31353146112E+03  0.12515770060E+03 0.  0.
         35    2    3    3    0    0 -0.96419770346E+02  0.94572597328E+02  0.77027212931E+03  0.11180283886E+04  0.79901663082E+03 0.  0.
         22    1    5    5    0    0 -0.30246559958E+03  0.12007775087E+03  0.53947900155E+01  0.32547382221E+03  0.00000000000E+00 0. -1.
         22    1    5    5    0    0  0.20604582924E+03 -0.25505153541E+02  0.76487733929E+03  0.79255456643E+03  0.00000000000E+00 0. -1.
          5    1    4    4  502    0  0.52428037182E+02 -0.87612878220E+02  0.68767986471E+02  0.12319026535E+03  0.47000000000E+01 0.  1.
         -5    1    4    4    0  502  0.43991733164E+02 -0.69597191075E+01  0.18499721763E+03  0.19034119577E+03  0.47000000000E+01 0.  1.
<mgrwt>
<rscale>  0 0.10003555E+04</rscale>
<asrwt>0</asrwt>
<pdfrwt beam="1">  1        1 0.18889209E+00 0.10003555E+04</pdfrwt>
<pdfrwt beam="2">  1       -1 0.31347887E-01 0.10003555E+04</pdfrwt>
<totfact> 0.10594242E+02</totfact>
</mgrwt>
</event>
<event>
 9    1  0.4307774E-036  0.1000651E+04  0.7818608E-02  0.8680418E-01
         -1   -1    0    0    0  501 -0.00000000000E+00  0.00000000000E+00  0.39562588308E+03  0.39562588308E+03  0.00000000000E+00 0.  1.
          1   -1    0    0  501    0  0.00000000000E+00 -0.00000000000E+00 -0.63273301392E+03  0.63273301392E+03  0.00000000000E+00 0.  1.
         36    2    1    2    0    0  0.00000000000E+00  0.00000000000E+00 -0.23710713084E+03  0.10283588970E+04  0.10006509029E+04 0.  0.
         25    2    3    3    0    0 -0.99033144757E+02 -0.21802655074E+02 -0.14559594514E+03  0.21699247954E+03  0.12491852307E+03 0.  0.
         35    2    3    3    0    0  0.99033144757E+02  0.21802655074E+02 -0.91511185702E+02  0.81136641747E+03  0.79978637571E+03 0.  0.
         22    1    5    5    0    0  0.26114202728E+03  0.23942770012E+02 -0.39100892791E+03  0.47080398931E+03  0.00000000000E+00 0. -1.
         22    1    5    5    0    0 -0.16210888252E+03 -0.21401149374E+01  0.29949774221E+03  0.34056242816E+03  0.00000000000E+00 0. -1.
          5    1    4    4  502    0 -0.56150581040E+02  0.49354234266E+02 -0.49055776541E+02  0.89539306470E+02  0.47000000000E+01 0.  1.
         -5    1    4    4    0  502 -0.42882563717E+02 -0.71156889340E+02 -0.96540168597E+02  0.12745317306E+03  0.47000000000E+01 0.  1.
<mgrwt>
<rscale>  0 0.10006509E+04</rscale>
<asrwt>0</asrwt>
<pdfrwt beam="1">  1        1 0.97343540E-01 0.10006509E+04</pdfrwt>
<pdfrwt beam="2">  1       -1 0.60865521E-01 0.10006509E+04</pdfrwt>
<totfact> 0.10054547E+02</totfact>
</mgrwt>
</event>
<event>
 9    1  0.4307774E-036  0.9994765E+03  0.7818608E-02  0.8681537E-01
          1   -1    0    0  501    0  0.00000000000E+00  0.00000000000E+00  0.18318192897E+04  0.18318192897E+04  0.00000000000E+00 0.  1.
         -1   -1    0    0    0  501 -0.00000000000E+00 -0.00000000000E+00 -0.13633350251E+03  0.13633350251E+03  0.00000000000E+00 0.  1.
         36    2    1    2    0    0 -0.56843418861E-13  0.14210854715E-13  0.16954857872E+04  0.19681527922E+04  0.99947654245E+03 0.  0.
         25    2    3    3    0    0 -0.71030179918E+02 -0.93986886663E+02  0.17079421266E+03  0.24222129024E+03  0.12498667546E+03 0.  0.
         35    2    3    3    0    0  0.71030179918E+02  0.93986886663E+02  0.15246915745E+04  0.17259315020E+04  0.80017268806E+03 0.  0.
         22    1    5    5    0    0 -0.34791864742E+03 -0.76825544123E+02  0.68272628612E+03  0.77010696089E+03  0.00000000000E+00 0.  1.
         22    1    5    5    0    0  0.41894882734E+03  0.17081243079E+03  0.84196528840E+03  0.95582454107E+03  0.00000000000E+00 0.  1.
          5    1    4    4  502    0  0.16160992148E+02 -0.57628803915E+02  0.12158857511E+03  0.13560283295E+03  0.47000000000E+01 0.  1.
         -5    1    4    4    0  502 -0.87191172066E+02 -0.36358082749E+02  0.49205637556E+02  0.10661845729E+03  0.47000000000E+01 0.  1.
<mgrwt>
<rscale>  0 0.99947654E+03</rscale>
<asrwt>0</asrwt>
<pdfrwt beam="1">  1        1 0.28181833E+00 0.99947654E+03</pdfrwt>
<pdfrwt beam="2">  1       -1 0.20974386E-01 0.99947654E+03</pdfrwt>
<totfact> 0.77239392E+01</totfact>
</mgrwt>
</event>
<event>
 9    1  0.4307774E-036  0.9992979E+03  0.7818608E-02  0.8681707E-01
         -2   -1    0    0    0  501 -0.00000000000E+00  0.00000000000E+00  0.39889829918E+03  0.39889829918E+03  0.00000000000E+00 0. -1.
          2   -1    0    0  501    0  0.00000000000E+00 -0.00000000000E+00 -0.62584644086E+03  0.62584644086E+03  0.00000000000E+00 0. -1.
         36    2    1    2    0    0  0.28421709430E-13  0.14210854715E-13 -0.22694814168E+03  0.10247447400E+04  0.99929791516E+03 0.  0.
         25    2    3    3    0    0 -0.12383576064E+03 -0.61566585248E+02 -0.43684867655E+02  0.19144349771E+03  0.12496601587E+03 0.  0.
         35    2    3    3    0    0  0.12383576064E+03  0.61566585248E+02 -0.18326327403E+03  0.83330124233E+03  0.80104918253E+03 0.  0.
         22    1    5    5    0    0 -0.22795050350E+03 -0.25218692384E+03 -0.10249474748E+03  0.35505612214E+03  0.00000000000E+00 0.  1.
         22    1    5    5    0    0  0.35178626415E+03  0.31375350909E+03 -0.80768526550E+02  0.47824512020E+03  0.00000000000E+00 0.  1.
          5    1    4    4  502    0 -0.70211014607E+02  0.31769446145E+02 -0.30001584163E+02  0.82831572077E+02  0.47000000000E+01 0.  1.
         -5    1    4    4    0  502 -0.53624746035E+02 -0.93336031393E+02 -0.13683283493E+02  0.10861192564E+03  0.47000000000E+01 0.  1.
<mgrwt>
<rscale>  0 0.99929792E+03</rscale>
<asrwt>0</asrwt>
<pdfrwt beam="1">  1        2 0.96284068E-01 0.99929792E+03</pdfrwt>
<pdfrwt beam="2">  1       -2 0.61368969E-01 0.99929792E+03</pdfrwt>
<totfact> 0.14072649E+02</totfact>
</mgrwt>
</event>
<event>
 9    1  0.4307774E-036  0.9990603E+03  0.7818608E-02  0.8681933E-01
         -1   -1    0    0    0  501 -0.00000000000E+00  0.00000000000E+00  0.21762423914E+03  0.21762423914E+03  0.00000000000E+00 0.  1.
          1   -1    0    0  501    0  0.00000000000E+00 -0.00000000000E+00 -0.11466110278E+04  0.11466110278E+04  0.00000000000E+00 0.  1.
         36    2    1    2    0    0  0.00000000000E+00  0.14210854715E-13 -0.92898678868E+03  0.13642352670E+04  0.99906026349E+03 0.  0.
         25    2    3    3    0    0 -0.71287118838E+02  0.61443103768E+02 -0.33318248859E+02  0.16002203811E+03  0.12505934056E+03 0.  0.
         35    2    3    3    0    0  0.71287118838E+02 -0.61443103768E+02 -0.89566853982E+03  0.12042132288E+04  0.79940619150E+03 0.  0.
         22    1    5    5    0    0  0.32250588295E+03 -0.30535122866E+03 -0.59639977808E+03  0.74360077507E+03  0.00000000000E+00 0.  1.
         22    1    5    5    0    0 -0.25121876411E+03  0.24390812490E+03 -0.29926876173E+03  0.46061245378E+03  0.00000000000E+00 0.  1.
          5    1    4    4  502    0 -0.69011122902E+02 -0.18321855099E+01 -0.59583163972E+02  0.91313391224E+02  0.47000000000E+01 0.  1.
         -5    1    4    4    0  502 -0.22759959354E+01  0.63275289278E+02  0.26264915113E+02  0.68708646884E+02  0.47000000000E+01 0.  1.
<mgrwt>
<rscale>  0 0.99906026E+03</rscale>
<asrwt>0</asrwt>
<pdfrwt beam="1">  1        1 0.17640170E+00 0.99906026E+03</pdfrwt>
<pdfrwt beam="2">  1       -1 0.33480652E-01 0.99906026E+03</pdfrwt>
<totfact> 0.10879279E+02</totfact>
</mgrwt>
</event>
<event>
 9    1  0.4307774E-036  0.9903991E+03  0.7818608E-02  0.8690235E-01
         -2   -1    0    0    0  501 -0.00000000000E+00  0.00000000000E+00  0.33258223124E+03  0.33258223124E+03  0.00000000000E+00 0. -1.
          2   -1    0    0  501    0  0.00000000000E+00 -0.00000000000E+00 -0.73732925691E+03  0.73732925691E+03  0.00000000000E+00 0. -1.
         36    2    1    2    0    0 -0.14210854715E-13  0.00000000000E+00 -0.40474702566E+03  0.10699114882E+04  0.99039913050E+03 0.  0.
         25    2    3    3    0    0 -0.80008437927E+02  0.98455157540E+02 -0.49153786279E+02  0.18430746881E+03  0.12433173436E+03 0.  0.
         35    2    3    3    0    0  0.80008437927E+02 -0.98455157540E+02 -0.35559323939E+03  0.88560401934E+03  0.80109497501E+03 0.  0.
         22    1    5    5    0    0  0.28843686545E+03  0.13387940214E+02  0.15148289030E+03  0.32607074132E+03  0.00000000000E+00 0.  1.
         22    1    5    5    0    0 -0.20842842752E+03 -0.11184309775E+03 -0.50707612969E+03  0.55953327802E+03  0.00000000000E+00 0.  1.
          5    1    4    4  502    0 -0.11548279188E+02  0.44332498973E+02 -0.79430492384E+02  0.91815174878E+02  0.47000000000E+01 0.  1.
         -5    1    4    4    0  502 -0.68460158739E+02  0.54122658567E+02  0.30276706105E+02  0.92492293936E+02  0.47000000000E+01 0.  1.
<mgrwt>
<rscale>  0 0.99039913E+03</rscale>
<asrwt>0</asrwt>
<pdfrwt beam="1">  1        2 0.11343527E+00 0.99039913E+03</pdfrwt>
<pdfrwt beam="2">  1       -2 0.51166498E-01 0.99039913E+03</pdfrwt>
<totfact> 0.16740959E+02</totfact>
</mgrwt>
</event>
<event>
 9    1  0.4307774E-036  0.9992574E+03  0.7818608E-02  0.8681745E-01
          2   -1    0    0  501    0  0.00000000000E+00  0.00000000000E+00  0.16743754386E+04  0.16743754386E+04  0.00000000000E+00 0. -1.
         -2   -1    0    0    0  501 -0.00000000000E+00 -0.00000000000E+00 -0.14908771806E+03  0.14908771806E+03  0.00000000000E+00 0. -1.
         36    2    1    2    0    0 -0.28421709430E-13 -0.14210854715E-13  0.15252877205E+04  0.18234631566E+04  0.99925735087E+03 0.  0.
         25    2    3    3    0    0  0.11209950932E+03 -0.78015595084E+02  0.34085094665E+03  0.38777757530E+03  0.12465691723E+03 0.  0.
         35    2    3    3    0    0 -0.11209950932E+03  0.78015595084E+02  0.11844367739E+04  0.14356855813E+04  0.79978114763E+03 0.  0.
         22    1    5    5    0    0  0.10872060231E+03  0.33928108106E+03  0.96650769005E+03  0.10300820046E+04  0.00000000000E+00 0. -1.
         22    1    5    5    0    0 -0.22082011162E+03 -0.26126548598E+03  0.21792908380E+03  0.40560357669E+03  0.00000000000E+00 0. -1.
          5    1    4    4  502    0 -0.24254881921E+02  0.36060746051E+01  0.33973503396E+02  0.42161499072E+02  0.47000000000E+01 0.  1.
         -5    1    4    4    0  502  0.13635439124E+03 -0.81621669689E+02  0.30687744325E+03  0.34561607623E+03  0.47000000000E+01 0.  1.
<mgrwt>
<rscale>  0 0.99925735E+03</rscale>
<asrwt>0</asrwt>
<pdfrwt beam="1">  1        2 0.25759621E+00 0.99925735E+03</pdfrwt>
<pdfrwt beam="2">  1       -2 0.22936573E-01 0.99925735E+03</pdfrwt>
<totfact> 0.20172381E+02</totfact>
</mgrwt>
</event>
<event>
 9    1  0.4307774E-036  0.9999677E+03  0.7818608E-02  0.8681069E-01
          1   -1    0    0  501    0  0.00000000000E+00  0.00000000000E+00  0.18313623887E+04  0.18313623887E+04  0.00000000000E+00 0.  1.
         -1   -1    0    0    0  501 -0.00000000000E+00 -0.00000000000E+00 -0.13650157890E+03  0.13650157890E+03  0.00000000000E+00 0.  1.
         36    2    1    2    0    0  0.00000000000E+00 -0.56843418861E-13  0.16948608098E+04  0.19678639675E+04  0.99996771465E+03 0.  0.
         25    2    3    3    0    0 -0.46813754541E+02  0.11550750098E+03  0.45917727561E+03  0.49083355026E+03  0.12058313822E+03 0.  0.
         35    2    3    3    0    0  0.46813754541E+02 -0.11550750098E+03  0.12356835341E+04  0.14770304173E+04  0.79948204899E+03 0.  0.
         22    1    5    5    0    0  0.31022066325E+02  0.32851764986E+03  0.32203910655E+03  0.46108068819E+03  0.00000000000E+00 0. -1.
         22    1    5    5    0    0  0.15791688216E+02 -0.44402515084E+03  0.91364442759E+03  0.10159497291E+04  0.00000000000E+00 0. -1.
          5    1    4    4  502    0 -0.19962265209E+02  0.10696979463E+03  0.44648013924E+03  0.45957331703E+03  0.47000000000E+01 0.  1.
         -5    1    4    4    0  502 -0.26851489332E+02  0.85377063537E+01  0.12697136375E+02  0.31260233225E+02  0.47000000000E+01 0.  1.
<mgrwt>
<rscale>  0 0.99996771E+03</rscale>
<asrwt>0</asrwt>
<pdfrwt beam="1">  1        1 0.28174804E+00 0.99996771E+03</pdfrwt>
<pdfrwt beam="2">  1       -1 0.21000244E-01 0.99996771E+03</pdfrwt>
<totfact> 0.77136253E+01</totfact>
</mgrwt>
</event>
<event>
 9    1  0.4307774E-036  0.1012221E+04  0.7818608E-02  0.8669487E-01
          2   -1    0    0  501    0  0.00000000000E+00  0.00000000000E+00  0.18790235309E+04  0.18790235309E+04  0.00000000000E+00 0.  1.
         -2   -1    0    0    0  501 -0.00000000000E+00 -0.00000000000E+00 -0.13631954267E+03  0.13631954267E+03  0.00000000000E+00 0.  1.
         36    2    1    2    0    0 -0.28421709430E-13  0.00000000000E+00  0.17427039883E+04  0.20153430736E+04  0.10122205854E+04 0.  0.
         25    2    3    3    0    0 -0.15437308123E+03  0.74476398435E+01  0.36303068426E+03  0.41414914184E+03  0.12586388846E+03 0.  0.
         35    2    3    3    0    0  0.15437308123E+03 -0.74476398435E+01  0.13796733040E+04  0.16011939318E+04  0.79777005823E+03 0.  0.
         22    1    5    5    0    0  0.26562737067E+03 -0.10010992917E+03  0.14222286935E+04  0.14502807847E+04  0.00000000000E+00 0. -1.
         22    1    5    5    0    0 -0.11125428944E+03  0.92662289325E+02 -0.42555389467E+02  0.15091314706E+03  0.00000000000E+00 0. -1.
          5    1    4    4  502    0 -0.12398033235E+03 -0.36672935562E+02  0.16919519676E+03  0.21299091910E+03  0.47000000000E+01 0.  1.
         -5    1    4    4    0  502 -0.30392748880E+02  0.44120575405E+02  0.19383548751E+03  0.20115822274E+03  0.47000000000E+01 0.  1.
<mgrwt>
<rscale>  0 0.10122206E+04</rscale>
<asrwt>0</asrwt>
<pdfrwt beam="1">  1        2 0.28908052E+00 0.10122206E+04</pdfrwt>
<pdfrwt beam="2">  1       -2 0.20972239E-01 0.10122206E+04</pdfrwt>
<totfact> 0.18082653E+02</totfact>
</mgrwt>
</event>
<event>
 9    1  0.4307774E-036  0.9992354E+03  0.7818608E-02  0.8681766E-01
         -1   -1    0    0    0  501 -0.00000000000E+00  0.00000000000E+00  0.29844641217E+03  0.29844641217E+03  0.00000000000E+00 0.  1.
          1   -1    0    0  501    0  0.00000000000E+00 -0.00000000000E+00 -0.83639079041E+03  0.83639079041E+03  0.00000000000E+00 0.  1.
         36    2    1    2    0    0 -0.71054273576E-14  0.00000000000E+00 -0.53794437824E+03  0.11348372026E+04  0.99923536881E+03 0.  0.
         25    2    3    3    0    0  0.42528891076E+02 -0.86602741306E+02 -0.22704916822E+03  0.27635638686E+03  0.12455033678E+03 0.  0.
         35    2    3    3    0    0 -0.42528891076E+02  0.86602741306E+02 -0.31089521002E+03  0.85848081571E+03  0.79437065527E+03 0.  0.
         22    1    5    5    0    0 -0.11078938255E+03 -0.14851622890E+03  0.21172792423E+03  0.28135399664E+03  0.00000000000E+00 0.  1.
         22    1    5    5    0    0  0.68260491473E+02  0.23511897020E+03 -0.52262313424E+03  0.57712681907E+03  0.00000000000E+00 0.  1.
          5    1    4    4  502    0 -0.11016906920E+02  0.17038369719E+02  0.24742373501E+00  0.20828574105E+02  0.47000000000E+01 0.  1.
         -5    1    4    4    0  502  0.53545797996E+02 -0.10364111103E+03 -0.22729659196E+03  0.25552781276E+03  0.47000000000E+01 0.  1.
<mgrwt>
<rscale>  0 0.99923537E+03</rscale>
<asrwt>0</asrwt>
<pdfrwt beam="1">  1        1 0.12867551E+00 0.99923537E+03</pdfrwt>
<pdfrwt beam="2">  1       -1 0.45914832E-01 0.99923537E+03</pdfrwt>
<totfact> 0.11008915E+02</totfact>
</mgrwt>
</event>
<event>
 9    1  0.4307774E-036  0.1000155E+04  0.7818608E-02  0.8680890E-01
          2   -1    0    0  501    0  0.00000000000E+00  0.00000000000E+00  0.67218614903E+03  0.67218614903E+03  0.00000000000E+00 0. -1.
         -2   -1    0    0    0  501 -0.00000000000E+00 -0.00000000000E+00 -0.37203617692E+03  0.37203617692E+03  0.00000000000E+00 0. -1.
         36    2    1    2    0    0  0.00000000000E+00  0.00000000000E+00  0.30014997211E+03  0.10442223259E+04  0.10001551181E+04 0.  0.
         25    2    3    3    0    0 -0.10741513312E+03  0.90153583764E+02  0.41049157279E+02  0.19190463814E+03  0.12440529466E+03 0.  0.
         35    2    3    3    0    0  0.10741513312E+03 -0.90153583764E+02  0.25910081483E+03  0.85231768780E+03  0.79977905024E+03 0.  0.
         22    1    5    5    0    0 -0.27721149561E+03 -0.10923159501E+03  0.34694359090E+03  0.45732658999E+03  0.00000000000E+00 0. -1.
         22    1    5    5    0    0  0.38462662873E+03  0.19078011249E+02 -0.87842776064E+02  0.39499109781E+03  0.00000000000E+00 0. -1.
          5    1    4    4  502    0 -0.10710696976E+03  0.11493518836E+02  0.14736792757E+02  0.10882677523E+03  0.47000000000E+01 0. -1.
         -5    1    4    4    0  502 -0.30816335693E+00  0.78660064927E+02  0.26312364521E+02  0.83077862910E+02  0.47000000000E+01 0. -1.
<mgrwt>
<rscale>  0 0.10001551E+04</rscale>
<asrwt>0</asrwt>
<pdfrwt beam="1">  1        2 0.10341325E+00 0.10001551E+04</pdfrwt>
<pdfrwt beam="2">  1       -2 0.57236335E-01 0.10001551E+04</pdfrwt>
<totfact> 0.14925845E+02</totfact>
</mgrwt>
</event>
<event>
 9    1  0.4307774E-036  0.9992935E+03  0.7818608E-02  0.8681711E-01
          3   -1    0    0  501    0  0.00000000000E+00  0.00000000000E+00  0.25825891472E+03  0.25825891472E+03  0.00000000000E+00 0.  1.
         -3   -1    0    0    0  501 -0.00000000000E+00 -0.00000000000E+00 -0.96665340291E+03  0.96665340291E+03  0.00000000000E+00 0.  1.
         36    2    1    2    0    0 -0.71054273576E-14 -0.28421709430E-13 -0.70839448820E+03  0.12249123176E+04  0.99929346790E+03 0.  0.
         25    2    3    3    0    0 -0.51570010234E+02 -0.11486174334E+03 -0.20926252579E+03  0.27354683826E+03  0.12322492436E+03 0.  0.
         35    2    3    3    0    0  0.51570010234E+02  0.11486174334E+03 -0.49913196241E+03  0.95136547937E+03  0.80006929288E+03 0.  0.
         22    1    5    5    0    0  0.20610311296E+03  0.11294416844E+02 -0.66858871885E+03  0.69972632650E+03  0.00000000000E+00 0. -1.
         22    1    5    5    0    0 -0.15453310273E+03  0.10356732650E+03  0.16945675644E+03  0.25163915287E+03  0.00000000000E+00 0. -1.
          5    1    4    4  502    0 -0.17770767577E+02 -0.40231085354E+02 -0.18165908239E+03  0.18696644785E+03  0.47000000000E+01 0. -1.
         -5    1    4    4    0  502 -0.33799242656E+02 -0.74630657986E+02 -0.27603443402E+02  0.86580390408E+02  0.47000000000E+01 0. -1.
<mgrwt>
<rscale>  0 0.99929347E+03</rscale>
<asrwt>0</asrwt>
<pdfrwt beam="1">  1        3 0.39732141E-01 0.99929347E+03</pdfrwt>
<pdfrwt beam="2">  1       -3 0.14871591E+00 0.99929347E+03</pdfrwt>
<totfact> 0.66896041E+00</totfact>
</mgrwt>
</event>
<event>
 9    1  0.4307774E-036  0.9996647E+03  0.7818608E-02  0.8681357E-01
          3   -1    0    0  501    0  0.00000000000E+00  0.00000000000E+00  0.63384916714E+03  0.63384916714E+03  0.00000000000E+00 0.  1.
         -3   -1    0    0    0  501 -0.00000000000E+00 -0.00000000000E+00 -0.39415115305E+03  0.39415115305E+03  0.00000000000E+00 0.  1.
         36    2    1    2    0    0 -0.71054273576E-14  0.00000000000E+00  0.23969801409E+03  0.10280003202E+04  0.99966470396E+03 0.  0.
         25    2    3    3    0    0 -0.18908937248E+02  0.13770783109E+03  0.50117727097E+02  0.19280061241E+03  0.12385190724E+03 0.  0.
         35    2    3    3    0    0  0.18908937248E+02 -0.13770783109E+03  0.18958028699E+03  0.83519970777E+03  0.80143425931E+03 0.  0.
         22    1    5    5    0    0  0.17303760428E+02 -0.31980637643E+03 -0.21892122761E+03  0.38794592720E+03  0.00000000000E+00 0. -1.
         22    1    5    5    0    0  0.16051768207E+01  0.18209854534E+03  0.40850151460E+03  0.44725378058E+03  0.00000000000E+00 0. -1.
          5    1    4    4  502    0  0.51284623191E+02  0.80184451553E+02  0.25562686637E+02  0.98667116076E+02  0.47000000000E+01 0. -1.
         -5    1    4    4    0  502 -0.70193560439E+02  0.57523379536E+02  0.24555040460E+02  0.94133496336E+02  0.47000000000E+01 0. -1.
<mgrwt>
<rscale>  0 0.99966470E+03</rscale>
<asrwt>0</asrwt>
<pdfrwt beam="1">  1        3 0.97515256E-01 0.99966470E+03</pdfrwt>
<pdfrwt beam="2">  1       -3 0.60638639E-01 0.99966470E+03</pdfrwt>
<totfact> 0.10153579E+01</totfact>
</mgrwt>
</event>
<event>
 9    1  0.4307774E-036  0.1000368E+04  0.7818608E-02  0.8680687E-01
          2   -1    0    0  501    0  0.00000000000E+00  0.00000000000E+00  0.18407575640E+04  0.18407575640E+04  0.00000000000E+00 0. -1.
         -2   -1    0    0    0  501 -0.00000000000E+00 -0.00000000000E+00 -0.13591370756E+03  0.13591370756E+03  0.00000000000E+00 0. -1.
         36    2    1    2    0    0  0.33750779949E-13  0.00000000000E+00  0.17048438564E+04  0.19766712715E+04  0.10003683026E+04 0.  0.
         25    2    3    3    0    0 -0.14352587316E+01  0.47795538960E+02  0.59624016965E+02  0.14669020068E+03  0.12520590268E+03 0.  0.
         35    2    3    3    0    0  0.14352587316E+01 -0.47795538960E+02  0.16452198395E+04  0.18299810709E+04  0.79987244359E+03 0.  0.
         22    1    5    5    0    0  0.37972633979E+03 -0.23800162839E+02  0.11155795674E+04  0.11786756603E+04  0.00000000000E+00 0. -1.
         22    1    5    5    0    0 -0.37829108106E+03 -0.23995376121E+02  0.52964027204E+03  0.65130541058E+03  0.00000000000E+00 0. -1.
          5    1    4    4  502    0  0.11091417639E+02 -0.34850802764E+02  0.50417967211E+02  0.62463264534E+02  0.47000000000E+01 0. -1.
         -5    1    4    4    0  502 -0.12526676370E+02  0.82646341724E+02  0.92060497542E+01  0.84226936150E+02  0.47000000000E+01 0. -1.
<mgrwt>
<rscale>  0 0.10003683E+04</rscale>
<asrwt>0</asrwt>
<pdfrwt beam="1">  1        2 0.28319345E+00 0.10003683E+04</pdfrwt>
<pdfrwt beam="2">  1       -2 0.20909802E-01 0.10003683E+04</pdfrwt>
<totfact> 0.19105295E+02</totfact>
</mgrwt>
</event>
<event>
 9    1  0.4307774E-036  0.1000107E+04  0.7818608E-02  0.8680936E-01
          2   -1    0    0  501    0  0.00000000000E+00  0.00000000000E+00  0.28877188482E+04  0.28877188482E+04  0.00000000000E+00 0.  1.
         -2   -1    0    0    0  501 -0.00000000000E+00 -0.00000000000E+00 -0.86592030487E+02  0.86592030487E+02  0.00000000000E+00 0.  1.
         36    2    1    2    0    0 -0.28421709430E-13 -0.71054273576E-14  0.28011268177E+04  0.29743108787E+04  0.10001068714E+04 0.  0.
         25    2    3    3    0    0  0.11250537237E+03 -0.40757311385E+01  0.83149866044E+03  0.84812661353E+03  0.12350975616E+03 0.  0.
         35    2    3    3    0    0 -0.11250537237E+03  0.40757311385E+01  0.19696281573E+04  0.21261842652E+04  0.79281169334E+03 0.  0.
         22    1    5    5    0    0 -0.26899964305E+03  0.26789881810E+03  0.51640800943E+03  0.64094291235E+03  0.00000000000E+00 0. -1.
         22    1    5    5    0    0  0.15649427068E+03 -0.26382308696E+03  0.14532201479E+04  0.14852413528E+04  0.00000000000E+00 0. -1.
          5    1    4    4  502    0  0.14963138665E+02 -0.43690453019E+02  0.44843322199E+03  0.45082945311E+03  0.47000000000E+01 0. -1.
         -5    1    4    4    0  502  0.97542233704E+02  0.39614721880E+02  0.38306543845E+03  0.39729716042E+03  0.47000000000E+01 0. -1.
<mgrwt>
<rscale>  0 0.10001069E+04</rscale>
<asrwt>0</asrwt>
<pdfrwt beam="1">  1        2 0.44426436E+00 0.10001069E+04</pdfrwt>
<pdfrwt beam="2">  1       -2 0.13321853E-01 0.10001069E+04</pdfrwt>
<totfact> 0.96736632E+01</totfact>
</mgrwt>
</event>
<event>
 9    1  0.4307774E-036  0.1000882E+04  0.7818608E-02  0.8680198E-01
          2   -1    0    0  501    0  0.00000000000E+00  0.00000000000E+00  0.47115342877E+03  0.47115342877E+03  0.00000000000E+00 0. -1.
         -2   -1    0    0    0  501 -0.00000000000E+00 -0.00000000000E+00 -0.53154964731E+03  0.53154964731E+03  0.00000000000E+00 0. -1.
         36    2    1    2    0    0  0.00000000000E+00  0.00000000000E+00 -0.60396218544E+02  0.10027030761E+04  0.10008824884E+04 0.  0.
         25    2    3    3    0    0  0.13211489184E+02 -0.13726667055E+03  0.17629361763E+02  0.18729101783E+03  0.12550079152E+03 0.  0.
         35    2    3    3    0    0 -0.13211489184E+02  0.13726667055E+03 -0.78025580307E+02  0.81541205825E+03  0.79987008400E+03 0.  0.
         22    1    5    5    0    0  0.11934919142E+03 -0.10379911197E+03 -0.37717267397E+03  0.40899597935E+03  0.00000000000E+00 0.  1.
         22    1    5    5    0    0 -0.13256068060E+03  0.24106578252E+03  0.29914709366E+03  0.40641607890E+03  0.00000000000E+00 0.  1.
          5    1    4    4  502    0  0.53130432880E+02 -0.17318898623E+02 -0.12035326217E+02  0.57356135022E+02  0.47000000000E+01 0.  1.
         -5    1    4    4    0  502 -0.39918943696E+02 -0.11994777193E+03  0.29664687981E+02  0.12993488281E+03  0.47000000000E+01 0.  1.
<mgrwt>
<rscale>  0 0.10008825E+04</rscale>
<asrwt>0</asrwt>
<pdfrwt beam="1">  1        2 0.72485143E-01 0.10008825E+04</pdfrwt>
<pdfrwt beam="2">  1       -2 0.81776869E-01 0.10008825E+04</pdfrwt>
<totfact> 0.10439631E+02</totfact>
</mgrwt>
</event>
<event>
 9    1  0.4307774E-036  0.1000718E+04  0.7818608E-02  0.8680354E-01
          2   -1    0    0  501    0  0.00000000000E+00  0.00000000000E+00  0.30960704074E+03  0.30960704074E+03  0.00000000000E+00 0. -1.
         -2   -1    0    0    0  501 -0.00000000000E+00 -0.00000000000E+00 -0.80863525793E+03  0.80863525793E+03  0.00000000000E+00 0. -1.
         36    2    1    2    0    0  0.21316282073E-13 -0.28421709430E-13 -0.49902821718E+03  0.11182422987E+04  0.10007180807E+04 0.  0.
         25    2    3    3    0    0  0.40140718777E+02 -0.77243508349E+02  0.28364608931E+02  0.15604415258E+03  0.12636213685E+03 0.  0.
         35    2    3    3    0    0 -0.40140718777E+02  0.77243508349E+02 -0.52739282611E+03  0.96219814609E+03  0.80006514885E+03 0.  0.
         22    1    5    5    0    0 -0.28156027738E+03  0.30332135067E+03 -0.47045529447E+03  0.62658456386E+03  0.00000000000E+00 0. -1.
         22    1    5    5    0    0  0.24141955861E+03 -0.22607784232E+03 -0.56937531648E+02  0.33561358223E+03  0.00000000000E+00 0. -1.
          5    1    4    4  502    0 -0.10796989929E+02 -0.18744685179E+02 -0.44382683958E+02  0.49596883463E+02  0.47000000000E+01 0. -1.
         -5    1    4    4    0  502  0.50937708706E+02 -0.58498823169E+02  0.72747292888E+02  0.10644726912E+03  0.47000000000E+01 0. -1.
<mgrwt>
<rscale>  0 0.10007181E+04</rscale>
<asrwt>0</asrwt>
<pdfrwt beam="1">  1        2 0.47631853E-01 0.10007181E+04</pdfrwt>
<pdfrwt beam="2">  1       -2 0.12440542E+00 0.10007181E+04</pdfrwt>
<totfact> 0.59713763E+01</totfact>
</mgrwt>
</event>
<event>
 9    1  0.4307774E-036  0.1000475E+04  0.7818608E-02  0.8680586E-01
         -2   -1    0    0    0  501 -0.00000000000E+00  0.00000000000E+00  0.26416637597E+03  0.26416637597E+03  0.00000000000E+00 0.  1.
          2   -1    0    0  501    0  0.00000000000E+00 -0.00000000000E+00 -0.94727180707E+03  0.94727180707E+03  0.00000000000E+00 0.  1.
         36    2    1    2    0    0  0.00000000000E+00  0.00000000000E+00 -0.68310543110E+03  0.12114381830E+04  0.10004746080E+04 0.  0.
         25    2    3    3    0    0  0.19308372685E+02 -0.13882618413E+03 -0.11662719400E+03  0.22104741681E+03  0.12495813477E+03 0.  0.
         35    2    3    3    0    0 -0.19308372685E+02  0.13882618413E+03 -0.56647823710E+03  0.99039076623E+03  0.80020669459E+03 0.  0.
         22    1    5    5    0    0  0.22928450187E+03  0.21843231470E+03  0.50304499402E+02  0.32064716054E+03  0.00000000000E+00 0. -1.
         22    1    5    5    0    0 -0.24859287456E+03 -0.79606130574E+02 -0.61678273650E+03  0.66974360568E+03  0.00000000000E+00 0. -1.
          5    1    4    4  502    0  0.28191899832E+02  0.13166677795E+02 -0.42463102740E+01  0.31753200960E+02  0.47000000000E+01 0. -1.
         -5    1    4    4    0  502 -0.88835271464E+01 -0.15199286192E+03 -0.11238088372E+03  0.18929421585E+03  0.47000000000E+01 0. -1.
<mgrwt>
<rscale>  0 0.10004746E+04</rscale>
<asrwt>0</asrwt>
<pdfrwt beam="1">  1        2 0.14573412E+00 0.10004746E+04</pdfrwt>
<pdfrwt beam="2">  1       -2 0.40640981E-01 0.10004746E+04</pdfrwt>
<totfact> 0.18900326E+02</totfact>
</mgrwt>
</event>
<event>
 9    1  0.4307774E-036  0.9991461E+03  0.7818608E-02  0.8681852E-01
         -2   -1    0    0    0  501 -0.00000000000E+00  0.00000000000E+00  0.17073111302E+03  0.17073111302E+03  0.00000000000E+00 0. -1.
          2   -1    0    0  501    0  0.00000000000E+00 -0.00000000000E+00 -0.14617911738E+04  0.14617911738E+04  0.00000000000E+00 0. -1.
         36    2    1    2    0    0  0.00000000000E+00  0.53290705182E-14 -0.12910600608E+04  0.16325222868E+04  0.99914610364E+03 0.  0.
         25    2    3    3    0    0 -0.13015869201E+03 -0.91365526644E+01 -0.32282393328E+03  0.36982434300E+03  0.12461938485E+03 0.  0.
         35    2    3    3    0    0  0.13015869201E+03  0.91365526644E+01 -0.96823612751E+03  0.12626979438E+04  0.79993758320E+03 0.  0.
         22    1    5    5    0    0  0.16199582818E+03 -0.46586951631E+02 -0.11017450918E+04  0.11145650450E+04  0.00000000000E+00 0.  1.
         22    1    5    5    0    0 -0.31837136169E+02  0.55723504295E+02  0.13350896424E+03  0.14813289879E+03  0.00000000000E+00 0.  1.
          5    1    4    4  502    0 -0.90873293667E+01  0.76436510110E+01 -0.18543478588E+03  0.18587402930E+03  0.47000000000E+01 0.  1.
         -5    1    4    4    0  502 -0.12107136264E+03 -0.16780203675E+02 -0.13738914740E+03  0.18395031370E+03  0.47000000000E+01 0.  1.
<mgrwt>
<rscale>  0 0.99914610E+03</rscale>
<asrwt>0</asrwt>
<pdfrwt beam="1">  1        2 0.22489095E+00 0.99914610E+03</pdfrwt>
<pdfrwt beam="2">  1       -2 0.26266325E-01 0.99914610E+03</pdfrwt>
<totfact> 0.20921793E+02</totfact>
</mgrwt>
</event>
<event>
 9    1  0.4307774E-036  0.9990145E+03  0.7818608E-02  0.8681977E-01
         -1   -1    0    0    0  501 -0.00000000000E+00  0.00000000000E+00  0.10579342932E+03  0.10579342932E+03  0.00000000000E+00 0.  1.
          1   -1    0    0  501    0  0.00000000000E+00 -0.00000000000E+00 -0.23584404738E+04  0.23584404738E+04  0.00000000000E+00 0.  1.
         36    2    1    2    0    0  0.00000000000E+00 -0.56843418861E-13 -0.22526470445E+04  0.24642339031E+04  0.99901452558E+03 0.  0.
         25    2    3    3    0    0  0.96833256248E+02 -0.98696841022E+02 -0.46147393749E+03  0.49767282096E+03  0.12490915018E+03 0.  0.
         35    2    3    3    0    0 -0.96833256248E+02  0.98696841022E+02 -0.17911731070E+04  0.19665610822E+04  0.79996477719E+03 0.  0.
         22    1    5    5    0    0 -0.67573890756E+02  0.36984259057E+03 -0.40017739322E+03  0.54908261542E+03  0.00000000000E+00 0.  1.
         22    1    5    5    0    0 -0.29259365492E+02 -0.27114574955E+03 -0.13909957138E+04  0.14174784667E+04  0.00000000000E+00 0.  1.
          5    1    4    4  502    0  0.63568189921E+02 -0.12697288562E+03 -0.36498004479E+03  0.39165744159E+03  0.47000000000E+01 0. -1.
         -5    1    4    4    0  502  0.33265066327E+02  0.28276044602E+02 -0.96493892699E+02  0.10601537938E+03  0.47000000000E+01 0. -1.
<mgrwt>
<rscale>  0 0.99901453E+03</rscale>
<asrwt>0</asrwt>
<pdfrwt beam="1">  1        1 0.36283699E+00 0.99901453E+03</pdfrwt>
<pdfrwt beam="2">  1       -1 0.16275912E-01 0.99901453E+03</pdfrwt>
<totfact> 0.50019891E+01</totfact>
</mgrwt>
</event>
<event>
 9    1  0.4307774E-036  0.9960305E+03  0.7818608E-02  0.8684827E-01
         -2   -1    0    0    0  501 -0.00000000000E+00  0.00000000000E+00  0.11258434005E+03  0.11258434005E+03  0.00000000000E+00 0.  1.
          2   -1    0    0  501    0  0.00000000000E+00 -0.00000000000E+00 -0.22029636447E+04  0.22029636447E+04  0.00000000000E+00 0.  1.
         36    2    1    2    0    0  0.28421709430E-13  0.35527136788E-13 -0.20903793047E+04  0.23155479848E+04  0.99603053786E+03 0.  0.
         25    2    3    3    0    0  0.11023382618E+03  0.41882892536E+02 -0.23951021747E+03  0.29464087563E+03  0.12466927527E+03 0.  0.
         35    2    3    3    0    0 -0.11023382618E+03 -0.41882892536E+02 -0.18508690872E+04  0.20209071091E+04  0.80277237912E+03 0.  0.
         22    1    5    5    0    0  0.14935000425E+01  0.31163161299E+03 -0.32350880654E+03  0.44919309953E+03  0.00000000000E+00 0. -1.
         22    1    5    5    0    0 -0.11172732622E+03 -0.35351450553E+03 -0.15273602806E+04  0.15717140096E+04  0.00000000000E+00 0. -1.
          5    1    4    4  502    0  0.94462954660E+02  0.12217824154E+01 -0.65164966171E+02  0.11486211460E+03  0.47000000000E+01 0. -1.
         -5    1    4    4    0  502  0.15770871521E+02  0.40661110121E+02 -0.17434525130E+03  0.17977876103E+03  0.47000000000E+01 0. -1.
<mgrwt>
<rscale>  0 0.99603054E+03</rscale>
<asrwt>0</asrwt>
<pdfrwt beam="1">  1        2 0.33891747E+00 0.99603054E+03</pdfrwt>
<pdfrwt beam="2">  1       -2 0.17320668E-01 0.99603054E+03</pdfrwt>
<totfact> 0.16399901E+02</totfact>
</mgrwt>
</event>
<event>
 9    1  0.4307774E-036  0.1000220E+04  0.7818608E-02  0.8680829E-01
          1   -1    0    0  501    0  0.00000000000E+00  0.00000000000E+00  0.31502375632E+04  0.31502375632E+04  0.00000000000E+00 0. -1.
         -1   -1    0    0    0  501 -0.00000000000E+00 -0.00000000000E+00 -0.79393941707E+02  0.79393941707E+02  0.00000000000E+00 0. -1.
         36    2    1    2    0    0  0.00000000000E+00 -0.71054273576E-14  0.30708436214E+04  0.32296315049E+04  0.10002195308E+04 0.  0.
         25    2    3    3    0    0 -0.83911778070E+02  0.32641210979E+02  0.92973443218E+03  0.94279806074E+03  0.12788836457E+03 0.  0.
         35    2    3    3    0    0  0.83911778070E+02 -0.32641210979E+02  0.21411091893E+04  0.22868334441E+04  0.79821801887E+03 0.  0.
         22    1    5    5    0    0 -0.32711615711E+03 -0.88763226421E+02  0.13690205179E+04  0.14103549444E+04  0.00000000000E+00 0.  1.
         22    1    5    5    0    0  0.41102793518E+03  0.56122015442E+02  0.77208867133E+03  0.87647849974E+03  0.00000000000E+00 0.  1.
          5    1    4    4  502    0 -0.68848780207E+02  0.55197908816E+02  0.89047608790E+03  0.89485010856E+03  0.47000000000E+01 0. -1.
         -5    1    4    4    0  502 -0.15062997863E+02 -0.22556697837E+02  0.39258344284E+02  0.47947952176E+02  0.47000000000E+01 0. -1.
<mgrwt>
<rscale>  0 0.10002195E+04</rscale>
<asrwt>0</asrwt>
<pdfrwt beam="1">  1        1 0.48465184E+00 0.10002195E+04</pdfrwt>
<pdfrwt beam="2">  1       -1 0.12214455E-01 0.10002195E+04</pdfrwt>
<totfact> 0.21631270E+01</totfact>
</mgrwt>
</event>
<event>
 9    1  0.4307774E-036  0.1007607E+04  0.7818608E-02  0.8673828E-01
          1   -1    0    0  501    0  0.00000000000E+00  0.00000000000E+00  0.10769508033E+04  0.10769508033E+04  0.00000000000E+00 0.  1.
         -1   -1    0    0    0  501 -0.00000000000E+00 -0.00000000000E+00 -0.23568199719E+03  0.23568199719E+03  0.00000000000E+00 0.  1.
         36    2    1    2    0    0  0.00000000000E+00  0.00000000000E+00  0.84126880612E+03  0.13126328005E+04  0.10076068999E+04 0.  0.
         25    2    3    3    0    0 -0.10553371287E+03  0.95603927502E+02  0.21850828496E+03  0.28915482556E+03  0.12484857643E+03 0.  0.
         35    2    3    3    0    0  0.10553371287E+03 -0.95603927502E+02  0.62276052116E+03  0.10234779749E+04  0.79962430114E+03 0.  0.
         22    1    5    5    0    0  0.25009708321E+03 -0.39823250333E+03  0.29862273240E+03  0.55705763979E+03  0.00000000000E+00 0.  1.
         22    1    5    5    0    0 -0.14456337034E+03  0.30262857583E+03  0.32413778876E+03  0.46642033516E+03  0.00000000000E+00 0.  1.
          5    1    4    4  502    0 -0.11931343845E+03  0.47228786414E+02  0.10852865559E+03  0.16812737416E+03  0.47000000000E+01 0.  1.
         -5    1    4    4    0  502  0.13779725573E+02  0.48375141087E+02  0.10997962938E+03  0.12102745139E+03  0.47000000000E+01 0.  1.
<mgrwt>
<rscale>  0 0.10076069E+04</rscale>
<asrwt>0</asrwt>
<pdfrwt beam="1">  1        1 0.16568474E+00 0.10076069E+04</pdfrwt>
<pdfrwt beam="2">  1       -1 0.36258770E-01 0.10076069E+04</pdfrwt>
<totfact> 0.10694396E+02</totfact>
</mgrwt>
</event>
<event>
 9    1  0.4307774E-036  0.9995831E+03  0.7818608E-02  0.8681435E-01
          2   -1    0    0  501    0  0.00000000000E+00  0.00000000000E+00  0.79315731642E+03  0.79315731642E+03  0.00000000000E+00 0.  1.
         -2   -1    0    0    0  501 -0.00000000000E+00 -0.00000000000E+00 -0.31493325576E+03  0.31493325576E+03  0.00000000000E+00 0.  1.
         36    2    1    2    0    0  0.14210854715E-13 -0.21316282073E-13  0.47822406066E+03  0.11080905722E+04  0.99958314509E+03 0.  0.
         25    2    3    3    0    0 -0.10033931194E+03  0.42226973001E+02 -0.13871055366E+02  0.16646846902E+03  0.12517288137E+03 0.  0.
         35    2    3    3    0    0  0.10033931194E+03 -0.42226973001E+02  0.49209511603E+03  0.94162210315E+03  0.79538889052E+03 0.  0.
         22    1    5    5    0    0  0.10225428445E+03 -0.33440041535E+03 -0.21917241260E+02  0.35037114884E+03  0.00000000000E+00 0.  1.
         22    1    5    5    0    0 -0.19149725100E+01  0.29217344235E+03  0.51401235729E+03  0.59125095431E+03  0.00000000000E+00 0.  1.
          5    1    4    4  502    0 -0.87702831477E+01 -0.40448994558E+02  0.34597239145E+01  0.41798309975E+02  0.47000000000E+01 0. -1.
         -5    1    4    4    0  502 -0.91569028792E+02  0.82675967558E+02 -0.17330779280E+02  0.12467015904E+03  0.47000000000E+01 0. -1.
<mgrwt>
<rscale>  0 0.99958315E+03</rscale>
<asrwt>0</asrwt>
<pdfrwt beam="1">  1        2 0.12202420E+00 0.99958315E+03</pdfrwt>
<pdfrwt beam="2">  1       -2 0.48451270E-01 0.99958315E+03</pdfrwt>
<totfact> 0.17014302E+02</totfact>
</mgrwt>
</event>
<event>
 9    1  0.4307774E-036  0.9992420E+03  0.7818608E-02  0.8681760E-01
         -2   -1    0    0    0  501 -0.00000000000E+00  0.00000000000E+00  0.17610427739E+03  0.17610427739E+03  0.00000000000E+00 0.  1.
          2   -1    0    0  501    0  0.00000000000E+00 -0.00000000000E+00 -0.14174620903E+04  0.14174620903E+04  0.00000000000E+00 0.  1.
         36    2    1    2    0    0 -0.42632564146E-13  0.00000000000E+00 -0.12413578129E+04  0.15935663677E+04  0.99924198699E+03 0.  0.
         25    2    3    3    0    0  0.11530602252E+03 -0.63845406311E+02 -0.30236463677E+03  0.35290725170E+03  0.12548880428E+03 0.  0.
         35    2    3    3    0    0 -0.11530602252E+03  0.63845406311E+02 -0.93899317616E+03  0.12406591160E+04  0.80009695819E+03 0.  0.
         22    1    5    5    0    0  0.30284099661E+03  0.29935954175E+02 -0.68672571464E+03  0.75113316910E+03  0.00000000000E+00 0.  1.
         22    1    5    5    0    0 -0.41814701913E+03  0.33909452136E+02 -0.25226746152E+03  0.48952594690E+03  0.00000000000E+00 0.  1.
          5    1    4    4  502    0  0.13237029165E+03 -0.28273769422E+02 -0.18701728501E+03  0.23090875913E+03  0.47000000000E+01 0. -1.
         -5    1    4    4    0  502 -0.17064269138E+02 -0.35571636889E+02 -0.11534735176E+03  0.12199849257E+03  0.47000000000E+01 0. -1.
<mgrwt>
<rscale>  0 0.99924199E+03</rscale>
<asrwt>0</asrwt>
<pdfrwt beam="1">  1        2 0.21807110E+00 0.99924199E+03</pdfrwt>
<pdfrwt beam="2">  1       -2 0.27092964E-01 0.99924199E+03</pdfrwt>
<totfact> 0.20976749E+02</totfact>
</mgrwt>
</event>
<event>
 9    1  0.4307774E-036  0.9996284E+03  0.7818608E-02  0.8681392E-01
          2   -1    0    0  501    0  0.00000000000E+00  0.00000000000E+00  0.35572526293E+03  0.35572526293E+03  0.00000000000E+00 0.  1.
         -2   -1    0    0    0  501 -0.00000000000E+00 -0.00000000000E+00 -0.70226737056E+03  0.70226737056E+03  0.00000000000E+00 0.  1.
         36    2    1    2    0    0 -0.28421709430E-13  0.71054273576E-14 -0.34654210763E+03  0.10579926335E+04  0.99962842104E+03 0.  0.
         25    2    3    3    0    0  0.13385912955E+03  0.21505983149E+02 -0.97997536615E+02  0.20918763523E+03  0.12559926622E+03 0.  0.
         35    2    3    3    0    0 -0.13385912955E+03 -0.21505983149E+02 -0.24854457101E+03  0.84880499826E+03  0.80019669296E+03 0.  0.
         22    1    5    5    0    0  0.10434408708E+03 -0.21276116377E+03 -0.43181535661E+03  0.49256421259E+03  0.00000000000E+00 0. -1.
         22    1    5    5    0    0 -0.23820321662E+03  0.19125518062E+03  0.18327078560E+03  0.35624078567E+03  0.00000000000E+00 0. -1.
          5    1    4    4  502    0  0.48265607619E+02 -0.83444394403E+01  0.25892665593E+02  0.55603225445E+02  0.47000000000E+01 0. -1.
         -5    1    4    4    0  502  0.85593521927E+02  0.29850422589E+02 -0.12389020221E+03  0.15358440978E+03  0.47000000000E+01 0. -1.
<mgrwt>
<rscale>  0 0.99962842E+03</rscale>
<asrwt>0</asrwt>
<pdfrwt beam="1">  1        2 0.54726964E-01 0.99962842E+03</pdfrwt>
<pdfrwt beam="2">  1       -2 0.10804113E+00 0.99962842E+03</pdfrwt>
<totfact> 0.73515322E+01</totfact>
</mgrwt>
</event>
<event>
 9    1  0.4307774E-036  0.9989138E+03  0.7818608E-02  0.8682073E-01
         -1   -1    0    0    0  501 -0.00000000000E+00  0.00000000000E+00  0.16562926832E+03  0.16562926832E+03  0.00000000000E+00 0.  1.
          1   -1    0    0  501    0  0.00000000000E+00 -0.00000000000E+00 -0.15061177390E+04  0.15061177390E+04  0.00000000000E+00 0.  1.
         36    2    1    2    0    0  0.00000000000E+00  0.00000000000E+00 -0.13404884707E+04  0.16717470073E+04  0.99891376829E+03 0.  0.
         25    2    3    3    0    0 -0.65184045498E+02  0.73424023600E+01 -0.43578477541E+02  0.14652584399E+03  0.12356321699E+03 0.  0.
         35    2    3    3    0    0  0.65184045498E+02 -0.73424023600E+01 -0.12969099931E+04  0.15252211633E+04  0.80001324747E+03 0.  0.
         22    1    5    5    0    0 -0.51555980042E+02 -0.11755262336E+03 -0.13500286853E+04  0.13561172845E+04  0.00000000000E+00 0. -1.
         22    1    5    5    0    0  0.11674002554E+03  0.11021022100E+03  0.53118692128E+02  0.16910387882E+03  0.00000000000E+00 0. -1.
          5    1    4    4  502    0 -0.80696357368E+02 -0.23060608478E+02 -0.64733828773E+02  0.10609548691E+03  0.47000000000E+01 0.  1.
         -5    1    4    4    0  502  0.15512311870E+02  0.30403010838E+02  0.21155351232E+02  0.40430357076E+02  0.47000000000E+01 0.  1.
<mgrwt>
<rscale>  0 0.99891377E+03</rscale>
<asrwt>0</asrwt>
<pdfrwt beam="1">  1        1 0.23171043E+00 0.99891377E+03</pdfrwt>
<pdfrwt beam="2">  1       -1 0.25481425E-01 0.99891377E+03</pdfrwt>
<totfact> 0.94766270E+01</totfact>
</mgrwt>
</event>
<event>
 9    1  0.4307774E-036  0.9995144E+03  0.7818608E-02  0.8681500E-01
          2   -1    0    0  501    0  0.00000000000E+00  0.00000000000E+00  0.26470054238E+04  0.26470054238E+04  0.00000000000E+00 0.  1.
         -2   -1    0    0    0  501 -0.00000000000E+00 -0.00000000000E+00 -0.94354651159E+02  0.94354651159E+02  0.00000000000E+00 0.  1.
         36    2    1    2    0    0  0.00000000000E+00  0.00000000000E+00  0.25526507727E+04  0.27413600750E+04  0.99951442887E+03 0.  0.
         25    2    3    3    0    0  0.35847570099E+02  0.13424235956E+03  0.51821160309E+03  0.55088477614E+03  0.12499884648E+03 0.  0.
         35    2    3    3    0    0 -0.35847570099E+02 -0.13424235956E+03  0.20344391696E+04  0.21904752988E+04  0.79995827439E+03 0.  0.
         22    1    5    5    0    0  0.37365981085E+02 -0.66270026257E+02  0.20794926710E+04  0.20808838751E+04  0.00000000000E+00 0.  1.
         22    1    5    5    0    0 -0.73213551184E+02 -0.67972333305E+02 -0.45053501408E+02  0.10959142376E+03  0.00000000000E+00 0.  1.
          5    1    4    4  502    0  0.63309028773E+02  0.14349628670E+03  0.45184356838E+03  0.47831361857E+03  0.47000000000E+01 0.  1.
         -5    1    4    4    0  502 -0.27461458674E+02 -0.92539271393E+01  0.66368034710E+02  0.72571157571E+02  0.47000000000E+01 0.  1.
<mgrwt>
<rscale>  0 0.99951443E+03</rscale>
<asrwt>0</asrwt>
<pdfrwt beam="1">  1        2 0.40723155E+00 0.99951443E+03</pdfrwt>
<pdfrwt beam="2">  1       -2 0.14516102E-01 0.99951443E+03</pdfrwt>
<totfact> 0.11941527E+02</totfact>
</mgrwt>
</event>
<event>
 9    1  0.4307774E-036  0.1001860E+04  0.7818608E-02  0.8679268E-01
          2   -1    0    0  501    0  0.00000000000E+00  0.00000000000E+00  0.76190376883E+03  0.76190376883E+03  0.00000000000E+00 0. -1.
         -2   -1    0    0    0  501 -0.00000000000E+00 -0.00000000000E+00 -0.32934737276E+03  0.32934737276E+03  0.00000000000E+00 0. -1.
         36    2    1    2    0    0  0.00000000000E+00  0.00000000000E+00  0.43255639607E+03  0.10912511416E+04  0.10018602788E+04 0.  0.
         25    2    3    3    0    0 -0.70232701876E+02 -0.55243746562E+02  0.20221836442E+03  0.25456215553E+03  0.12619477080E+03 0.  0.
         35    2    3    3    0    0  0.70232701876E+02  0.55243746562E+02  0.23033803165E+03  0.83668898605E+03  0.79937997636E+03 0.  0.
         22    1    5    5    0    0 -0.17707133791E+03  0.16264992175E+03 -0.21074778466E+03  0.31972470110E+03  0.00000000000E+00 0.  1.
         22    1    5    5    0    0  0.24730403979E+03 -0.10740617518E+03  0.44108581631E+03  0.51696428495E+03  0.00000000000E+00 0.  1.
          5    1    4    4  502    0 -0.25241699610E+02 -0.78423844551E+02  0.18204754256E+03  0.19987706358E+03  0.47000000000E+01 0. -1.
         -5    1    4    4    0  502 -0.44991002266E+02  0.23180097989E+02  0.20170821856E+02  0.54685091954E+02  0.47000000000E+01 0. -1.
<mgrwt>
<rscale>  0 0.10018603E+04</rscale>
<asrwt>0</asrwt>
<pdfrwt beam="1">  1        2 0.11721596E+00 0.10018603E+04</pdfrwt>
<pdfrwt beam="2">  1       -2 0.50668827E-01 0.10018603E+04</pdfrwt>
<totfact> 0.16378238E+02</totfact>
</mgrwt>
</event>
<event>
 9    1  0.4307774E-036  0.9994175E+03  0.7818608E-02  0.8681593E-01
          2   -1    0    0  501    0  0.00000000000E+00  0.00000000000E+00  0.91314234360E+03  0.91314234360E+03  0.00000000000E+00 0. -1.
         -2   -1    0    0    0  501 -0.00000000000E+00 -0.00000000000E+00 -0.27346102974E+03  0.27346102974E+03  0.00000000000E+00 0. -1.
         36    2    1    2    0    0  0.00000000000E+00  0.00000000000E+00  0.63968131386E+03  0.11866033733E+04  0.99941752153E+03 0.  0.
         25    2    3    3    0    0  0.99399144000E+02 -0.89018151022E+02  0.15939918090E+03  0.24288489229E+03  0.12562066307E+03 0.  0.
         35    2    3    3    0    0 -0.99399144000E+02  0.89018151022E+02  0.48028213296E+03  0.94371848106E+03  0.80132965951E+03 0.  0.
         22    1    5    5    0    0  0.29608406963E+03 -0.13829942801E+03  0.79066636475E+02  0.33622022705E+03  0.00000000000E+00 0.  1.
         22    1    5    5    0    0 -0.39548321363E+03  0.22731757903E+03  0.40121549649E+03  0.60749825401E+03  0.00000000000E+00 0.  1.
          5    1    4    4  502    0  0.10911471372E+03 -0.10710070714E+03  0.10774584957E+03  0.18710382230E+03  0.47000000000E+01 0. -1.
         -5    1    4    4    0  502 -0.97155697222E+01  0.18082556121E+02  0.51653331330E+02  0.55781069983E+02  0.47000000000E+01 0. -1.
<mgrwt>
<rscale>  0 0.99941752E+03</rscale>
<asrwt>0</asrwt>
<pdfrwt beam="1">  1        2 0.14048344E+00 0.99941752E+03</pdfrwt>
<pdfrwt beam="2">  1       -2 0.42070928E-01 0.99941752E+03</pdfrwt>
<totfact> 0.18607190E+02</totfact>
</mgrwt>
</event>
<event>
 9    1  0.4307774E-036  0.9996574E+03  0.7818608E-02  0.8681364E-01
         -1   -1    0    0    0  501 -0.00000000000E+00  0.00000000000E+00  0.16629295459E+03  0.16629295459E+03  0.00000000000E+00 0. -1.
          1   -1    0    0  501    0  0.00000000000E+00 -0.00000000000E+00 -0.15023409295E+04  0.15023409295E+04  0.00000000000E+00 0. -1.
         36    2    1    2    0    0  0.71054273576E-14  0.14210854715E-13 -0.13360479750E+04  0.16686338841E+04  0.99965736526E+03 0.  0.
         25    2    3    3    0    0  0.46785667365E+02  0.10113562755E+03 -0.11532738480E+03  0.20318624551E+03  0.12476750719E+03 0.  0.
         35    2    3    3    0    0 -0.46785667365E+02 -0.10113562755E+03 -0.12207205902E+04  0.14654476386E+04  0.80309445801E+03 0.  0.
         22    1    5    5    0    0  0.11062758851E+03 -0.42979691545E+03 -0.61193553000E+03  0.75592919294E+03  0.00000000000E+00 0.  1.
         22    1    5    5    0    0 -0.15741325588E+03  0.32866128790E+03 -0.60878506016E+03  0.70951844568E+03  0.00000000000E+00 0.  1.
          5    1    4    4  502    0  0.57164890599E+02  0.13214989520E+02 -0.14641884009E+01  0.58878642247E+02  0.47000000000E+01 0. -1.
         -5    1    4    4    0  502 -0.10379223234E+02  0.87920638030E+02 -0.11386319640E+03  0.14430760327E+03  0.47000000000E+01 0. -1.
<mgrwt>
<rscale>  0 0.99965737E+03</rscale>
<asrwt>0</asrwt>
<pdfrwt beam="1">  1        1 0.23112938E+00 0.99965737E+03</pdfrwt>
<pdfrwt beam="2">  1       -1 0.25583531E-01 0.99965737E+03</pdfrwt>
<totfact> 0.94709583E+01</totfact>
</mgrwt>
</event>
<event>
 9    1  0.4307774E-036  0.1001955E+04  0.7818608E-02  0.8679178E-01
          2   -1    0    0  501    0  0.00000000000E+00  0.00000000000E+00  0.35283572668E+04  0.35283572668E+04  0.00000000000E+00 0.  1.
         -2   -1    0    0    0  501 -0.00000000000E+00 -0.00000000000E+00 -0.71131857195E+02  0.71131857195E+02  0.00000000000E+00 0.  1.
         36    2    1    2    0    0  0.00000000000E+00  0.00000000000E+00  0.34572254096E+04  0.35994891240E+04  0.10019552989E+04 0.  0.
         25    2    3    3    0    0 -0.13807842296E+03 -0.27311338455E+02  0.58793747660E+03  0.61718519626E+03  0.12423980846E+03 0.  0.
         35    2    3    3    0    0  0.13807842296E+03  0.27311338455E+02  0.28692879330E+04  0.29823039277E+04  0.80094438929E+03 0.  0.
         22    1    5    5    0    0  0.33340810579E+03 -0.63157197947E+02  0.26617338844E+04  0.26832772999E+04  0.00000000000E+00 0. -1.
         22    1    5    5    0    0 -0.19532968283E+03  0.90468536402E+02  0.20755404862E+03  0.29902662787E+03  0.00000000000E+00 0. -1.
          5    1    4    4  502    0 -0.65313618793E+02 -0.44489695635E+02  0.12316030957E+03  0.14640954091E+03  0.47000000000E+01 0.  1.
         -5    1    4    4    0  502 -0.72764804168E+02  0.17178357180E+02  0.46477716703E+03  0.47077565535E+03  0.47000000000E+01 0.  1.
<mgrwt>
<rscale>  0 0.10019553E+04</rscale>
<asrwt>0</asrwt>
<pdfrwt beam="1">  1        2 0.54282406E+00 0.10019553E+04</pdfrwt>
<pdfrwt beam="2">  1       -2 0.10943365E-01 0.10019553E+04</pdfrwt>
<totfact> 0.47414841E+01</totfact>
</mgrwt>
</event>
<event>
 9    1  0.4307774E-036  0.1000378E+04  0.7818608E-02  0.8680678E-01
          1   -1    0    0  501    0  0.00000000000E+00  0.00000000000E+00  0.78446753000E+03  0.78446753000E+03  0.00000000000E+00 0. -1.
         -1   -1    0    0    0  501 -0.00000000000E+00 -0.00000000000E+00 -0.31892822215E+03  0.31892822215E+03  0.00000000000E+00 0. -1.
         36    2    1    2    0    0  0.71054273576E-14  0.00000000000E+00  0.46553930785E+03  0.11033957521E+04  0.10003775981E+04 0.  0.
         25    2    3    3    0    0  0.32951730927E+02  0.13457415283E+03  0.78389593895E+02  0.20385776715E+03  0.12734614879E+03 0.  0.
         35    2    3    3    0    0 -0.32951730927E+02 -0.13457415283E+03  0.38714971396E+03  0.89953798500E+03  0.80005478954E+03 0.  0.
         22    1    5    5    0    0 -0.38456562231E+03 -0.15450282512E+03  0.59828068422E+02  0.41873767278E+03  0.00000000000E+00 0. -1.
         22    1    5    5    0    0  0.35161389139E+03  0.19928672288E+02  0.32732164553E+03  0.48080031222E+03  0.00000000000E+00 0. -1.
          5    1    4    4  502    0  0.28723520344E+02  0.15954897412E+03  0.71109621909E+02  0.17708637467E+03  0.47000000000E+01 0. -1.
         -5    1    4    4    0  502  0.42282105830E+01 -0.24974821289E+02  0.72799719865E+01  0.26771392479E+02  0.47000000000E+01 0. -1.
<mgrwt>
<rscale>  0 0.10003776E+04</rscale>
<asrwt>0</asrwt>
<pdfrwt beam="1">  1        1 0.12068731E+00 0.10003776E+04</pdfrwt>
<pdfrwt beam="2">  1       -1 0.49065881E-01 0.10003776E+04</pdfrwt>
<totfact> 0.10826414E+02</totfact>
</mgrwt>
</event>
<event>
 9    1  0.4307774E-036  0.9996662E+03  0.7818608E-02  0.8681356E-01
         -1   -1    0    0    0  501 -0.00000000000E+00  0.00000000000E+00  0.19038533991E+03  0.19038533991E+03  0.00000000000E+00 0. -1.
          1   -1    0    0  501    0  0.00000000000E+00 -0.00000000000E+00 -0.13122498886E+04  0.13122498886E+04  0.00000000000E+00 0. -1.
         36    2    1    2    0    0 -0.28421709430E-13  0.00000000000E+00 -0.11218645487E+04  0.15026352285E+04  0.99966622649E+03 0.  0.
         25    2    3    3    0    0  0.13812492536E+03  0.20698991147E+02 -0.22712273695E+03  0.29442956645E+03  0.12488830498E+03 0.  0.
         35    2    3    3    0    0 -0.13812492536E+03 -0.20698991147E+02 -0.89474181174E+03  0.12082056621E+04  0.79980689478E+03 0.  0.
         22    1    5    5    0    0 -0.28017533710E+03 -0.79456449862E+02 -0.98690161669E+03  0.10289734438E+04  0.00000000000E+00 0.  1.
         22    1    5    5    0    0  0.14205041174E+03  0.58757458715E+02  0.92159804952E+02  0.17923221830E+03  0.00000000000E+00 0.  1.
          5    1    4    4  502    0  0.77923582904E+02  0.72893874374E+02 -0.11694002774E+03  0.15837506679E+03  0.47000000000E+01 0.  1.
         -5    1    4    4    0  502  0.60201342453E+02 -0.52194883227E+02 -0.11018270921E+03  0.13605449966E+03  0.47000000000E+01 0.  1.
<mgrwt>
<rscale>  0 0.99966623E+03</rscale>
<asrwt>0</asrwt>
<pdfrwt beam="1">  1        1 0.20188460E+00 0.99966623E+03</pdfrwt>
<pdfrwt beam="2">  1       -1 0.29290052E-01 0.99966623E+03</pdfrwt>
<totfact> 0.10316764E+02</totfact>
</mgrwt>
</event>
<event>
 9    1  0.4307774E-036  0.1005521E+04  0.7818608E-02  0.8675798E-01
         -1   -1    0    0    0  501 -0.00000000000E+00  0.00000000000E+00  0.10605733882E+04  0.10605733882E+04  0.00000000000E+00 0. -1.
          1   -1    0    0  501    0  0.00000000000E+00 -0.00000000000E+00 -0.23833148008E+03  0.23833148008E+03  0.00000000000E+00 0. -1.
         36    2    1    2    0    0 -0.14210854715E-13  0.00000000000E+00  0.82224190810E+03  0.12989048683E+04  0.10055208110E+04 0.  0.
         25    2    3    3    0    0 -0.51880942220E+02 -0.21346726113E+01 -0.19388273276E+02  0.13632829730E+03  0.12455244081E+03 0.  0.
         35    2    3    3    0    0  0.51880942220E+02  0.21346726113E+01  0.84163018138E+03  0.11625765710E+04  0.80034163464E+03 0.  0.
         22    1    5    5    0    0 -0.17874793657E+03 -0.59573964945E+02  0.89776576983E+03  0.91732396655E+03  0.00000000000E+00 0. -1.
         22    1    5    5    0    0  0.23062887879E+03  0.61708637556E+02 -0.56135588452E+02  0.24525260441E+03  0.00000000000E+00 0. -1.
          5    1    4    4  502    0 -0.45355812789E+02 -0.68670152949E+01 -0.70571548151E+02  0.84301477218E+02  0.47000000000E+01 0. -1.
         -5    1    4    4    0  502 -0.65251294310E+01  0.47323426836E+01  0.51183274875E+02  0.52026820086E+02  0.47000000000E+01 0. -1.
<mgrwt>
<rscale>  0 0.10055208E+04</rscale>
<asrwt>0</asrwt>
<pdfrwt beam="1">  1        1 0.36666382E-01 0.10055208E+04</pdfrwt>
<pdfrwt beam="2">  1       -1 0.16316513E+00 0.10055208E+04</pdfrwt>
<totfact> 0.37592191E+01</totfact>
</mgrwt>
</event>
<event>
 9    1  0.4307774E-036  0.9991616E+03  0.7818608E-02  0.8681837E-01
         -1   -1    0    0    0  501 -0.00000000000E+00  0.00000000000E+00  0.35457472685E+03  0.35457472685E+03  0.00000000000E+00 0. -1.
          1   -1    0    0  501    0  0.00000000000E+00 -0.00000000000E+00 -0.70388826984E+03  0.70388826984E+03  0.00000000000E+00 0. -1.
         36    2    1    2    0    0 -0.14210854715E-13  0.00000000000E+00 -0.34931354299E+03  0.10584629967E+04  0.99916163059E+03 0.  0.
         25    2    3    3    0    0 -0.84842873108E+02 -0.55000571978E+02 -0.16792366892E+03  0.23252408483E+03  0.12508283417E+03 0.  0.
         35    2    3    3    0    0  0.84842873108E+02  0.55000571978E+02 -0.18138987407E+03  0.82593891186E+03  0.79940566903E+03 0.  0.
         22    1    5    5    0    0  0.17619469602E+03 -0.25868658767E+03  0.16159756801E+03  0.35224578852E+03  0.00000000000E+00 0. -1.
         22    1    5    5    0    0 -0.91351822915E+02  0.31368715964E+03 -0.34298744208E+03  0.47369312334E+03  0.00000000000E+00 0. -1.
          5    1    4    4  502    0 -0.11277238381E+03 -0.26848323185E+02 -0.97419849276E+02  0.15149640274E+03  0.47000000000E+01 0. -1.
         -5    1    4    4    0  502  0.27929510705E+02 -0.28152248792E+02 -0.70503819646E+02  0.81027682091E+02  0.47000000000E+01 0. -1.
<mgrwt>
<rscale>  0 0.99916163E+03</rscale>
<asrwt>0</asrwt>
<pdfrwt beam="1">  1        1 0.10829050E+00 0.99916163E+03</pdfrwt>
<pdfrwt beam="2">  1       -1 0.54549959E-01 0.99916163E+03</pdfrwt>
<totfact> 0.10544287E+02</totfact>
</mgrwt>
</event>
<event>
 9    1  0.4307774E-036  0.1002551E+04  0.7818608E-02  0.8678613E-01
         -1   -1    0    0    0  501 -0.00000000000E+00  0.00000000000E+00  0.82895638944E+03  0.82895638944E+03  0.00000000000E+00 0. -1.
          1   -1    0    0  501    0  0.00000000000E+00 -0.00000000000E+00 -0.30312443778E+03  0.30312443778E+03  0.00000000000E+00 0. -1.
         36    2    1    2    0    0 -0.42632564146E-13  0.00000000000E+00  0.52583195166E+03  0.11320808272E+04  0.10025506261E+04 0.  0.
         25    2    3    3    0    0 -0.82801162872E+02  0.10421011589E+03  0.40063986590E+02  0.18677971754E+03  0.12476281111E+03 0.  0.
         35    2    3    3    0    0  0.82801162872E+02 -0.10421011589E+03  0.48576796507E+03  0.94530110969E+03  0.79994242997E+03 0.  0.
         22    1    5    5    0    0 -0.18647431390E+03 -0.35531369932E+03  0.10318401423E+03  0.41432769092E+03  0.00000000000E+00 0. -1.
         22    1    5    5    0    0  0.26927547677E+03  0.25110358343E+03  0.38258395084E+03  0.53097341877E+03  0.00000000000E+00 0. -1.
          5    1    4    4  502    0  0.12815463340E+01 -0.35029487835E+01 -0.31769968968E+02  0.32331624447E+02  0.47000000000E+01 0.  1.
         -5    1    4    4    0  502 -0.84082709206E+02  0.10771306467E+03  0.71833955558E+02  0.15444809309E+03  0.47000000000E+01 0. -1.
<mgrwt>
<rscale>  0 0.10025506E+04</rscale>
<asrwt>0</asrwt>
<pdfrwt beam="1">  1        1 0.46634529E-01 0.10025506E+04</pdfrwt>
<pdfrwt beam="2">  1       -1 0.12753175E+00 0.10025506E+04</pdfrwt>
<totfact> 0.55185492E+01</totfact>
</mgrwt>
</event>
<event>
 9    1  0.4307774E-036  0.1001940E+04  0.7818608E-02  0.8679192E-01
          2   -1    0    0  501    0  0.00000000000E+00  0.00000000000E+00  0.21069208562E+03  0.21069208562E+03  0.00000000000E+00 0. -1.
         -2   -1    0    0    0  501 -0.00000000000E+00 -0.00000000000E+00 -0.11911750008E+04  0.11911750008E+04  0.00000000000E+00 0. -1.
         36    2    1    2    0    0  0.28421709430E-13  0.00000000000E+00 -0.98048291516E+03  0.14018670864E+04  0.10019404079E+04 0.  0.
         25    2    3    3    0    0 -0.95969842707E+02  0.92623104005E+02 -0.26034731966E+03  0.31818830010E+03  0.12519511717E+03 0.  0.
         35    2    3    3    0    0  0.95969842707E+02 -0.92623104005E+02 -0.72013559550E+03  0.10836787863E+04  0.79873348863E+03 0.  0.
         22    1    5    5    0    0  0.44920895701E+03 -0.72790810121E+02 -0.43079056045E+03  0.62663202604E+03  0.00000000000E+00 0.  1.
         22    1    5    5    0    0 -0.35323911430E+03 -0.19832293884E+02 -0.28934503505E+03  0.45704676025E+03  0.00000000000E+00 0.  1.
          5    1    4    4  502    0 -0.78558262243E+02 -0.94598473760E+01 -0.11265297390E+03  0.13774495202E+03  0.47000000000E+01 0.  1.
         -5    1    4    4    0  502 -0.17411580464E+02  0.10208295138E+03 -0.14769434576E+03  0.18044334808E+03  0.47000000000E+01 0.  1.
<mgrwt>
<rscale>  0 0.10019404E+04</rscale>
<asrwt>0</asrwt>
<pdfrwt beam="1">  1        2 0.32414167E-01 0.10019404E+04</pdfrwt>
<pdfrwt beam="2">  1       -2 0.18325769E+00 0.10019404E+04</pdfrwt>
<totfact> 0.30928554E+01</totfact>
</mgrwt>
</event>
<event>
 9    1  0.4307774E-036  0.1000693E+04  0.7818608E-02  0.8680378E-01
          1   -1    0    0  501    0  0.00000000000E+00  0.00000000000E+00  0.13264422448E+04  0.13264422448E+04  0.00000000000E+00 0.  1.
         -1   -1    0    0    0  501 -0.00000000000E+00 -0.00000000000E+00 -0.18873544988E+03  0.18873544988E+03  0.00000000000E+00 0.  1.
         36    2    1    2    0    0  0.00000000000E+00  0.00000000000E+00  0.11377067950E+04  0.15151776947E+04  0.10006931074E+04 0.  0.
         25    2    3    3    0    0  0.38166578322E+02 -0.91229828729E+02  0.35845696076E+03  0.39201306426E+03  0.12410995320E+03 0.  0.
         35    2    3    3    0    0 -0.38166578322E+02  0.91229828729E+02  0.77924983420E+03  0.11231646304E+04  0.80280066868E+03 0.  0.
         22    1    5    5    0    0  0.14960241599E+02  0.44407716715E+03  0.35444846766E+03  0.56838548138E+03  0.00000000000E+00 0.  1.
         22    1    5    5    0    0 -0.53126819921E+02 -0.35284733842E+03  0.42480136653E+03  0.55477914906E+03  0.00000000000E+00 0.  1.
          5    1    4    4  502    0  0.26706986647E+02  0.27819764042E+02  0.95322983438E+02  0.10293572547E+03  0.47000000000E+01 0. -1.
         -5    1    4    4    0  502  0.11459591675E+02 -0.11904959277E+03  0.26313397732E+03  0.28907733879E+03  0.47000000000E+01 0. -1.
<mgrwt>
<rscale>  0 0.10006931E+04</rscale>
<asrwt>0</asrwt>
<pdfrwt beam="1">  1        1 0.20406803E+00 0.10006931E+04</pdfrwt>
<pdfrwt beam="2">  1       -1 0.29036224E-01 0.10006931E+04</pdfrwt>
<totfact> 0.10223852E+02</totfact>
</mgrwt>
</event>
<event>
 9    1  0.4307774E-036  0.9994516E+03  0.7818608E-02  0.8681560E-01
         -1   -1    0    0    0  501 -0.00000000000E+00  0.00000000000E+00  0.38389833484E+03  0.38389833484E+03  0.00000000000E+00 0. -1.
          1   -1    0    0  501    0  0.00000000000E+00 -0.00000000000E+00 -0.65050008672E+03  0.65050008672E+03  0.00000000000E+00 0. -1.
         36    2    1    2    0    0 -0.42632564146E-13  0.14210854715E-13 -0.26660175187E+03  0.10343984216E+04  0.99945164986E+03 0.  0.
         25    2    3    3    0    0  0.10028023844E+03 -0.95676677308E+02 -0.21805743260E+02  0.18767932805E+03  0.12465106071E+03 0.  0.
         35    2    3    3    0    0 -0.10028023844E+03  0.95676677308E+02 -0.24479600861E+03  0.84671909351E+03  0.79862255457E+03 0.  0.
         22    1    5    5    0    0  0.21753857942E+03  0.22748701929E+03 -0.36526182408E+03  0.48217173041E+03  0.00000000000E+00 0. -1.
         22    1    5    5    0    0 -0.31781881787E+03 -0.13181034198E+03  0.12046581546E+03  0.36454736309E+03  0.00000000000E+00 0. -1.
          5    1    4    4  502    0  0.83280696250E+02 -0.70775042969E+02 -0.70551119095E+02  0.13017039403E+03  0.47000000000E+01 0.  1.
         -5    1    4    4    0  502  0.16999542192E+02 -0.24901634339E+02  0.48745375834E+02  0.57508934025E+02  0.47000000000E+01 0.  1.
<mgrwt>
<rscale>  0 0.99945165E+03</rscale>
<asrwt>0</asrwt>
<pdfrwt beam="1">  1        1 0.10007694E+00 0.99945165E+03</pdfrwt>
<pdfrwt beam="2">  1       -1 0.59061282E-01 0.99945165E+03</pdfrwt>
<totfact> 0.10221884E+02</totfact>
</mgrwt>
</event>
<event>
 9    1  0.4307774E-036  0.9998595E+03  0.7818608E-02  0.8681172E-01
          2   -1    0    0  501    0  0.00000000000E+00  0.00000000000E+00  0.30453744143E+03  0.30453744143E+03  0.00000000000E+00 0.  1.
         -2   -1    0    0    0  501 -0.00000000000E+00 -0.00000000000E+00 -0.82068640312E+03  0.82068640312E+03  0.00000000000E+00 0.  1.
         36    2    1    2    0    0  0.00000000000E+00 -0.14210854715E-13 -0.51614896169E+03  0.11252238445E+04  0.99985946496E+03 0.  0.
         25    2    3    3    0    0  0.78742048481E+02  0.18248243413E+02  0.34458008349E+02  0.15195509519E+03  0.12397454588E+03 0.  0.
         35    2    3    3    0    0 -0.78742048481E+02 -0.18248243413E+02 -0.55060697004E+03  0.97326874936E+03  0.79846772911E+03 0.  0.
         22    1    5    5    0    0 -0.96018540676E+02 -0.32806380076E+03 -0.56751736794E+03  0.66251141909E+03  0.00000000000E+00 0. -1.
         22    1    5    5    0    0  0.17276492195E+02  0.30981555735E+03  0.16910397894E+02  0.31075733026E+03  0.00000000000E+00 0. -1.
          5    1    4    4  502    0  0.30104686097E+02 -0.50985193610E+02 -0.26295568565E+01  0.59454071869E+02  0.47000000000E+01 0. -1.
         -5    1    4    4    0  502  0.48637362384E+02  0.69233437024E+02  0.37087565205E+02  0.92501023317E+02  0.47000000000E+01 0. -1.
<mgrwt>
<rscale>  0 0.99985946E+03</rscale>
<asrwt>0</asrwt>
<pdfrwt beam="1">  1        2 0.46851915E-01 0.99985946E+03</pdfrwt>
<pdfrwt beam="2">  1       -2 0.12625945E+00 0.99985946E+03</pdfrwt>
<totfact> 0.58503692E+01</totfact>
</mgrwt>
</event>
<event>
 9    1  0.4307774E-036  0.1003404E+04  0.7818608E-02  0.8677803E-01
          1   -1    0    0  501    0  0.00000000000E+00  0.00000000000E+00  0.86052049203E+03  0.86052049203E+03  0.00000000000E+00 0.  1.
         -1   -1    0    0    0  501 -0.00000000000E+00 -0.00000000000E+00 -0.29250325432E+03  0.29250325432E+03  0.00000000000E+00 0.  1.
         36    2    1    2    0    0 -0.28421709430E-13 -0.14210854715E-13  0.56801723771E+03  0.11530237464E+04  0.10034042940E+04 0.  0.
         25    2    3    3    0    0 -0.13450169401E+03 -0.40368142399E+02  0.14719149853E+03  0.23825144721E+03  0.12400855715E+03 0.  0.
         35    2    3    3    0    0  0.13450169401E+03  0.40368142399E+02  0.42082573918E+03  0.91477229914E+03  0.79999610244E+03 0.  0.
         22    1    5    5    0    0  0.31183329279E+03 -0.98806691759E+02  0.56094059700E+03  0.64935130568E+03  0.00000000000E+00 0.  1.
         22    1    5    5    0    0 -0.17733159878E+03  0.13917483416E+03 -0.14011485782E+03  0.26542099346E+03  0.00000000000E+00 0.  1.
          5    1    4    4  502    0 -0.88093386011E+01  0.37900360773E+02  0.29886759580E+02  0.49288438720E+02  0.47000000000E+01 0. -1.
         -5    1    4    4    0  502 -0.12569235541E+03 -0.78268503172E+02  0.11730473895E+03  0.18896300849E+03  0.47000000000E+01 0. -1.
<mgrwt>
<rscale>  0 0.10034043E+04</rscale>
<asrwt>0</asrwt>
<pdfrwt beam="1">  1        1 0.13238777E+00 0.10034043E+04</pdfrwt>
<pdfrwt beam="2">  1       -1 0.45000501E-01 0.10034043E+04</pdfrwt>
<totfact> 0.10883927E+02</totfact>
</mgrwt>
</event>
<event>
 9    1  0.4307774E-036  0.9996960E+03  0.7818608E-02  0.8681328E-01
          2   -1    0    0  501    0  0.00000000000E+00  0.00000000000E+00  0.12256036313E+04  0.12256036313E+04  0.00000000000E+00 0. -1.
         -2   -1    0    0    0  501 -0.00000000000E+00 -0.00000000000E+00 -0.20385710840E+03  0.20385710840E+03  0.00000000000E+00 0. -1.
         36    2    1    2    0    0  0.00000000000E+00  0.00000000000E+00  0.10217465229E+04  0.14294607397E+04  0.99969597845E+03 0.  0.
         25    2    3    3    0    0 -0.77353705335E+02 -0.73433446787E+02  0.32175837642E+03  0.36131506020E+03  0.12507618917E+03 0.  0.
         35    2    3    3    0    0  0.77353705335E+02  0.73433446787E+02  0.69998814651E+03  0.10681456795E+04  0.79973478142E+03 0.  0.
         22    1    5    5    0    0  0.37751987753E+03 -0.15454458599E+03  0.23940781348E+03  0.47299195357E+03  0.00000000000E+00 0. -1.
         22    1    5    5    0    0 -0.30016617219E+03  0.22797803277E+03  0.46058033303E+03  0.59515372597E+03  0.00000000000E+00 0. -1.
          5    1    4    4  502    0 -0.39848988084E+02 -0.75576722298E+02  0.31011904292E+03  0.32170746585E+03  0.47000000000E+01 0.  1.
         -5    1    4    4    0  502 -0.37504717250E+02  0.21432755115E+01  0.11639333503E+02  0.39607594352E+02  0.47000000000E+01 0.  1.
<mgrwt>
<rscale>  0 0.99969598E+03</rscale>
<asrwt>0</asrwt>
<pdfrwt beam="1">  1        2 0.18855440E+00 0.99969598E+03</pdfrwt>
<pdfrwt beam="2">  1       -2 0.31362633E-01 0.99969598E+03</pdfrwt>
<totfact> 0.20764577E+02</totfact>
</mgrwt>
</event>
<event>
 9    1  0.4307774E-036  0.1000228E+04  0.7818608E-02  0.8680821E-01
         -1   -1    0    0    0  501 -0.00000000000E+00  0.00000000000E+00  0.14657463606E+03  0.14657463606E+03  0.00000000000E+00 0. -1.
          1   -1    0    0  501    0  0.00000000000E+00 -0.00000000000E+00 -0.17063919340E+04  0.17063919340E+04  0.00000000000E+00 0. -1.
         36    2    1    2    0    0  0.71054273576E-14  0.14210854715E-13 -0.15598172980E+04  0.18529665701E+04  0.10002275275E+04 0.  0.
         25    2    3    3    0    0  0.17543839602E+01  0.40638549710E+02 -0.53940634891E+03  0.55535548636E+03  0.12572166641E+03 0.  0.
         35    2    3    3    0    0 -0.17543839602E+01 -0.40638549710E+02 -0.10204109491E+04  0.12976110837E+04  0.80056320805E+03 0.  0.
         22    1    5    5    0    0  0.31272611040E+03  0.17841884503E+03 -0.25370283886E+03  0.44044980966E+03  0.00000000000E+00 0.  1.
         22    1    5    5    0    0 -0.31448049436E+03 -0.21905739474E+03 -0.76670811020E+03  0.85716127407E+03  0.00000000000E+00 0.  1.
          5    1    4    4  502    0 -0.55219969857E+02  0.49456637757E+02 -0.30749629512E+03  0.31634042676E+03  0.47000000000E+01 0.  1.
         -5    1    4    4    0  502  0.56974353817E+02 -0.88180880467E+01 -0.23191005379E+03  0.23901505960E+03  0.47000000000E+01 0.  1.
<mgrwt>
<rscale>  0 0.10002275E+04</rscale>
<asrwt>0</asrwt>
<pdfrwt beam="1">  1        1 0.26252182E+00 0.10002275E+04</pdfrwt>
<pdfrwt beam="2">  1       -1 0.22549945E-01 0.10002275E+04</pdfrwt>
<totfact> 0.83886886E+01</totfact>
</mgrwt>
</event>
<event>
 9    1  0.4307774E-036  0.9987848E+03  0.7818608E-02  0.8682196E-01
         -2   -1    0    0    0  501 -0.00000000000E+00  0.00000000000E+00  0.48619516842E+03  0.48619516842E+03  0.00000000000E+00 0.  1.
          2   -1    0    0  501    0  0.00000000000E+00 -0.00000000000E+00 -0.51294787850E+03  0.51294787850E+03  0.00000000000E+00 0.  1.
         36    2    1    2    0    0  0.14210854715E-13 -0.71054273576E-14 -0.26752710078E+02  0.99914304692E+03  0.99878482203E+03 0.  0.
         25    2    3    3    0    0 -0.12188683495E+03 -0.36527362746E+00 -0.72239798091E+02  0.18879726920E+03  0.12477694686E+03 0.  0.
         35    2    3    3    0    0  0.12188683495E+03  0.36527362746E+00  0.45487088013E+02  0.81034577772E+03  0.79983415177E+03 0.  0.
         22    1    5    5    0    0 -0.17654100171E+03  0.19984021356E+03  0.27598316290E+03  0.38375713993E+03  0.00000000000E+00 0.  1.
         22    1    5    5    0    0  0.29842783667E+03 -0.19947493993E+03 -0.23049607489E+03  0.42658863779E+03  0.00000000000E+00 0.  1.
          5    1    4    4  502    0 -0.55256317598E+02  0.17668847817E+02 -0.98814436497E+02  0.11468143563E+03  0.47000000000E+01 0.  1.
         -5    1    4    4    0  502 -0.66630517356E+02 -0.18034121444E+02  0.26574638406E+02  0.74115833570E+02  0.47000000000E+01 0.  1.
<mgrwt>
<rscale>  0 0.99878482E+03</rscale>
<asrwt>0</asrwt>
<pdfrwt beam="1">  1        2 0.78915059E-01 0.99878482E+03</pdfrwt>
<pdfrwt beam="2">  1       -2 0.74799256E-01 0.99878482E+03</pdfrwt>
<totfact> 0.11599247E+02</totfact>
</mgrwt>
</event>
<event>
 9    1  0.4307774E-036  0.9998639E+03  0.7818608E-02  0.8681168E-01
         -2   -1    0    0    0  501 -0.00000000000E+00  0.00000000000E+00  0.10730501459E+03  0.10730501459E+03  0.00000000000E+00 0. -1.
          2   -1    0    0  501    0  0.00000000000E+00 -0.00000000000E+00 -0.23291731841E+04  0.23291731841E+04  0.00000000000E+00 0. -1.
         36    2    1    2    0    0  0.14210854715E-13  0.00000000000E+00 -0.22218681695E+04  0.24364781987E+04  0.99986391574E+03 0.  0.
         25    2    3    3    0    0 -0.12487569165E+03  0.66474626299E+02 -0.47147190614E+03  0.50680713901E+03  0.12064370502E+03 0.  0.
         35    2    3    3    0    0  0.12487569165E+03 -0.66474626299E+02 -0.17503962633E+04  0.19296710597E+04  0.79983154818E+03 0.  0.
         22    1    5    5    0    0 -0.10792999346E+03  0.14308235323E+03 -0.30888474287E+02  0.18186682254E+03  0.00000000000E+00 0. -1.
         22    1    5    5    0    0  0.23280568511E+03 -0.20955697953E+03 -0.17195077891E+04  0.17478042371E+04  0.00000000000E+00 0. -1.
          5    1    4    4  502    0 -0.30337644383E+01  0.60319549516E+02 -0.20368330391E+03  0.21250089428E+03  0.47000000000E+01 0.  1.
         -5    1    4    4    0  502 -0.12184192721E+03  0.61550767827E+01 -0.26778860224E+03  0.29430624473E+03  0.47000000000E+01 0.  1.
<mgrwt>
<rscale>  0 0.99986392E+03</rscale>
<asrwt>0</asrwt>
<pdfrwt beam="1">  1        2 0.35833431E+00 0.99986392E+03</pdfrwt>
<pdfrwt beam="2">  1       -2 0.16508465E-01 0.99986392E+03</pdfrwt>
<totfact> 0.15003498E+02</totfact>
</mgrwt>
</event>
<event>
 9    1  0.4307774E-036  0.9935767E+03  0.7818608E-02  0.8687179E-01
          2   -1    0    0  501    0  0.00000000000E+00  0.00000000000E+00  0.11944892010E+04  0.11944892010E+04  0.00000000000E+00 0. -1.
         -2   -1    0    0    0  501 -0.00000000000E+00 -0.00000000000E+00 -0.20661439101E+03  0.20661439101E+03  0.00000000000E+00 0. -1.
         36    2    1    2    0    0 -0.42632564146E-13  0.00000000000E+00  0.98787481000E+03  0.14011035920E+04  0.99357668821E+03 0.  0.
         25    2    3    3    0    0 -0.11154498239E+02  0.10216536553E+03  0.66590078823E+02  0.17591439741E+03  0.12629113933E+03 0.  0.
         35    2    3    3    0    0  0.11154498239E+02 -0.10216536553E+03  0.92128473118E+03  0.12251891946E+04  0.80109975780E+03 0.  0.
         22    1    5    5    0    0  0.38007266936E+03  0.63047372668E+02  0.57926969911E+03  0.69568929092E+03  0.00000000000E+00 0.  1.
         22    1    5    5    0    0 -0.36891817112E+03 -0.16521273820E+03  0.34201503208E+03  0.52949990370E+03  0.00000000000E+00 0.  1.
          5    1    4    4  502    0  0.12731486583E+02 -0.21806453775E+02 -0.10682397248E+02  0.27817544604E+02  0.47000000000E+01 0. -1.
         -5    1    4    4    0  502 -0.23885984822E+02  0.12397181931E+03  0.77272476070E+02  0.14809685281E+03  0.47000000000E+01 0. -1.
<mgrwt>
<rscale>  0 0.99357669E+03</rscale>
<asrwt>0</asrwt>
<pdfrwt beam="1">  1        2 0.18376757E+00 0.99357669E+03</pdfrwt>
<pdfrwt beam="2">  1       -2 0.31786830E-01 0.99357669E+03</pdfrwt>
<totfact> 0.21133606E+02</totfact>
</mgrwt>
</event>
<event>
 9    1  0.4307774E-036  0.1001107E+04  0.7818608E-02  0.8679984E-01
         -1   -1    0    0    0  501 -0.00000000000E+00  0.00000000000E+00  0.26311062564E+03  0.26311062564E+03  0.00000000000E+00 0. -1.
          1   -1    0    0  501    0  0.00000000000E+00 -0.00000000000E+00 -0.95227585557E+03  0.95227585557E+03  0.00000000000E+00 0. -1.
         36    2    1    2    0    0 -0.71054273576E-14  0.00000000000E+00 -0.68916522993E+03  0.12153864812E+04  0.10011071794E+04 0.  0.
         25    2    3    3    0    0  0.26344793670E+02 -0.14093903311E+03 -0.97570939561E+02  0.21005964686E+03  0.11852049521E+03 0.  0.
         35    2    3    3    0    0 -0.26344793670E+02  0.14093903311E+03 -0.59159429037E+03  0.10053268344E+04  0.80008773286E+03 0.  0.
         22    1    5    5    0    0 -0.32237354852E+03  0.32588348325E+03 -0.39257706554E+03  0.60352423467E+03  0.00000000000E+00 0. -1.
         22    1    5    5    0    0  0.29602875485E+03 -0.18494445014E+03 -0.19901722483E+03  0.40180259969E+03  0.00000000000E+00 0. -1.
          5    1    4    4  502    0  0.59526412592E+02 -0.97565328168E+02 -0.21647081066E+02  0.11641766694E+03  0.47000000000E+01 0.  1.
         -5    1    4    4    0  502 -0.33181618922E+02 -0.43373704945E+02 -0.75923858495E+02  0.93641979922E+02  0.47000000000E+01 0.  1.
<mgrwt>
<rscale>  0 0.10011072E+04</rscale>
<asrwt>0</asrwt>
<pdfrwt beam="1">  1        1 0.14650398E+00 0.10011072E+04</pdfrwt>
<pdfrwt beam="2">  1       -1 0.40478557E-01 0.10011072E+04</pdfrwt>
<totfact> 0.11052151E+02</totfact>
</mgrwt>
</event>
<event>
 9    1  0.4307774E-036  0.1004087E+04  0.7818608E-02  0.8677156E-01
          1   -1    0    0  501    0  0.00000000000E+00  0.00000000000E+00  0.42542585131E+03  0.42542585131E+03  0.00000000000E+00 0.  1.
         -1   -1    0    0    0  501 -0.00000000000E+00 -0.00000000000E+00 -0.59245911978E+03  0.59245911978E+03  0.00000000000E+00 0.  1.
         36    2    1    2    0    0 -0.71054273576E-14  0.00000000000E+00 -0.16703326847E+03  0.10178849711E+04  0.10040865011E+04 0.  0.
         25    2    3    3    0    0  0.27678258692E+02 -0.95106588923E+02  0.75539641888E+02  0.17614354683E+03  0.12453498437E+03 0.  0.
         35    2    3    3    0    0 -0.27678258692E+02  0.95106588923E+02 -0.24257291036E+03  0.84174142426E+03  0.79992228324E+03 0.  0.
         22    1    5    5    0    0  0.66193903184E+01 -0.16229591059E+03 -0.46954853935E+03  0.49684968525E+03  0.00000000000E+00 0. -1.
         22    1    5    5    0    0 -0.34297649011E+02  0.25740249951E+03  0.22697562900E+03  0.34489173901E+03  0.00000000000E+00 0. -1.
          5    1    4    4  502    0 -0.17030796574E+02 -0.99828314439E+02  0.17989083300E+02  0.10296328236E+03  0.47000000000E+01 0. -1.
         -5    1    4    4    0  502  0.44709055266E+02  0.47217255164E+01  0.57550558588E+02  0.73180264474E+02  0.47000000000E+01 0. -1.
<mgrwt>
<rscale>  0 0.10040865E+04</rscale>
<asrwt>0</asrwt>
<pdfrwt beam="1">  1        1 0.65450131E-01 0.10040865E+04</pdfrwt>
<pdfrwt beam="2">  1       -1 0.91147556E-01 0.10040865E+04</pdfrwt>
<totfact> 0.77249278E+01</totfact>
</mgrwt>
</event>
<event>
 9    1  0.4307774E-036  0.1000536E+04  0.7818608E-02  0.8680528E-01
          2   -1    0    0  501    0  0.00000000000E+00  0.00000000000E+00  0.14682120682E+04  0.14682120682E+04  0.00000000000E+00 0. -1.
         -2   -1    0    0    0  501 -0.00000000000E+00 -0.00000000000E+00 -0.17045767663E+03  0.17045767663E+03  0.00000000000E+00 0. -1.
         36    2    1    2    0    0  0.00000000000E+00  0.14210854715E-13  0.12977543916E+04  0.16386697448E+04  0.10005358923E+04 0.  0.
         25    2    3    3    0    0  0.26477427891E+02  0.66421908677E+02  0.43895633903E+02  0.15035229058E+03  0.12476401911E+03 0.  0.
         35    2    3    3    0    0 -0.26477427891E+02 -0.66421908677E+02  0.12538587577E+04  0.14883174542E+04  0.79863266668E+03 0.  0.
         22    1    5    5    0    0 -0.23462087078E+03  0.28947647793E+03  0.44470180965E+03  0.58017521818E+03  0.00000000000E+00 0.  1.
         22    1    5    5    0    0  0.20814344289E+03 -0.35589838660E+03  0.80915694801E+03  0.90814223606E+03  0.00000000000E+00 0.  1.
          5    1    4    4  502    0  0.64085520460E+02  0.61276741832E+02  0.61739503610E+02  0.10814642541E+03  0.47000000000E+01 0. -1.
         -5    1    4    4    0  502 -0.37608092569E+02  0.51451668454E+01 -0.17843869707E+02  0.42205865169E+02  0.47000000000E+01 0. -1.
<mgrwt>
<rscale>  0 0.10005359E+04</rscale>
<asrwt>0</asrwt>
<pdfrwt beam="1">  1        2 0.22587877E+00 0.10005359E+04</pdfrwt>
<pdfrwt beam="2">  1       -2 0.26224259E-01 0.10005359E+04</pdfrwt>
<totfact> 0.20806264E+02</totfact>
</mgrwt>
</event>
<event>
 9    1  0.4307774E-036  0.1000348E+04  0.7818608E-02  0.8680707E-01
         -2   -1    0    0    0  501 -0.00000000000E+00  0.00000000000E+00  0.13798167518E+03  0.13798167518E+03  0.00000000000E+00 0.  1.
          2   -1    0    0  501    0  0.00000000000E+00 -0.00000000000E+00 -0.18130942875E+04  0.18130942875E+04  0.00000000000E+00 0.  1.
         36    2    1    2    0    0 -0.28421709430E-13 -0.28421709430E-13 -0.16751126123E+04  0.19510759627E+04  0.10003475137E+04 0.  0.
         25    2    3    3    0    0 -0.11187536257E+03 -0.82789893784E+02 -0.30671355918E+03  0.35939704058E+03  0.12539043876E+03 0.  0.
         35    2    3    3    0    0  0.11187536257E+03  0.82789893784E+02 -0.13683990531E+04  0.15916789221E+04  0.80097163440E+03 0.  0.
         22    1    5    5    0    0  0.37114080841E+03  0.27299568755E+03 -0.58350528735E+03  0.74347196682E+03  0.00000000000E+00 0. -1.
         22    1    5    5    0    0 -0.25926544583E+03 -0.19020579376E+03 -0.78489376580E+03  0.84820695527E+03  0.00000000000E+00 0. -1.
          5    1    4    4  502    0  0.10138401605E+02  0.57605795849E+01  0.46648887692E+01  0.13409796847E+02  0.47000000000E+01 0. -1.
         -5    1    4    4    0  502 -0.12201376418E+03 -0.88550473369E+02 -0.31137844795E+03  0.34598724374E+03  0.47000000000E+01 0. -1.
<mgrwt>
<rscale>  0 0.10003475E+04</rscale>
<asrwt>0</asrwt>
<pdfrwt beam="1">  1        2 0.27893760E+00 0.10003475E+04</pdfrwt>
<pdfrwt beam="2">  1       -2 0.21227949E-01 0.10003475E+04</pdfrwt>
<totfact> 0.19291157E+02</totfact>
</mgrwt>
</event>
<event>
 9    1  0.4307774E-036  0.9995598E+03  0.7818608E-02  0.8681457E-01
         -2   -1    0    0    0  501 -0.00000000000E+00  0.00000000000E+00  0.13869644841E+03  0.13869644841E+03  0.00000000000E+00 0. -1.
          2   -1    0    0  501    0  0.00000000000E+00 -0.00000000000E+00 -0.18009107932E+04  0.18009107932E+04  0.00000000000E+00 0. -1.
         36    2    1    2    0    0 -0.28421709430E-13  0.28421709430E-13 -0.16622143448E+04  0.19396072416E+04  0.99955976496E+03 0.  0.
         25    2    3    3    0    0 -0.13987255330E+03  0.34823462409E+01 -0.28920263309E+03  0.34411248522E+03  0.12328333868E+03 0.  0.
         35    2    3    3    0    0  0.13987255330E+03 -0.34823462409E+01 -0.13730117117E+04  0.15954947564E+04  0.80054100416E+03 0.  0.
         22    1    5    5    0    0  0.22891870614E+03  0.33047778804E+03 -0.41839756646E+03  0.58023776680E+03  0.00000000000E+00 0. -1.
         22    1    5    5    0    0 -0.89046152844E+02 -0.33396013428E+03 -0.95461414527E+03  0.10152569896E+04  0.00000000000E+00 0. -1.
          5    1    4    4  502    0 -0.13378071243E+03  0.35005423915E+02 -0.27664781183E+03  0.30931983530E+03  0.47000000000E+01 0.  1.
         -5    1    4    4    0  502 -0.60918408671E+01 -0.31523077674E+02 -0.12554821259E+02  0.34792649914E+02  0.47000000000E+01 0.  1.
<mgrwt>
<rscale>  0 0.99955976E+03</rscale>
<asrwt>0</asrwt>
<pdfrwt beam="1">  1        2 0.27706318E+00 0.99955976E+03</pdfrwt>
<pdfrwt beam="2">  1       -2 0.21337917E-01 0.99955976E+03</pdfrwt>
<totfact> 0.19423485E+02</totfact>
</mgrwt>
</event>
<event>
 9    1  0.4307774E-036  0.1000036E+04  0.7818608E-02  0.8681004E-01
          2   -1    0    0  501    0  0.00000000000E+00  0.00000000000E+00  0.72920927360E+03  0.72920927360E+03  0.00000000000E+00 0. -1.
         -2   -1    0    0    0  501 -0.00000000000E+00 -0.00000000000E+00 -0.34286190198E+03  0.34286190198E+03  0.00000000000E+00 0. -1.
         36    2    1    2    0    0  0.00000000000E+00 -0.14210854715E-13  0.38634737161E+03  0.10720711756E+04  0.10000361563E+04 0.  0.
         25    2    3    3    0    0 -0.49489667485E+02 -0.24448852190E+02  0.21094588857E+03  0.25064180081E+03  0.12359680759E+03 0.  0.
         35    2    3    3    0    0  0.49489667485E+02  0.24448852190E+02  0.17540148304E+03  0.82142937477E+03  0.80058326483E+03 0.  0.
         22    1    5    5    0    0  0.22737790467E+03  0.27934151108E+03 -0.13262784116E+03  0.38382617888E+03  0.00000000000E+00 0.  1.
         22    1    5    5    0    0 -0.17788823718E+03 -0.25489265889E+03  0.30802932420E+03  0.43760319589E+03  0.00000000000E+00 0.  1.
          5    1    4    4  502    0  0.19899468473E+02  0.30764458133E+02  0.25069772222E+02  0.44643299710E+02  0.47000000000E+01 0. -1.
         -5    1    4    4    0  502 -0.69389135958E+02 -0.55213310323E+02  0.18587611635E+03  0.20599850110E+03  0.47000000000E+01 0. -1.
<mgrwt>
<rscale>  0 0.10000362E+04</rscale>
<asrwt>0</asrwt>
<pdfrwt beam="1">  1        2 0.11218604E+00 0.10000362E+04</pdfrwt>
<pdfrwt beam="2">  1       -2 0.52747985E-01 0.10000362E+04</pdfrwt>
<totfact> 0.15958603E+02</totfact>
</mgrwt>
</event>
<event>
 9    1  0.4307774E-036  0.1004325E+04  0.7818608E-02  0.8676930E-01
          2   -1    0    0  501    0  0.00000000000E+00  0.00000000000E+00  0.36634246966E+03  0.36634246966E+03  0.00000000000E+00 0. -1.
         -2   -1    0    0    0  501 -0.00000000000E+00 -0.00000000000E+00 -0.68833793308E+03  0.68833793308E+03  0.00000000000E+00 0. -1.
         36    2    1    2    0    0  0.14210854715E-13  0.00000000000E+00 -0.32199546342E+03  0.10546804027E+04  0.10043254818E+04 0.  0.
         25    2    3    3    0    0 -0.56485811801E+02 -0.13005661155E+03 -0.93758600635E+02  0.21162665281E+03  0.12605473353E+03 0.  0.
         35    2    3    3    0    0  0.56485811801E+02  0.13005661155E+03 -0.22823686278E+03  0.84305374992E+03  0.79908834967E+03 0.  0.
         22    1    5    5    0    0  0.23982355406E+03  0.75107989671E+02  0.23361051973E+03  0.34311867062E+03  0.00000000000E+00 0.  1.
         22    1    5    5    0    0 -0.18333774226E+03  0.54948621879E+02 -0.46184738251E+03  0.49993507931E+03  0.00000000000E+00 0.  1.
          5    1    4    4  502    0 -0.83645095404E+02 -0.13339385474E+03 -0.94793359032E+02  0.18384312167E+03  0.47000000000E+01 0.  1.
         -5    1    4    4    0  502  0.27159283603E+02  0.33372431915E+01  0.10347583970E+01  0.27783531145E+02  0.47000000000E+01 0.  1.
<mgrwt>
<rscale>  0 0.10043255E+04</rscale>
<asrwt>0</asrwt>
<pdfrwt beam="1">  1        2 0.56360381E-01 0.10043255E+04</pdfrwt>
<pdfrwt beam="2">  1       -2 0.10589814E+00 0.10043255E+04</pdfrwt>
<totfact> 0.74758939E+01</totfact>
</mgrwt>
</event>
<event>
 9    1  0.4307774E-036  0.9999209E+03  0.7818608E-02  0.8681113E-01
         -2   -1    0    0    0  501 -0.00000000000E+00  0.00000000000E+00  0.69851104260E+03  0.69851104260E+03  0.00000000000E+00 0.  1.
          2   -1    0    0  501    0  0.00000000000E+00 -0.00000000000E+00 -0.35784755989E+03  0.35784755989E+03  0.00000000000E+00 0.  1.
         36    2    1    2    0    0  0.14210854715E-13  0.00000000000E+00  0.34066348271E+03  0.10563586025E+04  0.99992094117E+03 0.  0.
         25    2    3    3    0    0  0.97441433986E+02  0.76576460490E+02 -0.49206342820E+01  0.17604985905E+03  0.12494219812E+03 0.  0.
         35    2    3    3    0    0 -0.97441433986E+02 -0.76576460490E+02  0.34558411699E+03  0.88030874344E+03  0.80009769060E+03 0.  0.
         22    1    5    5    0    0  0.19470631917E+03 -0.17984817716E+01 -0.18591441823E+03  0.26921730288E+03  0.00000000000E+00 0. -1.
         22    1    5    5    0    0 -0.29214775316E+03 -0.74777978718E+02  0.53149853522E+03  0.61109144056E+03  0.00000000000E+00 0. -1.
          5    1    4    4  502    0  0.14505957823E+02  0.85945856672E+02  0.18518319133E+02  0.89230775156E+02  0.47000000000E+01 0. -1.
         -5    1    4    4    0  502  0.82935476163E+02 -0.93693961822E+01 -0.23438953415E+02  0.86819083895E+02  0.47000000000E+01 0. -1.
<mgrwt>
<rscale>  0 0.99992094E+03</rscale>
<asrwt>0</asrwt>
<pdfrwt beam="1">  1        2 0.55053471E-01 0.99992094E+03</pdfrwt>
<pdfrwt beam="2">  1       -2 0.10746324E+00 0.99992094E+03</pdfrwt>
<totfact> 0.74013562E+01</totfact>
</mgrwt>
</event>
<event>
 9    1  0.4307774E-036  0.9997887E+03  0.7818608E-02  0.8681239E-01
         -2   -1    0    0    0  501 -0.00000000000E+00  0.00000000000E+00  0.13226835801E+03  0.13226835801E+03  0.00000000000E+00 0.  1.
          2   -1    0    0  501    0  0.00000000000E+00 -0.00000000000E+00 -0.18892982139E+04  0.18892982139E+04  0.00000000000E+00 0.  1.
         36    2    1    2    0    0 -0.71054273576E-14 -0.14210854715E-13 -0.17570298558E+04  0.20215665719E+04  0.99978872276E+03 0.  0.
         25    2    3    3    0    0 -0.15415204090E+02 -0.10530746427E+03 -0.12034070466E+03  0.19742046450E+03  0.11474172763E+03 0.  0.
         35    2    3    3    0    0  0.15415204090E+02  0.10530746427E+03 -0.16366891512E+04  0.18241461074E+04  0.79839235520E+03 0.  0.
         22    1    5    5    0    0  0.27941918478E+03 -0.11471893641E+01 -0.16357227370E+03  0.32377814255E+03  0.00000000000E+00 0. -1.
         22    1    5    5    0    0 -0.26400398070E+03  0.10645465363E+03 -0.14731168775E+04  0.15003679648E+04  0.00000000000E+00 0. -1.
          5    1    4    4  502    0 -0.60148863406E+02 -0.33957785596E+02 -0.35560451108E+02  0.77830923511E+02  0.47000000000E+01 0.  1.
         -5    1    4    4    0  502  0.44733659316E+02 -0.71349678674E+02 -0.84780253550E+02  0.11958954099E+03  0.47000000000E+01 0.  1.
<mgrwt>
<rscale>  0 0.99978872E+03</rscale>
<asrwt>0</asrwt>
<pdfrwt beam="1">  1        2 0.29066125E+00 0.99978872E+03</pdfrwt>
<pdfrwt beam="2">  1       -2 0.20348979E-01 0.99978872E+03</pdfrwt>
<totfact> 0.18802101E+02</totfact>
</mgrwt>
</event>
<event>
 9    1  0.4307774E-036  0.1000318E+04  0.7818608E-02  0.8680735E-01
          1   -1    0    0  501    0  0.00000000000E+00  0.00000000000E+00  0.72954239447E+03  0.72954239447E+03  0.00000000000E+00 0. -1.
         -1   -1    0    0    0  501 -0.00000000000E+00 -0.00000000000E+00 -0.34289840848E+03  0.34289840848E+03  0.00000000000E+00 0. -1.
         36    2    1    2    0    0  0.00000000000E+00  0.14210854715E-13  0.38664398599E+03  0.10724408029E+04  0.10003178015E+04 0.  0.
         25    2    3    3    0    0 -0.10446699729E+03 -0.83261214749E+02  0.15855426530E+02  0.18175128606E+03  0.12221436917E+03 0.  0.
         35    2    3    3    0    0  0.10446699729E+03  0.83261214749E+02  0.37078855946E+03  0.89068951688E+03  0.79874769249E+03 0.  0.
         22    1    5    5    0    0 -0.26425081251E+01 -0.35616117316E+03  0.13759878979E+03  0.38182612675E+03  0.00000000000E+00 0. -1.
         22    1    5    5    0    0  0.10710950542E+03  0.43942238791E+03  0.23318976967E+03  0.50886339014E+03  0.00000000000E+00 0. -1.
          5    1    4    4  502    0  0.11428381189E+02  0.21472764289E+02  0.26402537734E+01  0.24914823756E+02  0.47000000000E+01 0. -1.
         -5    1    4    4    0  502 -0.11589537848E+03 -0.10473397904E+03  0.13215172756E+02  0.15683646231E+03  0.47000000000E+01 0. -1.
<mgrwt>
<rscale>  0 0.10003178E+04</rscale>
<asrwt>0</asrwt>
<pdfrwt beam="1">  1        1 0.11223729E+00 0.10003178E+04</pdfrwt>
<pdfrwt beam="2">  1       -1 0.52753601E-01 0.10003178E+04</pdfrwt>
<totfact> 0.10619841E+02</totfact>
</mgrwt>
</event>
<event>
 9    1  0.4307774E-036  0.9997415E+03  0.7818608E-02  0.8681284E-01
         -1   -1    0    0    0  501 -0.00000000000E+00  0.00000000000E+00  0.16452588881E+03  0.16452588881E+03  0.00000000000E+00 0.  1.
          1   -1    0    0  501    0  0.00000000000E+00 -0.00000000000E+00 -0.15187321549E+04  0.15187321549E+04  0.00000000000E+00 0.  1.
         36    2    1    2    0    0  0.00000000000E+00 -0.71054273576E-14 -0.13542062661E+04  0.16832580437E+04  0.99974148189E+03 0.  0.
         25    2    3    3    0    0  0.12276563120E+03 -0.49255571266E+02 -0.17867015069E+03  0.25485548584E+03  0.12462256783E+03 0.  0.
         35    2    3    3    0    0 -0.12276563120E+03  0.49255571266E+02 -0.11755361154E+04  0.14284025579E+04  0.80059427753E+03 0.  0.
         22    1    5    5    0    0 -0.31360779332E+03  0.23908554924E+03 -0.10681069258E+04  0.11385798842E+04  0.00000000000E+00 0.  1.
         22    1    5    5    0    0  0.19084216212E+03 -0.18982997797E+03 -0.10742918966E+03  0.28982267367E+03  0.00000000000E+00 0.  1.
          5    1    4    4  502    0  0.69230647550E+02 -0.87832867586E+02 -0.86804838734E+02  0.14164979780E+03  0.47000000000E+01 0. -1.
         -5    1    4    4    0  502  0.53534983646E+02  0.38577296319E+02 -0.91865311956E+02  0.11320568805E+03  0.47000000000E+01 0. -1.
<mgrwt>
<rscale>  0 0.99974148E+03</rscale>
<asrwt>0</asrwt>
<pdfrwt beam="1">  1        1 0.23365111E+00 0.99974148E+03</pdfrwt>
<pdfrwt beam="2">  1       -1 0.25311674E-01 0.99974148E+03</pdfrwt>
<totfact> 0.93870774E+01</totfact>
</mgrwt>
</event>
<event>
 9    1  0.4307774E-036  0.1001503E+04  0.7818608E-02  0.8679608E-01
          2   -1    0    0  501    0  0.00000000000E+00  0.00000000000E+00  0.11287640654E+04  0.11287640654E+04  0.00000000000E+00 0. -1.
         -2   -1    0    0    0  501 -0.00000000000E+00 -0.00000000000E+00 -0.22214758092E+03  0.22214758092E+03  0.00000000000E+00 0. -1.
         36    2    1    2    0    0  0.21316282073E-13 -0.28421709430E-13  0.90661648444E+03  0.13509116463E+04  0.10015032832E+04 0.  0.
         25    2    3    3    0    0  0.62725411929E+02 -0.12923475468E+03  0.17277580468E+03  0.25581986725E+03  0.12229565274E+03 0.  0.
         35    2    3    3    0    0 -0.62725411929E+02  0.12923475468E+03  0.73384067976E+03  0.10950917790E+04  0.80004235020E+03 0.  0.
         22    1    5    5    0    0  0.22781195876E+03  0.32681914841E+03  0.17533907368E+03  0.43526180062E+03  0.00000000000E+00 0.  1.
         22    1    5    5    0    0 -0.29053737069E+03 -0.19758439373E+03  0.55850160607E+03  0.65982997840E+03  0.00000000000E+00 0.  1.
          5    1    4    4  502    0  0.48331956459E+02  0.84279921463E+01  0.56606369631E+02  0.75055846872E+02  0.47000000000E+01 0.  1.
         -5    1    4    4    0  502  0.14393455470E+02 -0.13766274683E+03  0.11616943505E+03  0.18076402038E+03  0.47000000000E+01 0.  1.
<mgrwt>
<rscale>  0 0.10015033E+04</rscale>
<asrwt>0</asrwt>
<pdfrwt beam="1">  1        2 0.17365601E+00 0.10015033E+04</pdfrwt>
<pdfrwt beam="2">  1       -2 0.34176552E-01 0.10015033E+04</pdfrwt>
<totfact> 0.20229497E+02</totfact>
</mgrwt>
</event>
<event>
 9    1  0.4307774E-036  0.9972351E+03  0.7818608E-02  0.8683675E-01
          2   -1    0    0  501    0  0.00000000000E+00  0.00000000000E+00  0.41446648796E+03  0.41446648796E+03  0.00000000000E+00 0.  1.
         -2   -1    0    0    0  501 -0.00000000000E+00 -0.00000000000E+00 -0.59985413679E+03  0.59985413679E+03  0.00000000000E+00 0.  1.
         36    2    1    2    0    0 -0.14210854715E-13  0.71054273576E-14 -0.18538764884E+03  0.10143206248E+04  0.99723505226E+03 0.  0.
         25    2    3    3    0    0  0.97378797648E+02  0.58564880990E+02  0.56079107261E+02  0.17820809849E+03  0.12530277164E+03 0.  0.
         35    2    3    3    0    0 -0.97378797648E+02 -0.58564880990E+02 -0.24146675610E+03  0.83611252626E+03  0.79237963550E+03 0.  0.
         22    1    5    5    0    0 -0.10135208709E+03  0.36222211332E+03 -0.15327004157E+03  0.40616352689E+03  0.00000000000E+00 0. -1.
         22    1    5    5    0    0  0.39732894439E+01 -0.42078699430E+03 -0.88196714532E+02  0.42994899937E+03  0.00000000000E+00 0. -1.
          5    1    4    4  502    0  0.58643076512E+02  0.97408275298E+02  0.42741857371E+02  0.12155796515E+03  0.47000000000E+01 0. -1.
         -5    1    4    4    0  502  0.38735721135E+02 -0.38843394308E+02  0.13337249890E+02  0.56650133344E+02  0.47000000000E+01 0. -1.
<mgrwt>
<rscale>  0 0.99723505E+03</rscale>
<asrwt>0</asrwt>
<pdfrwt beam="1">  1        2 0.63764075E-01 0.99723505E+03</pdfrwt>
<pdfrwt beam="2">  1       -2 0.92285252E-01 0.99723505E+03</pdfrwt>
<totfact> 0.90928933E+01</totfact>
</mgrwt>
</event>
<event>
 9    1  0.4307774E-036  0.1000390E+04  0.7818608E-02  0.8680666E-01
         -1   -1    0    0    0  501 -0.00000000000E+00  0.00000000000E+00  0.31144187496E+03  0.31144187496E+03  0.00000000000E+00 0.  1.
          1   -1    0    0  501    0  0.00000000000E+00 -0.00000000000E+00 -0.80334472873E+03  0.80334472873E+03  0.00000000000E+00 0.  1.
         36    2    1    2    0    0  0.00000000000E+00 -0.17763568394E-13 -0.49190285377E+03  0.11147866037E+04  0.10003903009E+04 0.  0.
         25    2    3    3    0    0 -0.74185322937E+02 -0.22229057093E+02  0.38666026788E+02  0.15128189214E+03  0.12407077070E+03 0.  0.
         35    2    3    3    0    0  0.74185322937E+02  0.22229057093E+02 -0.53056888056E+03  0.96350471155E+03  0.80052507709E+03 0.  0.
         22    1    5    5    0    0  0.25182904996E+03  0.26391865362E+03 -0.12663060122E+02  0.36500860157E+03  0.00000000000E+00 0. -1.
         22    1    5    5    0    0 -0.17764372702E+03 -0.24168959653E+03 -0.51790582043E+03  0.59849610998E+03  0.00000000000E+00 0. -1.
          5    1    4    4  502    0 -0.39125646069E+02 -0.28813649817E+02 -0.41075111773E+02  0.63798882461E+02  0.47000000000E+01 0.  1.
         -5    1    4    4    0  502 -0.35059676868E+02  0.65845927242E+01  0.79741138561E+02  0.87483009679E+02  0.47000000000E+01 0.  1.
<mgrwt>
<rscale>  0 0.10003903E+04</rscale>
<asrwt>0</asrwt>
<pdfrwt beam="1">  1        1 0.12359150E+00 0.10003903E+04</pdfrwt>
<pdfrwt beam="2">  1       -1 0.47914135E-01 0.10003903E+04</pdfrwt>
<totfact> 0.10881817E+02</totfact>
</mgrwt>
</event>
<event>
 9    1  0.4307774E-036  0.9998426E+03  0.7818608E-02  0.8681188E-01
         -1   -1    0    0    0  501 -0.00000000000E+00  0.00000000000E+00  0.13040176402E+03  0.13040176402E+03  0.00000000000E+00 0.  1.
          1   -1    0    0  501    0  0.00000000000E+00 -0.00000000000E+00 -0.19165486313E+04  0.19165486313E+04  0.00000000000E+00 0.  1.
         36    2    1    2    0    0  0.00000000000E+00  0.00000000000E+00 -0.17861468673E+04  0.20469503953E+04  0.99984263233E+03 0.  0.
         25    2    3    3    0    0  0.48738962171E+02  0.13006277284E+03 -0.32746096509E+03  0.37718127509E+03  0.12547198615E+03 0.  0.
         35    2    3    3    0    0 -0.48738962171E+02 -0.13006277284E+03 -0.14586859022E+04  0.16697691203E+04  0.80067005834E+03 0.  0.
         22    1    5    5    0    0 -0.70121203312E+02  0.21030338935E+03 -0.59374962788E+02  0.22949920465E+03  0.00000000000E+00 0.  1.
         22    1    5    5    0    0  0.21382241142E+02 -0.34036616219E+03 -0.13993109394E+04  0.14402699156E+04  0.00000000000E+00 0.  1.
          5    1    4    4  502    0  0.42251777943E+02  0.12008411346E+03 -0.33761341643E+03  0.36084666550E+03  0.47000000000E+01 0.  1.
         -5    1    4    4    0  502  0.64871842276E+01  0.99786593756E+01  0.10152451345E+02  0.16334609590E+02  0.47000000000E+01 0.  1.
<mgrwt>
<rscale>  0 0.99984263E+03</rscale>
<asrwt>0</asrwt>
<pdfrwt beam="1">  1        1 0.29485358E+00 0.99984263E+03</pdfrwt>
<pdfrwt beam="2">  1       -1 0.20061813E-01 0.99984263E+03</pdfrwt>
<totfact> 0.72507924E+01</totfact>
</mgrwt>
</event>
<event>
 9    1  0.4307774E-036  0.1003661E+04  0.7818608E-02  0.8677560E-01
         -2   -1    0    0    0  501 -0.00000000000E+00  0.00000000000E+00  0.34565750121E+03  0.34565750121E+03  0.00000000000E+00 0.  1.
          2   -1    0    0  501    0  0.00000000000E+00 -0.00000000000E+00 -0.72856426304E+03  0.72856426304E+03  0.00000000000E+00 0.  1.
         36    2    1    2    0    0  0.42632564146E-13  0.00000000000E+00 -0.38290676183E+03  0.10742217643E+04  0.10036607049E+04 0.  0.
         25    2    3    3    0    0 -0.12385011018E+03  0.48178791337E+02 -0.13168576756E+03  0.22490398565E+03  0.12482233638E+03 0.  0.
         35    2    3    3    0    0  0.12385011018E+03 -0.48178791337E+02 -0.25122099427E+03  0.84931777860E+03  0.80035533069E+03 0.  0.
         22    1    5    5    0    0  0.38500634475E+03 -0.18282333628E+03 -0.33687271924E+03  0.54326557663E+03  0.00000000000E+00 0.  1.
         22    1    5    5    0    0 -0.26115623457E+03  0.13464454494E+03  0.85651724970E+02  0.30605220197E+03  0.00000000000E+00 0.  1.
          5    1    4    4  502    0  0.23431167491E+02  0.14995971385E+02 -0.37390719775E+02  0.46840737538E+02  0.47000000000E+01 0.  1.
         -5    1    4    4    0  502 -0.14728127767E+03  0.33182819952E+02 -0.94295047781E+02  0.17806324811E+03  0.47000000000E+01 0.  1.
<mgrwt>
<rscale>  0 0.10036607E+04</rscale>
<asrwt>0</asrwt>
<pdfrwt beam="1">  1        2 0.11208681E+00 0.10036607E+04</pdfrwt>
<pdfrwt beam="2">  1       -2 0.53178077E-01 0.10036607E+04</pdfrwt>
<totfact> 0.15713804E+02</totfact>
</mgrwt>
</event>
<event>
 9    1  0.4307774E-036  0.9997466E+03  0.7818608E-02  0.8681279E-01
          2   -1    0    0  501    0  0.00000000000E+00  0.00000000000E+00  0.22365246359E+04  0.22365246359E+04  0.00000000000E+00 0.  1.
         -2   -1    0    0    0  501 -0.00000000000E+00 -0.00000000000E+00 -0.11172392962E+03  0.11172392962E+03  0.00000000000E+00 0.  1.
         36    2    1    2    0    0 -0.17763568394E-14  0.28421709430E-13  0.21248007063E+04  0.23482485656E+04  0.99974660994E+03 0.  0.
         25    2    3    3    0    0 -0.89114069440E+01  0.82345729293E+02  0.13686595994E+03  0.20362974333E+03  0.12598630510E+03 0.  0.
         35    2    3    3    0    0  0.89114069440E+01 -0.82345729293E+02  0.19879347464E+04  0.21446188222E+04  0.80040308875E+03 0.  0.
         22    1    5    5    0    0  0.22021826835E+03  0.19930531453E+03  0.30684654099E+03  0.42705209733E+03  0.00000000000E+00 0.  1.
         22    1    5    5    0    0 -0.21130686141E+03 -0.28165104383E+03  0.16810882054E+04  0.17175667249E+04  0.00000000000E+00 0.  1.
          5    1    4    4  502    0  0.10059638016E+02  0.44296182917E+02  0.15164584306E+03  0.15837266133E+03  0.47000000000E+01 0.  1.
         -5    1    4    4    0  502 -0.18971044960E+02  0.38049546376E+02 -0.14779883124E+02  0.45257082003E+02  0.47000000000E+01 0.  1.
<mgrwt>
<rscale>  0 0.99974661E+03</rscale>
<asrwt>0</asrwt>
<pdfrwt beam="1">  1        2 0.34408068E+00 0.99974661E+03</pdfrwt>
<pdfrwt beam="2">  1       -2 0.17188299E-01 0.99974661E+03</pdfrwt>
<totfact> 0.15883041E+02</totfact>
</mgrwt>
</event>
<event>
 9    1  0.4307774E-036  0.1000114E+04  0.7818608E-02  0.8680929E-01
          1   -1    0    0  501    0  0.00000000000E+00  0.00000000000E+00  0.78597009545E+03  0.78597009545E+03  0.00000000000E+00 0.  1.
         -1   -1    0    0    0  501 -0.00000000000E+00 -0.00000000000E+00 -0.31815109369E+03  0.31815109369E+03  0.00000000000E+00 0.  1.
         36    2    1    2    0    0  0.00000000000E+00  0.00000000000E+00  0.46781900176E+03  0.11041211891E+04  0.10001144844E+04 0.  0.
         25    2    3    3    0    0  0.78319038406E+02 -0.95513007159E+02  0.15024690194E+02  0.17657940204E+03  0.12529141070E+03 0.  0.
         35    2    3    3    0    0 -0.78319038406E+02  0.95513007159E+02  0.45279431157E+03  0.92754178710E+03  0.80003404422E+03 0.  0.
         22    1    5    5    0    0  0.11552555047E+03  0.29255736418E+03  0.55078953846E+03  0.63427523980E+03  0.00000000000E+00 0.  1.
         22    1    5    5    0    0 -0.19384458888E+03 -0.19704435702E+03 -0.97995226895E+02  0.29326654730E+03  0.00000000000E+00 0.  1.
          5    1    4    4  502    0 -0.18024899385E+02 -0.59637245411E+02 -0.23412942863E+02  0.66721465298E+02  0.47000000000E+01 0. -1.
         -5    1    4    4    0  502  0.96343937790E+02 -0.35875761748E+02  0.38437633057E+02  0.10985793674E+03  0.47000000000E+01 0. -1.
<mgrwt>
<rscale>  0 0.10001145E+04</rscale>
<asrwt>0</asrwt>
<pdfrwt beam="1">  1        1 0.12091848E+00 0.10001145E+04</pdfrwt>
<pdfrwt beam="2">  1       -1 0.48946322E-01 0.10001145E+04</pdfrwt>
<totfact> 0.10841906E+02</totfact>
</mgrwt>
</event>
<event>
 9    1  0.4307774E-036  0.9996415E+03  0.7818608E-02  0.8681379E-01
         -2   -1    0    0    0  501 -0.00000000000E+00  0.00000000000E+00  0.80182025208E+03  0.80182025208E+03  0.00000000000E+00 0. -1.
          2   -1    0    0  501    0  0.00000000000E+00 -0.00000000000E+00 -0.31156704306E+03  0.31156704306E+03  0.00000000000E+00 0. -1.
         36    2    1    2    0    0  0.00000000000E+00  0.17763568394E-14  0.49025320902E+03  0.11133872951E+04  0.99964146573E+03 0.  0.
         25    2    3    3    0    0  0.82365066031E+02  0.34654576445E+01  0.21595700792E+03  0.26284574494E+03  0.12511771603E+03 0.  0.
         35    2    3    3    0    0 -0.82365066031E+02 -0.34654576445E+01  0.27429620110E+03  0.85054155019E+03  0.80086609940E+03 0.  0.
         22    1    5    5    0    0 -0.31551726250E+03 -0.11990589466E+02 -0.16267447405E+03  0.35518713613E+03  0.00000000000E+00 0. -1.
         22    1    5    5    0    0  0.23315219646E+03  0.85251318211E+01  0.43697067515E+03  0.49535441406E+03  0.00000000000E+00 0. -1.
          5    1    4    4  502    0  0.37439023349E+02  0.18517777969E+02  0.21080522518E+03  0.21495469647E+03  0.47000000000E+01 0.  1.
         -5    1    4    4    0  502  0.44926042682E+02 -0.15052320325E+02  0.51517827371E+01  0.47891048471E+02  0.47000000000E+01 0.  1.
<mgrwt>
<rscale>  0 0.99964147E+03</rscale>
<asrwt>0</asrwt>
<pdfrwt beam="1">  1        2 0.47933392E-01 0.99964147E+03</pdfrwt>
<pdfrwt beam="2">  1       -2 0.12335696E+00 0.99964147E+03</pdfrwt>
<totfact> 0.60631654E+01</totfact>
</mgrwt>
</event>
<event>
 9    1  0.4307774E-036  0.9996901E+03  0.7818608E-02  0.8681333E-01
          1   -1    0    0  501    0  0.00000000000E+00  0.00000000000E+00  0.89172219950E+03  0.89172219950E+03  0.00000000000E+00 0. -1.
         -1   -1    0    0    0  501 -0.00000000000E+00 -0.00000000000E+00 -0.28018261509E+03  0.28018261509E+03  0.00000000000E+00 0. -1.
         36    2    1    2    0    0 -0.14210854715E-13  0.00000000000E+00  0.61153958440E+03  0.11719048146E+04  0.99969006756E+03 0.  0.
         25    2    3    3    0    0  0.53733071940E+02 -0.90318395085E+02  0.22050657972E+03  0.27488907083E+03  0.12608010967E+03 0.  0.
         35    2    3    3    0    0 -0.53733071940E+02  0.90318395085E+02  0.39103300469E+03  0.89701574376E+03  0.80042849667E+03 0.  0.
         22    1    5    5    0    0 -0.28128958315E+03  0.18131956791E+03  0.52129167399E+03  0.61947205318E+03  0.00000000000E+00 0. -1.
         22    1    5    5    0    0  0.22755651121E+03 -0.91001172823E+02 -0.13025866930E+03  0.27754369058E+03  0.00000000000E+00 0. -1.
          5    1    4    4  502    0 -0.31799687503E+02 -0.20654655934E+01  0.89861903509E+02  0.95460661928E+02  0.47000000000E+01 0.  1.
         -5    1    4    4    0  502  0.85532759443E+02 -0.88252929491E+02  0.13064467621E+03  0.17942840891E+03  0.47000000000E+01 0.  1.
<mgrwt>
<rscale>  0 0.99969007E+03</rscale>
<asrwt>0</asrwt>
<pdfrwt beam="1">  1        1 0.13718803E+00 0.99969007E+03</pdfrwt>
<pdfrwt beam="2">  1       -1 0.43105018E-01 0.99969007E+03</pdfrwt>
<totfact> 0.11076985E+02</totfact>
</mgrwt>
</event>
<event>
 9    1  0.4307774E-036  0.1000166E+04  0.7818608E-02  0.8680880E-01
         -2   -1    0    0    0  501 -0.00000000000E+00  0.00000000000E+00  0.98188267840E+02  0.98188267840E+02  0.00000000000E+00 0. -1.
          2   -1    0    0  501    0  0.00000000000E+00 -0.00000000000E+00 -0.25469724981E+04  0.25469724981E+04  0.00000000000E+00 0. -1.
         36    2    1    2    0    0 -0.35527136788E-14 -0.28421709430E-13 -0.24487842302E+04  0.26451607659E+04  0.10001656219E+04 0.  0.
         25    2    3    3    0    0 -0.19609423661E+02  0.12561991852E+03 -0.29737860574E+03  0.34676716300E+03  0.12509411162E+03 0.  0.
         35    2    3    3    0    0  0.19609423661E+02 -0.12561991852E+03 -0.21514056245E+04  0.22983936029E+04  0.79868773582E+03 0.  0.
         22    1    5    5    0    0 -0.37943207946E+03 -0.23658469637E+02 -0.12666634042E+04  0.13224842554E+04  0.00000000000E+00 0.  1.
         22    1    5    5    0    0  0.39904150312E+03 -0.10196144888E+03 -0.88474222025E+03  0.97590934751E+03  0.00000000000E+00 0.  1.
          5    1    4    4  502    0 -0.12141509542E+02  0.58021755551E+02 -0.22528764436E+02  0.63589115407E+02  0.47000000000E+01 0. -1.
         -5    1    4    4    0  502 -0.74679141198E+01  0.67598162965E+02 -0.27484984130E+03  0.28317804760E+03  0.47000000000E+01 0. -1.
<mgrwt>
<rscale>  0 0.10001656E+04</rscale>
<asrwt>0</asrwt>
<pdfrwt beam="1">  1        2 0.39184187E+00 0.10001656E+04</pdfrwt>
<pdfrwt beam="2">  1       -2 0.15105889E-01 0.10001656E+04</pdfrwt>
<totfact> 0.12882151E+02</totfact>
</mgrwt>
</event>
<event>
 9    1  0.4307774E-036  0.1000180E+04  0.7818608E-02  0.8680867E-01
         -2   -1    0    0    0  501 -0.00000000000E+00  0.00000000000E+00  0.10061904510E+03  0.10061904510E+03  0.00000000000E+00 0.  1.
          2   -1    0    0  501    0  0.00000000000E+00 -0.00000000000E+00 -0.24855119971E+04  0.24855119971E+04  0.00000000000E+00 0.  1.
         36    2    1    2    0    0  0.00000000000E+00  0.21316282073E-13 -0.23848929520E+04  0.25861310422E+04  0.10001796713E+04 0.  0.
         25    2    3    3    0    0 -0.13941170263E+03  0.19658142806E+02 -0.42876343490E+03  0.46810615562E+03  0.12435121398E+03 0.  0.
         35    2    3    3    0    0  0.13941170263E+03 -0.19658142806E+02 -0.19561295171E+04  0.21180248865E+04  0.79985290338E+03 0.  0.
         22    1    5    5    0    0  0.33059301749E+03 -0.29447486707E+03 -0.14058283585E+04  0.14738929962E+04  0.00000000000E+00 0.  1.
         22    1    5    5    0    0 -0.19118131486E+03  0.27481672426E+03 -0.55030115858E+03  0.64413189039E+03  0.00000000000E+00 0.  1.
          5    1    4    4  502    0 -0.16200638352E+03  0.23210009830E+02 -0.38796681549E+03  0.42109988456E+03  0.47000000000E+01 0.  1.
         -5    1    4    4    0  502  0.22594680889E+02 -0.35518670237E+01 -0.40796619410E+02  0.47006271062E+02  0.47000000000E+01 0.  1.
<mgrwt>
<rscale>  0 0.10001797E+04</rscale>
<asrwt>0</asrwt>
<pdfrwt beam="1">  1        2 0.38238642E+00 0.10001797E+04</pdfrwt>
<pdfrwt beam="2">  1       -2 0.15479855E-01 0.10001797E+04</pdfrwt>
<totfact> 0.13478941E+02</totfact>
</mgrwt>
</event>
<event>
 9    1  0.4307774E-036  0.9999496E+03  0.7818608E-02  0.8681086E-01
         -2   -1    0    0    0  501 -0.00000000000E+00  0.00000000000E+00  0.38822644871E+03  0.38822644871E+03  0.00000000000E+00 0. -1.
          2   -1    0    0  501    0  0.00000000000E+00 -0.00000000000E+00 -0.64388911929E+03  0.64388911929E+03  0.00000000000E+00 0. -1.
         36    2    1    2    0    0  0.14210854715E-13  0.00000000000E+00 -0.25566267058E+03  0.10321155680E+04  0.99994957102E+03 0.  0.
         25    2    3    3    0    0 -0.25924606658E+02  0.13213164275E+03 -0.87435996979E+02  0.20380369564E+03  0.12553898415E+03 0.  0.
         35    2    3    3    0    0  0.25924606658E+02 -0.13213164275E+03 -0.16822667360E+03  0.82831187237E+03  0.79979340329E+03 0.  0.
         22    1    5    5    0    0  0.29369520799E+03 -0.22833093354E+03  0.15028750851E+03  0.40122091872E+03  0.00000000000E+00 0.  1.
         22    1    5    5    0    0 -0.26777060133E+03  0.96199290788E+02 -0.31851418211E+03  0.42709095365E+03  0.00000000000E+00 0.  1.
          5    1    4    4  502    0  0.44605745837E+02  0.22442918952E+02 -0.73342914194E+01  0.50687661254E+02  0.47000000000E+01 0.  1.
         -5    1    4    4    0  502 -0.70530352496E+02  0.10968872380E+03 -0.80101705559E+02  0.15311603438E+03  0.47000000000E+01 0.  1.
<mgrwt>
<rscale>  0 0.99994957E+03</rscale>
<asrwt>0</asrwt>
<pdfrwt beam="1">  1        2 0.99059865E-01 0.99994957E+03</pdfrwt>
<pdfrwt beam="2">  1       -2 0.59727146E-01 0.99994957E+03</pdfrwt>
<totfact> 0.14393624E+02</totfact>
</mgrwt>
</event>
<event>
 9    1  0.4307774E-036  0.9986955E+03  0.7818608E-02  0.8682281E-01
         -1   -1    0    0    0  501 -0.00000000000E+00  0.00000000000E+00  0.23296109433E+03  0.23296109433E+03  0.00000000000E+00 0.  1.
          1   -1    0    0  501    0  0.00000000000E+00 -0.00000000000E+00 -0.10703426330E+04  0.10703426330E+04  0.00000000000E+00 0.  1.
         36    2    1    2    0    0  0.28421709430E-13  0.14210854715E-13 -0.83738153871E+03  0.13033037274E+04  0.99869553139E+03 0.  0.
         25    2    3    3    0    0 -0.67490810353E+02 -0.68290259466E+02 -0.29581237492E+02  0.15993615488E+03  0.12444257714E+03 0.  0.
         35    2    3    3    0    0  0.67490810353E+02  0.68290259466E+02 -0.80780030122E+03  0.11433675725E+04  0.80344851122E+03 0.  0.
         22    1    5    5    0    0 -0.23915156875E+03 -0.54047881395E+02 -0.77351876359E+03  0.81144680907E+03  0.00000000000E+00 0. -1.
         22    1    5    5    0    0  0.30664237911E+03  0.12233814086E+03 -0.34281537627E+02  0.33192076343E+03  0.00000000000E+00 0. -1.
          5    1    4    4  502    0 -0.24677155184E+02  0.22673884352E+02 -0.46876744696E+02  0.57815103674E+02  0.47000000000E+01 0. -1.
         -5    1    4    4    0  502 -0.42813655169E+02 -0.90964143817E+02  0.17295507204E+02  0.10212105120E+03  0.47000000000E+01 0. -1.
<mgrwt>
<rscale>  0 0.99869553E+03</rscale>
<asrwt>0</asrwt>
<pdfrwt beam="1">  1        1 0.16466810E+00 0.99869553E+03</pdfrwt>
<pdfrwt beam="2">  1       -1 0.35840168E-01 0.99869553E+03</pdfrwt>
<totfact> 0.11052385E+02</totfact>
</mgrwt>
</event>
<event>
 9    1  0.4307774E-036  0.1002316E+04  0.7818608E-02  0.8678836E-01
         -1   -1    0    0    0  501 -0.00000000000E+00  0.00000000000E+00  0.11929777334E+03  0.11929777334E+03  0.00000000000E+00 0.  1.
          1   -1    0    0  501    0  0.00000000000E+00 -0.00000000000E+00 -0.21053140796E+04  0.21053140796E+04  0.00000000000E+00 0.  1.
         36    2    1    2    0    0  0.00000000000E+00  0.00000000000E+00 -0.19860163063E+04  0.22246118529E+04  0.10023158821E+04 0.  0.
         25    2    3    3    0    0  0.78885838322E+02  0.76911071088E+02 -0.57457028040E+03  0.59812666844E+03  0.12444362596E+03 0.  0.
         35    2    3    3    0    0 -0.78885838322E+02 -0.76911071088E+02 -0.14114460259E+04  0.16264851845E+04  0.80070961222E+03 0.  0.
         22    1    5    5    0    0  0.15183264870E+03  0.23308642007E+03 -0.10866355857E+04  0.11216770162E+04  0.00000000000E+00 0.  1.
         22    1    5    5    0    0 -0.23071848703E+03 -0.30999749116E+03 -0.32481044012E+03  0.50480816831E+03  0.00000000000E+00 0.  1.
          5    1    4    4  502    0  0.29133238265E+02  0.42910867197E+02 -0.49732220123E+03  0.50004154820E+03  0.47000000000E+01 0. -1.
         -5    1    4    4    0  502  0.49752600056E+02  0.34000203891E+02 -0.77248079167E+02  0.98085120238E+02  0.47000000000E+01 0. -1.
<mgrwt>
<rscale>  0 0.10023159E+04</rscale>
<asrwt>0</asrwt>
<pdfrwt beam="1">  1        1 0.32389441E+00 0.10023159E+04</pdfrwt>
<pdfrwt beam="2">  1       -1 0.18353507E-01 0.10023159E+04</pdfrwt>
<totfact> 0.61895409E+01</totfact>
</mgrwt>
</event>
<event>
 9    1  0.4307774E-036  0.9988628E+03  0.7818608E-02  0.8682122E-01
         -1   -1    0    0    0  501 -0.00000000000E+00  0.00000000000E+00  0.95849106742E+03  0.95849106742E+03  0.00000000000E+00 0. -1.
          1   -1    0    0  501    0  0.00000000000E+00 -0.00000000000E+00 -0.26023375630E+03  0.26023375630E+03  0.00000000000E+00 0. -1.
         36    2    1    2    0    0  0.71054273576E-14 -0.14210854715E-13  0.69825731112E+03  0.12187248237E+04  0.99886281511E+03 0.  0.
         25    2    3    3    0    0  0.45125328123E+02  0.11569682310E+03  0.20235998077E+03  0.26896499297E+03  0.12637466326E+03 0.  0.
         35    2    3    3    0    0 -0.45125328123E+02 -0.11569682310E+03  0.49589733035E+03  0.94975983075E+03  0.80044208019E+03 0.  0.
         22    1    5    5    0    0 -0.27944188672E+03  0.18384737911E+03  0.45860486163E+03  0.56763196349E+03  0.00000000000E+00 0. -1.
         22    1    5    5    0    0  0.23431655860E+03 -0.29954420221E+03  0.37292468723E+02  0.38212786726E+03  0.00000000000E+00 0. -1.
          5    1    4    4  502    0  0.66152822096E+02  0.16040573801E+02  0.11939402170E+03  0.13751552020E+03  0.47000000000E+01 0.  1.
         -5    1    4    4    0  502 -0.21027493973E+02  0.99656249298E+02  0.82965959071E+02  0.13144947277E+03  0.47000000000E+01 0.  1.
<mgrwt>
<rscale>  0 0.99886282E+03</rscale>
<asrwt>0</asrwt>
<pdfrwt beam="1">  1        1 0.40035963E-01 0.99886282E+03</pdfrwt>
<pdfrwt beam="2">  1       -1 0.14746016E+00 0.99886282E+03</pdfrwt>
<totfact> 0.45447787E+01</totfact>
</mgrwt>
</event>
<event>
 9    1  0.4307774E-036  0.1003071E+04  0.7818608E-02  0.8678119E-01
          2   -1    0    0  501    0  0.00000000000E+00  0.00000000000E+00  0.15392489836E+04  0.15392489836E+04  0.00000000000E+00 0.  1.
         -2   -1    0    0    0  501 -0.00000000000E+00 -0.00000000000E+00 -0.16341590416E+03  0.16341590416E+03  0.00000000000E+00 0.  1.
         36    2    1    2    0    0 -0.28421709430E-13 -0.14210854715E-13  0.13758330794E+04  0.17026648878E+04  0.10030708138E+04 0.  0.
         25    2    3    3    0    0 -0.53558281399E+01 -0.11515035148E+03  0.11545693055E+03  0.20538470608E+03  0.12475690899E+03 0.  0.
         35    2    3    3    0    0  0.53558281399E+01  0.11515035148E+03  0.12603761489E+04  0.14972801817E+04  0.80000726085E+03 0.  0.
         22    1    5    5    0    0  0.30008659088E+03 -0.84053021318E+02  0.10235059586E+04  0.10698978080E+04  0.00000000000E+00 0. -1.
         22    1    5    5    0    0 -0.29473076274E+03  0.19920337280E+03  0.23687019032E+03  0.42738237364E+03  0.00000000000E+00 0. -1.
          5    1    4    4  502    0 -0.59078782040E+02 -0.72605335566E+02  0.36116235788E+02  0.10044057809E+03  0.47000000000E+01 0.  1.
         -5    1    4    4    0  502  0.53722953900E+02 -0.42545015916E+02  0.79340694759E+02  0.10494412799E+03  0.47000000000E+01 0.  1.
<mgrwt>
<rscale>  0 0.10030708E+04</rscale>
<asrwt>0</asrwt>
<pdfrwt beam="1">  1        2 0.23680753E+00 0.10030708E+04</pdfrwt>
<pdfrwt beam="2">  1       -2 0.25140909E-01 0.10030708E+04</pdfrwt>
<totfact> 0.20445530E+02</totfact>
</mgrwt>
</event>
<event>
 9    1  0.4307774E-036  0.9995642E+03  0.7818608E-02  0.8681453E-01
          2   -1    0    0  501    0  0.00000000000E+00  0.00000000000E+00  0.42859233998E+03  0.42859233998E+03  0.00000000000E+00 0. -1.
         -2   -1    0    0    0  501 -0.00000000000E+00 -0.00000000000E+00 -0.58279659617E+03  0.58279659617E+03  0.00000000000E+00 0. -1.
         36    2    1    2    0    0 -0.17763568394E-13 -0.14210854715E-13 -0.15420425620E+03  0.10113889361E+04  0.99956421882E+03 0.  0.
         25    2    3    3    0    0 -0.29784182925E+02  0.91584333115E+02 -0.13067064052E+03  0.20509438640E+03  0.12535590699E+03 0.  0.
         35    2    3    3    0    0  0.29784182925E+02 -0.91584333115E+02 -0.23533615681E+02  0.80629454975E+03  0.80017640696E+03 0.  0.
         22    1    5    5    0    0  0.13960817097E+03 -0.11698296938E+03  0.36166532433E+03  0.40494106158E+03  0.00000000000E+00 0. -1.
         22    1    5    5    0    0 -0.10982398805E+03  0.25398636269E+02 -0.38519894001E+03  0.40135348817E+03  0.00000000000E+00 0. -1.
          5    1    4    4  502    0  0.87466066828E+00  0.10639650360E+03 -0.13329928606E+03  0.17062171806E+03  0.47000000000E+01 0. -1.
         -5    1    4    4    0  502 -0.30658843593E+02 -0.14812170488E+02  0.26286455465E+01  0.34472668340E+02  0.47000000000E+01 0. -1.
<mgrwt>
<rscale>  0 0.99956422E+03</rscale>
<asrwt>0</asrwt>
<pdfrwt beam="1">  1        2 0.65937284E-01 0.99956422E+03</pdfrwt>
<pdfrwt beam="2">  1       -2 0.89661014E-01 0.99956422E+03</pdfrwt>
<totfact> 0.93705857E+01</totfact>
</mgrwt>
</event>
<event>
 9    1  0.4307774E-036  0.9998319E+03  0.7818608E-02  0.8681198E-01
         -1   -1    0    0    0  501 -0.00000000000E+00  0.00000000000E+00  0.22705594930E+03  0.22705594930E+03  0.00000000000E+00 0.  1.
          1   -1    0    0  501    0  0.00000000000E+00 -0.00000000000E+00 -0.11006801512E+04  0.11006801512E+04  0.00000000000E+00 0.  1.
         36    2    1    2    0    0 -0.14210854715E-13  0.28421709430E-13 -0.87362420194E+03  0.13277361005E+04  0.99983193911E+03 0.  0.
         25    2    3    3    0    0  0.13454219928E+01 -0.10431684136E+03 -0.28855534358E+03  0.33128384825E+03  0.12490391608E+03 0.  0.
         35    2    3    3    0    0 -0.13454219928E+01  0.10431684136E+03 -0.58506885836E+03  0.99645225229E+03  0.79982979972E+03 0.  0.
         22    1    5    5    0    0  0.37705829267E+03  0.17462792985E+03 -0.36513313475E+03  0.55316369734E+03  0.00000000000E+00 0.  1.
         22    1    5    5    0    0 -0.37840371466E+03 -0.70311088492E+02 -0.21993572360E+03  0.44328855495E+03  0.00000000000E+00 0.  1.
          5    1    4    4  502    0 -0.46790414835E+02 -0.40306432954E+02 -0.49999992765E+02  0.79599250841E+02  0.47000000000E+01 0.  1.
         -5    1    4    4    0  502  0.48135836828E+02 -0.64010408402E+02 -0.23855535081E+03  0.25168459741E+03  0.47000000000E+01 0.  1.
<mgrwt>
<rscale>  0 0.99983194E+03</rscale>
<asrwt>0</asrwt>
<pdfrwt beam="1">  1        1 0.16933541E+00 0.99983194E+03</pdfrwt>
<pdfrwt beam="2">  1       -1 0.34931684E-01 0.99983194E+03</pdfrwt>
<totfact> 0.10952203E+02</totfact>
</mgrwt>
</event>
<event>
 9    1  0.4307774E-036  0.9997105E+03  0.7818608E-02  0.8681314E-01
          2   -1    0    0  501    0  0.00000000000E+00  0.00000000000E+00  0.33311630197E+04  0.33311630197E+04  0.00000000000E+00 0.  1.
         -2   -1    0    0    0  501 -0.00000000000E+00 -0.00000000000E+00 -0.75005412836E+02  0.75005412836E+02  0.00000000000E+00 0.  1.
         36    2    1    2    0    0  0.71054273576E-14  0.00000000000E+00  0.32561576068E+04  0.34061684325E+04  0.99971047312E+03 0.  0.
         25    2    3    3    0    0  0.26195057510E+02  0.13554553433E+03  0.70250086181E+03  0.72671168932E+03  0.12467415785E+03 0.  0.
         35    2    3    3    0    0 -0.26195057510E+02 -0.13554553433E+03  0.25536567450E+04  0.26794567432E+04  0.79954167764E+03 0.  0.
         22    1    5    5    0    0  0.10969107544E+03 -0.14978752900E+03  0.25347317279E+04  0.25415218607E+04  0.00000000000E+00 0. -1.
         22    1    5    5    0    0 -0.13588613295E+03  0.14241994670E+02  0.18925017129E+02  0.13793488251E+03  0.00000000000E+00 0. -1.
          5    1    4    4  502    0 -0.31846618841E+02  0.69641209975E+02  0.50120449841E+03  0.50704254702E+03  0.47000000000E+01 0. -1.
         -5    1    4    4    0  502  0.58041676350E+02  0.65904324357E+02  0.20129636339E+03  0.21966914230E+03  0.47000000000E+01 0. -1.
<mgrwt>
<rscale>  0 0.99971047E+03</rscale>
<asrwt>0</asrwt>
<pdfrwt beam="1">  1        2 0.51248650E+00 0.99971047E+03</pdfrwt>
<pdfrwt beam="2">  1       -2 0.11539297E-01 0.99971047E+03</pdfrwt>
<totfact> 0.60896014E+01</totfact>
</mgrwt>
</event>
<event>
 9    1  0.4307774E-036  0.1000985E+04  0.7818608E-02  0.8680100E-01
         -2   -1    0    0    0  501 -0.00000000000E+00  0.00000000000E+00  0.26766854925E+03  0.26766854925E+03  0.00000000000E+00 0. -1.
          2   -1    0    0  501    0  0.00000000000E+00 -0.00000000000E+00 -0.93583262763E+03  0.93583262763E+03  0.00000000000E+00 0. -1.
         36    2    1    2    0    0  0.14210854715E-13  0.00000000000E+00 -0.66816407837E+03  0.12035011769E+04  0.10009854380E+04 0.  0.
         25    2    3    3    0    0  0.22492905109E+02  0.97051974736E+02 -0.51637528074E+01  0.15963733125E+03  0.12462903597E+03 0.  0.
         35    2    3    3    0    0 -0.22492905109E+02 -0.97051974736E+02 -0.66300032557E+03  0.10438638456E+04  0.80009829391E+03 0.  0.
         22    1    5    5    0    0 -0.18404084759E+03 -0.14271498386E+03  0.10662659865E+03  0.25614025794E+03  0.00000000000E+00 0.  1.
         22    1    5    5    0    0  0.16154794248E+03  0.45663009121E+02 -0.76962692421E+03  0.78772358769E+03  0.00000000000E+00 0.  1.
          5    1    4    4  502    0  0.59426365287E+02  0.56224447742E+01  0.65131296299E+01  0.60229690635E+02  0.47000000000E+01 0.  1.
         -5    1    4    4    0  502 -0.36933460178E+02  0.91429529962E+02 -0.11676882437E+02  0.99407640617E+02  0.47000000000E+01 0.  1.
<mgrwt>
<rscale>  0 0.10009854E+04</rscale>
<asrwt>0</asrwt>
<pdfrwt beam="1">  1        2 0.14397425E+00 0.10009854E+04</pdfrwt>
<pdfrwt beam="2">  1       -2 0.41179777E-01 0.10009854E+04</pdfrwt>
<totfact> 0.18743391E+02</totfact>
</mgrwt>
</event>
<event>
 9    1  0.4307774E-036  0.1000529E+04  0.7818608E-02  0.8680534E-01
         -1   -1    0    0    0  501 -0.00000000000E+00  0.00000000000E+00  0.48955193555E+03  0.48955193555E+03  0.00000000000E+00 0.  1.
          1   -1    0    0  501    0  0.00000000000E+00 -0.00000000000E+00 -0.51121135342E+03  0.51121135342E+03  0.00000000000E+00 0.  1.
         36    2    1    2    0    0  0.35527136788E-13 -0.28421709430E-13 -0.21659417872E+02  0.10007632890E+04  0.10005288752E+04 0.  0.
         25    2    3    3    0    0 -0.42706159972E+02 -0.13052919003E+03 -0.20790227226E+02  0.18576593269E+03  0.12334935205E+03 0.  0.
         35    2    3    3    0    0  0.42706159972E+02  0.13052919003E+03 -0.86919064629E+00  0.81499735628E+03  0.80334192577E+03 0.  0.
         22    1    5    5    0    0  0.37045139910E+03 -0.13345220171E+03  0.12413945628E+02  0.39395156464E+03  0.00000000000E+00 0.  1.
         22    1    5    5    0    0 -0.32774523913E+03  0.26398139173E+03 -0.13283136274E+02  0.42104579164E+03  0.00000000000E+00 0.  1.
          5    1    4    4  502    0 -0.45054255267E+02 -0.28187722344E+02 -0.56059811866E+02  0.77390090548E+02  0.47000000000E+01 0. -1.
         -5    1    4    4    0  502  0.23480952952E+01 -0.10234146768E+03  0.35269584640E+02  0.10837584214E+03  0.47000000000E+01 0. -1.
<mgrwt>
<rscale>  0 0.10005289E+04</rscale>
<asrwt>0</asrwt>
<pdfrwt beam="1">  1        1 0.78647901E-01 0.10005289E+04</pdfrwt>
<pdfrwt beam="2">  1       -1 0.75315682E-01 0.10005289E+04</pdfrwt>
<totfact> 0.89772200E+01</totfact>
</mgrwt>
</event>
<event>
 9    1  0.4307774E-036  0.1000792E+04  0.7818608E-02  0.8680284E-01
          1   -1    0    0  501    0  0.00000000000E+00  0.00000000000E+00  0.70775928996E+03  0.70775928996E+03  0.00000000000E+00 0.  1.
         -1   -1    0    0    0  501 -0.00000000000E+00 -0.00000000000E+00 -0.35378695108E+03  0.35378695108E+03  0.00000000000E+00 0.  1.
         36    2    1    2    0    0  0.14210854715E-13  0.28421709430E-13  0.35397233888E+03  0.10615462410E+04  0.10007916892E+04 0.  0.
         25    2    3    3    0    0 -0.12232359559E+03 -0.75039086576E+02  0.89652303954E+02  0.20906861400E+03  0.12279341677E+03 0.  0.
         35    2    3    3    0    0  0.12232359559E+03  0.75039086576E+02  0.26432003493E+03  0.85247762704E+03  0.79765850913E+03 0.  0.
         22    1    5    5    0    0  0.20459103209E+03 -0.36755449622E+01  0.52746008532E+03  0.56576067524E+03  0.00000000000E+00 0. -1.
         22    1    5    5    0    0 -0.82267436502E+02  0.78714631538E+02 -0.26314005039E+03  0.28671695180E+03  0.00000000000E+00 0. -1.
          5    1    4    4  502    0 -0.90558604098E+02 -0.38489096712E+02 -0.91526025490E+01  0.98934986104E+02  0.47000000000E+01 0. -1.
         -5    1    4    4    0  502 -0.31764991491E+02 -0.36549989864E+02  0.98804906503E+02  0.11013362789E+03  0.47000000000E+01 0. -1.
<mgrwt>
<rscale>  0 0.10007917E+04</rscale>
<asrwt>0</asrwt>
<pdfrwt beam="1">  1        1 0.10888604E+00 0.10007917E+04</pdfrwt>
<pdfrwt beam="2">  1       -1 0.54428762E-01 0.10007917E+04</pdfrwt>
<totfact> 0.10497762E+02</totfact>
</mgrwt>
</event>
<event>
 9    1  0.4307774E-036  0.9971727E+03  0.7818608E-02  0.8683735E-01
         -2   -1    0    0    0  501 -0.00000000000E+00  0.00000000000E+00  0.22507946159E+03  0.22507946159E+03  0.00000000000E+00 0.  1.
          2   -1    0    0  501    0  0.00000000000E+00 -0.00000000000E+00 -0.11044470881E+04  0.11044470881E+04  0.00000000000E+00 0.  1.
         36    2    1    2    0    0  0.00000000000E+00  0.00000000000E+00 -0.87936762653E+03  0.13295265497E+04  0.99717271513E+03 0.  0.
         25    2    3    3    0    0 -0.26138377453E+02  0.11048995885E+03 -0.60851420296E+02  0.17953978400E+03  0.12506155646E+03 0.  0.
         35    2    3    3    0    0  0.26138377453E+02 -0.11048995885E+03 -0.81851620624E+03  0.11499867657E+04  0.79975592256E+03 0.  0.
         22    1    5    5    0    0  0.33157288595E+03 -0.16573706867E+03 -0.12672003313E+03  0.39174905415E+03  0.00000000000E+00 0. -1.
         22    1    5    5    0    0 -0.30543450850E+03  0.55247109818E+02 -0.69179617311E+03  0.75823771157E+03  0.00000000000E+00 0. -1.
          5    1    4    4  502    0  0.18236414249E+02  0.62962404778E+02 -0.87227668477E+02  0.10921349444E+03  0.47000000000E+01 0. -1.
         -5    1    4    4    0  502 -0.44374791702E+02  0.47527554074E+02  0.26376248180E+02  0.70326289557E+02  0.47000000000E+01 0. -1.
<mgrwt>
<rscale>  0 0.99717272E+03</rscale>
<asrwt>0</asrwt>
<pdfrwt beam="1">  1        2 0.16991494E+00 0.99717272E+03</pdfrwt>
<pdfrwt beam="2">  1       -2 0.34627609E-01 0.99717272E+03</pdfrwt>
<totfact> 0.20420733E+02</totfact>
</mgrwt>
</event>
<event>
 9    1  0.4307774E-036  0.9988066E+03  0.7818608E-02  0.8682175E-01
         -2   -1    0    0    0  501 -0.00000000000E+00  0.00000000000E+00  0.10348970781E+03  0.10348970781E+03  0.00000000000E+00 0.  1.
          2   -1    0    0  501    0  0.00000000000E+00 -0.00000000000E+00 -0.24099368687E+04  0.24099368687E+04  0.00000000000E+00 0.  1.
         36    2    1    2    0    0 -0.14210854715E-13  0.00000000000E+00 -0.23064471609E+04  0.25134265765E+04  0.99880661268E+03 0.  0.
         25    2    3    3    0    0 -0.10839471568E+03 -0.82713362503E+02 -0.49291117947E+03  0.52639485069E+03  0.12465630051E+03 0.  0.
         35    2    3    3    0    0  0.10839471568E+03  0.82713362503E+02 -0.18135359814E+04  0.19870317258E+04  0.80049447768E+03 0.  0.
         22    1    5    5    0    0  0.11068244039E+03  0.32743495666E+03 -0.16655508277E+04  0.17010360999E+04  0.00000000000E+00 0.  1.
         22    1    5    5    0    0 -0.22877247094E+01 -0.24472159415E+03 -0.14798515369E+03  0.28599562592E+03  0.00000000000E+00 0.  1.
          5    1    4    4  502    0 -0.68891430982E+02  0.15985081052E+02 -0.27357488991E+03  0.28260725835E+03  0.47000000000E+01 0. -1.
         -5    1    4    4    0  502 -0.39503284703E+02 -0.98698443555E+02 -0.21933628956E+03  0.24378759234E+03  0.47000000000E+01 0. -1.
<mgrwt>
<rscale>  0 0.99880661E+03</rscale>
<asrwt>0</asrwt>
<pdfrwt beam="1">  1        2 0.37075945E+00 0.99880661E+03</pdfrwt>
<pdfrwt beam="2">  1       -2 0.15921496E-01 0.99880661E+03</pdfrwt>
<totfact> 0.14277667E+02</totfact>
</mgrwt>
</event>
<event>
 9    1  0.4307774E-036  0.1000676E+04  0.7818608E-02  0.8680394E-01
         -1   -1    0    0    0  501 -0.00000000000E+00  0.00000000000E+00  0.37803409451E+03  0.37803409451E+03  0.00000000000E+00 0. -1.
          1   -1    0    0  501    0  0.00000000000E+00 -0.00000000000E+00 -0.66221037335E+03  0.66221037335E+03  0.00000000000E+00 0. -1.
         36    2    1    2    0    0  0.71054273576E-14 -0.35527136788E-13 -0.28417627883E+03  0.10402444679E+04  0.10006759693E+04 0.  0.
         25    2    3    3    0    0  0.60333960070E+02  0.35290527745E+02  0.73355171710E+02  0.16093555798E+03  0.12503465328E+03 0.  0.
         35    2    3    3    0    0 -0.60333960070E+02 -0.35290527745E+02 -0.35753145054E+03  0.87930890988E+03  0.80029357912E+03 0.  0.
         22    1    5    5    0    0 -0.90690026631E+02  0.34798118406E+03 -0.79866923201E+01  0.35969344259E+03  0.00000000000E+00 0.  1.
         22    1    5    5    0    0  0.30356066561E+02 -0.38327171180E+03 -0.34954475822E+03  0.51961546729E+03  0.00000000000E+00 0.  1.
          5    1    4    4  502    0  0.35776924896E+02  0.39075863625E+02 -0.25437238612E+02  0.58958074776E+02  0.47000000000E+01 0. -1.
         -5    1    4    4    0  502  0.24557035174E+02 -0.37853358793E+01  0.98792410322E+02  0.10197748321E+03  0.47000000000E+01 0. -1.
<mgrwt>
<rscale>  0 0.10006760E+04</rscale>
<asrwt>0</asrwt>
<pdfrwt beam="1">  1        1 0.10187852E+00 0.10006760E+04</pdfrwt>
<pdfrwt beam="2">  1       -1 0.58159092E-01 0.10006760E+04</pdfrwt>
<totfact> 0.10247266E+02</totfact>
</mgrwt>
</event>
<event>
 9    1  0.4307774E-036  0.9996985E+03  0.7818608E-02  0.8681325E-01
         -1   -1    0    0    0  501 -0.00000000000E+00  0.00000000000E+00  0.21563291779E+03  0.21563291779E+03  0.00000000000E+00 0. -1.
          1   -1    0    0  501    0  0.00000000000E+00 -0.00000000000E+00 -0.11586787316E+04  0.11586787316E+04  0.00000000000E+00 0. -1.
         36    2    1    2    0    0  0.71054273576E-14 -0.71054273576E-14 -0.94304581382E+03  0.13743116494E+04  0.99969850591E+03 0.  0.
         25    2    3    3    0    0  0.25271885357E+02  0.30089157857E+02  0.10671545761E+02  0.12893429588E+03  0.12233619724E+03 0.  0.
         35    2    3    3    0    0 -0.25271885357E+02 -0.30089157857E+02 -0.95371735958E+03  0.12453773535E+04  0.79990244724E+03 0.  0.
         22    1    5    5    0    0  0.12792147747E+03  0.34108470921E+03 -0.27367117655E+03  0.45562988942E+03  0.00000000000E+00 0.  1.
         22    1    5    5    0    0 -0.15319336283E+03 -0.37117386707E+03 -0.68004618303E+03  0.78974746411E+03  0.00000000000E+00 0.  1.
          5    1    4    4  502    0  0.48549014501E+02 -0.14170637639E+02 -0.34484087608E+02  0.61392638632E+02  0.47000000000E+01 0. -1.
         -5    1    4    4    0  502 -0.23277129144E+02  0.44259795495E+02  0.45155633369E+02  0.67541657245E+02  0.47000000000E+01 0. -1.
<mgrwt>
<rscale>  0 0.99969851E+03</rscale>
<asrwt>0</asrwt>
<pdfrwt beam="1">  1        1 0.17825827E+00 0.99969851E+03</pdfrwt>
<pdfrwt beam="2">  1       -1 0.33174295E-01 0.99969851E+03</pdfrwt>
<totfact> 0.10823649E+02</totfact>
</mgrwt>
</event>
<event>
 9    1  0.4307774E-036  0.9993523E+03  0.7818608E-02  0.8681655E-01
          1   -1    0    0  501    0  0.00000000000E+00  0.00000000000E+00  0.74689148286E+03  0.74689148286E+03  0.00000000000E+00 0. -1.
         -1   -1    0    0    0  501 -0.00000000000E+00 -0.00000000000E+00 -0.33428722284E+03  0.33428722284E+03  0.00000000000E+00 0. -1.
         36    2    1    2    0    0  0.42632564146E-13 -0.71054273576E-14  0.41260426002E+03  0.10811787057E+04  0.99935234941E+03 0.  0.
         25    2    3    3    0    0 -0.12175932188E+03 -0.34543978369E+01  0.28154347884E+01  0.17418135303E+03  0.12447470322E+03 0.  0.
         35    2    3    3    0    0  0.12175932188E+03  0.34543978369E+01  0.40978882523E+03  0.90699735267E+03  0.79992502845E+03 0.  0.
         22    1    5    5    0    0 -0.23073575469E+03 -0.18716146975E+03 -0.45396183733E+02  0.30054819539E+03  0.00000000000E+00 0.  1.
         22    1    5    5    0    0  0.35249507657E+03  0.19061586759E+03  0.45518500897E+03  0.60644915728E+03  0.00000000000E+00 0.  1.
          5    1    4    4  502    0 -0.51308046267E+02  0.30218694325E+02  0.54144132908E+02  0.80618622084E+02  0.47000000000E+01 0. -1.
         -5    1    4    4    0  502 -0.70451275612E+02 -0.33673092161E+02 -0.51328698119E+02  0.93562730944E+02  0.47000000000E+01 0. -1.
<mgrwt>
<rscale>  0 0.99935235E+03</rscale>
<asrwt>0</asrwt>
<pdfrwt beam="1">  1        1 0.11490638E+00 0.99935235E+03</pdfrwt>
<pdfrwt beam="2">  1       -1 0.51428804E-01 0.99935235E+03</pdfrwt>
<totfact> 0.10732851E+02</totfact>
</mgrwt>
</event>
<event>
 9    1  0.4307774E-036  0.1000775E+04  0.7818608E-02  0.8680300E-01
         -2   -1    0    0    0  501 -0.00000000000E+00  0.00000000000E+00  0.19178801717E+03  0.19178801717E+03  0.00000000000E+00 0.  1.
          2   -1    0    0  501    0  0.00000000000E+00 -0.00000000000E+00 -0.13055448757E+04  0.13055448757E+04  0.00000000000E+00 0.  1.
         36    2    1    2    0    0  0.14210854715E-13  0.00000000000E+00 -0.11137568586E+04  0.14973328929E+04  0.10007754255E+04 0.  0.
         25    2    3    3    0    0 -0.51957948883E+02  0.13034470955E+03 -0.22140874092E+03  0.29045241904E+03  0.12510557704E+03 0.  0.
         35    2    3    3    0    0  0.51957948883E+02 -0.13034470955E+03 -0.89234811765E+03  0.12068804739E+04  0.80036613085E+03 0.  0.
         22    1    5    5    0    0 -0.15081933770E+03  0.12213380882E+02  0.10175192737E+03  0.18234334103E+03  0.00000000000E+00 0. -1.
         22    1    5    5    0    0  0.20277728658E+03 -0.14255809043E+03 -0.99410004501E+03  0.10245371329E+04  0.00000000000E+00 0. -1.
          5    1    4    4  502    0 -0.54878899166E+02  0.10257172612E+03 -0.68790297680E+02  0.13522887128E+03  0.47000000000E+01 0.  1.
         -5    1    4    4    0  502  0.29209502827E+01  0.27772983422E+02 -0.15261844324E+03  0.15522354775E+03  0.47000000000E+01 0.  1.
<mgrwt>
<rscale>  0 0.10007754E+04</rscale>
<asrwt>0</asrwt>
<pdfrwt beam="1">  1        2 0.20085306E+00 0.10007754E+04</pdfrwt>
<pdfrwt beam="2">  1       -2 0.29505848E-01 0.10007754E+04</pdfrwt>
<totfact> 0.20849286E+02</totfact>
</mgrwt>
</event>
<event>
 9    1  0.4307774E-036  0.1001107E+04  0.7818608E-02  0.8679984E-01
          2   -1    0    0  501    0  0.00000000000E+00  0.00000000000E+00  0.33461563768E+04  0.33461563768E+04  0.00000000000E+00 0.  1.
         -2   -1    0    0    0  501 -0.00000000000E+00 -0.00000000000E+00 -0.74878088075E+02  0.74878088075E+02  0.00000000000E+00 0.  1.
         36    2    1    2    0    0  0.14210854715E-13 -0.28421709430E-13  0.32712782887E+04  0.34210344649E+04  0.10011069711E+04 0.  0.
         25    2    3    3    0    0 -0.97755538025E+02  0.11489432456E+03  0.65973769314E+03  0.68819829661E+03  0.12492486015E+03 0.  0.
         35    2    3    3    0    0  0.97755538025E+02 -0.11489432456E+03  0.26115405956E+04  0.27328361683E+04  0.79088076796E+03 0.  0.
         22    1    5    5    0    0  0.95029459832E+02  0.14950839933E+03  0.23640080759E+04  0.23706365269E+04  0.00000000000E+00 0. -1.
         22    1    5    5    0    0  0.27260781929E+01 -0.26440272389E+03  0.24753251966E+03  0.36219964134E+03  0.00000000000E+00 0. -1.
          5    1    4    4  502    0 -0.47943015420E+02  0.13369864382E+03  0.49598479362E+03  0.51594269603E+03  0.47000000000E+01 0.  1.
         -5    1    4    4    0  502 -0.49812522605E+02 -0.18804319260E+02  0.16375289952E+03  0.17225560058E+03  0.47000000000E+01 0.  1.
<mgrwt>
<rscale>  0 0.10011070E+04</rscale>
<asrwt>0</asrwt>
<pdfrwt beam="1">  1        2 0.51479317E+00 0.10011070E+04</pdfrwt>
<pdfrwt beam="2">  1       -2 0.11519708E-01 0.10011070E+04</pdfrwt>
<totfact> 0.59554425E+01</totfact>
</mgrwt>
</event>
<event>
 9    1  0.4307774E-036  0.1002573E+04  0.7818608E-02  0.8678591E-01
          1   -1    0    0  501    0  0.00000000000E+00  0.00000000000E+00  0.89964095566E+03  0.89964095566E+03  0.00000000000E+00 0. -1.
         -1   -1    0    0    0  501 -0.00000000000E+00 -0.00000000000E+00 -0.27932074343E+03  0.27932074343E+03  0.00000000000E+00 0. -1.
         36    2    1    2    0    0 -0.14210854715E-13 -0.28421709430E-13  0.62032021223E+03  0.11789616991E+04  0.10025734498E+04 0.  0.
         25    2    3    3    0    0 -0.69431510984E+02 -0.96171209730E+02  0.21194866818E+03  0.27302586460E+03  0.12470464505E+03 0.  0.
         35    2    3    3    0    0  0.69431510984E+02  0.96171209730E+02  0.40837154405E+03  0.90593583449E+03  0.79992673535E+03 0.  0.
         22    1    5    5    0    0  0.32009235355E+03 -0.12909796333E+03 -0.37335278662E+02  0.34715892898E+03  0.00000000000E+00 0.  1.
         22    1    5    5    0    0 -0.25066084256E+03  0.22526917306E+03  0.44570682271E+03  0.55877690551E+03  0.00000000000E+00 0.  1.
          5    1    4    4  502    0  0.28296500136E+02 -0.58441101351E+02  0.60903877715E+02  0.89148340241E+02  0.47000000000E+01 0.  1.
         -5    1    4    4    0  502 -0.97728011120E+02 -0.37730108379E+02  0.15104479047E+03  0.18387752436E+03  0.47000000000E+01 0.  1.
<mgrwt>
<rscale>  0 0.10025734E+04</rscale>
<asrwt>0</asrwt>
<pdfrwt beam="1">  1        1 0.13840630E+00 0.10025734E+04</pdfrwt>
<pdfrwt beam="2">  1       -1 0.42972422E-01 0.10025734E+04</pdfrwt>
<totfact> 0.10967753E+02</totfact>
</mgrwt>
</event>
<event>
 9    1  0.4307774E-036  0.9991337E+03  0.7818608E-02  0.8681863E-01
         -1   -1    0    0    0  501 -0.00000000000E+00  0.00000000000E+00  0.26115146840E+03  0.26115146840E+03  0.00000000000E+00 0.  1.
          1   -1    0    0  501    0  0.00000000000E+00 -0.00000000000E+00 -0.95564089496E+03  0.95564089496E+03  0.00000000000E+00 0.  1.
         36    2    1    2    0    0  0.00000000000E+00  0.28421709430E-13 -0.69448942656E+03  0.12167923634E+04  0.99913367070E+03 0.  0.
         25    2    3    3    0    0 -0.35162328750E+02  0.94675093247E+02 -0.25395294993E+03  0.30065113197E+03  0.12529660703E+03 0.  0.
         35    2    3    3    0    0  0.35162328750E+02 -0.94675093247E+02 -0.44053647662E+03  0.91614123138E+03  0.79689560544E+03 0.  0.
         22    1    5    5    0    0  0.13530910439E+03  0.27655161659E+03  0.29022836310E+02  0.30924371521E+03  0.00000000000E+00 0. -1.
         22    1    5    5    0    0 -0.10014677564E+03 -0.37122670984E+03 -0.46955931293E+03  0.60689751617E+03  0.00000000000E+00 0. -1.
          5    1    4    4  502    0 -0.10833812509E+02  0.29969289294E+02 -0.22204484375E+03  0.22436918780E+03  0.47000000000E+01 0. -1.
         -5    1    4    4    0  502 -0.24328516240E+02  0.64705803953E+02 -0.31908106178E+02  0.76281944178E+02  0.47000000000E+01 0. -1.
<mgrwt>
<rscale>  0 0.99913367E+03</rscale>
<asrwt>0</asrwt>
<pdfrwt beam="1">  1        1 0.14702168E+00 0.99913367E+03</pdfrwt>
<pdfrwt beam="2">  1       -1 0.40177149E-01 0.99913367E+03</pdfrwt>
<totfact> 0.11132232E+02</totfact>
</mgrwt>
</event>
<event>
 9    1  0.4307774E-036  0.1000397E+04  0.7818608E-02  0.8680660E-01
          1   -1    0    0  501    0  0.00000000000E+00  0.00000000000E+00  0.10911499939E+04  0.10911499939E+04  0.00000000000E+00 0. -1.
         -1   -1    0    0    0  501 -0.00000000000E+00 -0.00000000000E+00 -0.22929824227E+03  0.22929824227E+03  0.00000000000E+00 0. -1.
         36    2    1    2    0    0 -0.28421709430E-13  0.00000000000E+00  0.86185175165E+03  0.13204482362E+04  0.10003974723E+04 0.  0.
         25    2    3    3    0    0 -0.12539889942E+03 -0.62236168185E+02  0.15754977575E+03  0.24519544941E+03  0.12530224246E+03 0.  0.
         35    2    3    3    0    0  0.12539889942E+03  0.62236168185E+02  0.70430197591E+03  0.10752527868E+04  0.80033059271E+03 0.  0.
         22    1    5    5    0    0 -0.17124012745E+03  0.20718933284E+03  0.69477087627E+03  0.74495447606E+03  0.00000000000E+00 0.  1.
         22    1    5    5    0    0  0.29663902688E+03 -0.14495316465E+03  0.95310996364E+01  0.33029831073E+03  0.00000000000E+00 0.  1.
          5    1    4    4  502    0 -0.11600257169E+03 -0.96133265253E+02  0.13950886808E+03  0.20538504230E+03  0.47000000000E+01 0. -1.
         -5    1    4    4    0  502 -0.93963277267E+01  0.33897097068E+02  0.18040907666E+02  0.39810407104E+02  0.47000000000E+01 0. -1.
<mgrwt>
<rscale>  0 0.10003975E+04</rscale>
<asrwt>0</asrwt>
<pdfrwt beam="1">  1        1 0.16786923E+00 0.10003975E+04</pdfrwt>
<pdfrwt beam="2">  1       -1 0.35276653E-01 0.10003975E+04</pdfrwt>
<totfact> 0.10948473E+02</totfact>
</mgrwt>
</event>
<event>
 9    1  0.4307774E-036  0.1000408E+04  0.7818608E-02  0.8680650E-01
          2   -1    0    0  501    0  0.00000000000E+00  0.00000000000E+00  0.19621137401E+04  0.19621137401E+04  0.00000000000E+00 0. -1.
         -2   -1    0    0    0  501 -0.00000000000E+00 -0.00000000000E+00 -0.12751751529E+03  0.12751751529E+03  0.00000000000E+00 0. -1.
         36    2    1    2    0    0  0.00000000000E+00 -0.17763568394E-13  0.18345962248E+04  0.20896312554E+04  0.10004076546E+04 0.  0.
         25    2    3    3    0    0 -0.10743498827E+03  0.27300791543E+02  0.16868866550E+03  0.23831568882E+03  0.12669211398E+03 0.  0.
         35    2    3    3    0    0  0.10743498827E+03 -0.27300791543E+02  0.16659075593E+04  0.18513155666E+04  0.79989606884E+03 0.  0.
         22    1    5    5    0    0  0.18203857172E+03 -0.38690241118E+03  0.10572250051E+04  0.11404193215E+04  0.00000000000E+00 0. -1.
         22    1    5    5    0    0 -0.74603583446E+02  0.35960161963E+03  0.60868255421E+03  0.71089624510E+03  0.00000000000E+00 0. -1.
          5    1    4    4  502    0 -0.68907362842E+02  0.35674102128E+02  0.14475340485E+02  0.79072698820E+02  0.47000000000E+01 0. -1.
         -5    1    4    4    0  502 -0.38527625430E+02 -0.83733105854E+01  0.15421332502E+03  0.15924299000E+03  0.47000000000E+01 0. -1.
<mgrwt>
<rscale>  0 0.10004077E+04</rscale>
<asrwt>0</asrwt>
<pdfrwt beam="1">  1        2 0.30186363E+00 0.10004077E+04</pdfrwt>
<pdfrwt beam="2">  1       -2 0.19618081E-01 0.10004077E+04</pdfrwt>
<totfact> 0.18212970E+02</totfact>
</mgrwt>
</event>
<event>
 9    1  0.4307774E-036  0.1000743E+04  0.7818608E-02  0.8680331E-01
         -2   -1    0    0    0  501 -0.00000000000E+00  0.00000000000E+00  0.39996765805E+03  0.39996765805E+03  0.00000000000E+00 0.  1.
          2   -1    0    0  501    0  0.00000000000E+00 -0.00000000000E+00 -0.62597977018E+03  0.62597977018E+03  0.00000000000E+00 0.  1.
         36    2    1    2    0    0  0.00000000000E+00  0.71054273576E-14 -0.22601211213E+03  0.10259474282E+04  0.10007430493E+04 0.  0.
         25    2    3    3    0    0  0.14087674378E+03 -0.18813671608E+02 -0.35469327841E+02  0.19221683753E+03  0.12445492451E+03 0.  0.
         35    2    3    3    0    0 -0.14087674378E+03  0.18813671608E+02 -0.19054278429E+03  0.83373059071E+03  0.79912447970E+03 0.  0.
         22    1    5    5    0    0 -0.18755516555E+03  0.33506786720E+03  0.10529840397E+03  0.39816475187E+03  0.00000000000E+00 0. -1.
         22    1    5    5    0    0  0.46678421770E+02 -0.31625419560E+03 -0.29584118826E+03  0.43556583883E+03  0.00000000000E+00 0. -1.
          5    1    4    4  502    0  0.78494831616E+02  0.24240558988E+02  0.34244542440E+02  0.89128121137E+02  0.47000000000E+01 0.  1.
         -5    1    4    4    0  502  0.62381912164E+02 -0.43054230596E+02 -0.69713870281E+02  0.10308871639E+03  0.47000000000E+01 0.  1.
<mgrwt>
<rscale>  0 0.10007430E+04</rscale>
<asrwt>0</asrwt>
<pdfrwt beam="1">  1        2 0.96304580E-01 0.10007430E+04</pdfrwt>
<pdfrwt beam="2">  1       -2 0.61533486E-01 0.10007430E+04</pdfrwt>
<totfact> 0.13989738E+02</totfact>
</mgrwt>
</event>
<event>
 9    1  0.4307774E-036  0.9964771E+03  0.7818608E-02  0.8684400E-01
         -1   -1    0    0    0  501 -0.00000000000E+00  0.00000000000E+00  0.27188703262E+03  0.27188703262E+03  0.00000000000E+00 0. -1.
          1   -1    0    0  501    0  0.00000000000E+00 -0.00000000000E+00 -0.91303241018E+03  0.91303241018E+03  0.00000000000E+00 0. -1.
         36    2    1    2    0    0 -0.35527136788E-14  0.00000000000E+00 -0.64114537756E+03  0.11849194428E+04  0.99647714010E+03 0.  0.
         25    2    3    3    0    0 -0.99244868380E+01 -0.11359159006E+03 -0.20813799887E+03  0.26813298941E+03  0.12478913679E+03 0.  0.
         35    2    3    3    0    0  0.99244868380E+01  0.11359159006E+03 -0.43300737869E+03  0.91678645339E+03  0.80000029146E+03 0.  0.
         22    1    5    5    0    0 -0.48973582728E+02  0.35351867303E+03 -0.54022793481E+03  0.64747207317E+03  0.00000000000E+00 0. -1.
         22    1    5    5    0    0  0.58898069566E+02 -0.23992708296E+03  0.10722055612E+03  0.26931438022E+03  0.00000000000E+00 0. -1.
          5    1    4    4  502    0  0.30836281021E+02 -0.34014154157E+02 -0.53507087763E+01  0.46460294818E+02  0.47000000000E+01 0. -1.
         -5    1    4    4    0  502 -0.40760767859E+02 -0.79577435908E+02 -0.20278729010E+03  0.22167269459E+03  0.47000000000E+01 0. -1.
<mgrwt>
<rscale>  0 0.99647714E+03</rscale>
<asrwt>0</asrwt>
<pdfrwt beam="1">  1        1 0.14046652E+00 0.99647714E+03</pdfrwt>
<pdfrwt beam="2">  1       -1 0.41828775E-01 0.99647714E+03</pdfrwt>
<totfact> 0.11227775E+02</totfact>
</mgrwt>
</event>
<event>
 9    1  0.4307774E-036  0.1001379E+04  0.7818608E-02  0.8679726E-01
         -2   -1    0    0    0  501 -0.00000000000E+00  0.00000000000E+00  0.14354245986E+03  0.14354245986E+03  0.00000000000E+00 0. -1.
          2   -1    0    0  501    0  0.00000000000E+00 -0.00000000000E+00 -0.17464513687E+04  0.17464513687E+04  0.00000000000E+00 0. -1.
         36    2    1    2    0    0  0.00000000000E+00  0.00000000000E+00 -0.16029089089E+04  0.18899938286E+04  0.10013789003E+04 0.  0.
         25    2    3    3    0    0  0.86133810656E+02  0.11182126836E+03 -0.31210754079E+03  0.36492803126E+03  0.12585039365E+03 0.  0.
         35    2    3    3    0    0 -0.86133810656E+02 -0.11182126836E+03 -0.12908013681E+04  0.15250657973E+04  0.79983403590E+03 0.  0.
         22    1    5    5    0    0 -0.16845400769E+03 -0.43214986233E+03 -0.90475857642E+03  0.10167193997E+04  0.00000000000E+00 0. -1.
         22    1    5    5    0    0  0.82320197032E+02  0.32032859397E+03 -0.38604279166E+03  0.50834639759E+03  0.00000000000E+00 0. -1.
          5    1    4    4  502    0  0.11610276824E+03  0.66643048305E+02 -0.20683520330E+03  0.24642248275E+03  0.47000000000E+01 0.  1.
         -5    1    4    4    0  502 -0.29968957585E+02  0.45178220054E+02 -0.10527233749E+03  0.11850554851E+03  0.47000000000E+01 0.  1.
<mgrwt>
<rscale>  0 0.10013789E+04</rscale>
<asrwt>0</asrwt>
<pdfrwt beam="1">  1        2 0.26868484E+00 0.10013789E+04</pdfrwt>
<pdfrwt beam="2">  1       -2 0.22083454E-01 0.10013789E+04</pdfrwt>
<totfact> 0.19634097E+02</totfact>
</mgrwt>
</event>
<event>
 9    1  0.4307774E-036  0.1000655E+04  0.7818608E-02  0.8680415E-01
          2   -1    0    0  501    0  0.00000000000E+00  0.00000000000E+00  0.36691908938E+03  0.36691908938E+03  0.00000000000E+00 0.  1.
         -2   -1    0    0    0  501 -0.00000000000E+00 -0.00000000000E+00 -0.68224165398E+03  0.68224165398E+03  0.00000000000E+00 0.  1.
         36    2    1    2    0    0  0.00000000000E+00 -0.71054273576E-14 -0.31532256460E+03  0.10491607434E+04  0.10006547585E+04 0.  0.
         25    2    3    3    0    0  0.63463316798E+01  0.17044004392E+02 -0.20492687659E+03  0.24078254314E+03  0.12510169591E+03 0.  0.
         35    2    3    3    0    0 -0.63463316798E+01 -0.17044004392E+02 -0.11039568800E+03  0.80837820022E+03  0.80059810932E+03 0.  0.
         22    1    5    5    0    0  0.78850663436E+02 -0.96816537991E+02 -0.44070643798E+03  0.45805352703E+03  0.00000000000E+00 0. -1.
         22    1    5    5    0    0 -0.85196995116E+02  0.79772533599E+02  0.33031074997E+03  0.35032467319E+03  0.00000000000E+00 0. -1.
          5    1    4    4  502    0  0.57403926105E+02 -0.20633234846E+02 -0.81365261996E+02  0.10180047629E+03  0.47000000000E+01 0. -1.
         -5    1    4    4    0  502 -0.51057594426E+02  0.37677239238E+02 -0.12356161460E+03  0.13898206685E+03  0.47000000000E+01 0. -1.
<mgrwt>
<rscale>  0 0.10006548E+04</rscale>
<asrwt>0</asrwt>
<pdfrwt beam="1">  1        2 0.56449090E-01 0.10006548E+04</pdfrwt>
<pdfrwt beam="2">  1       -2 0.10496025E+00 0.10006548E+04</pdfrwt>
<totfact> 0.76315584E+01</totfact>
</mgrwt>
</event>
<event>
 9    1  0.4307774E-036  0.1001291E+04  0.7818608E-02  0.8679810E-01
          2   -1    0    0  501    0  0.00000000000E+00  0.00000000000E+00  0.17525526405E+03  0.17525526405E+03  0.00000000000E+00 0. -1.
         -2   -1    0    0    0  501 -0.00000000000E+00 -0.00000000000E+00 -0.14301761375E+04  0.14301761375E+04  0.00000000000E+00 0. -1.
         36    2    1    2    0    0  0.00000000000E+00 -0.71054273576E-14 -0.12549208735E+04  0.16054314016E+04  0.10012909599E+04 0.  0.
         25    2    3    3    0    0 -0.71768149617E+02  0.79721427513E+01 -0.43061165665E+03  0.45414656111E+03  0.12493389359E+03 0.  0.
         35    2    3    3    0    0  0.71768149617E+02 -0.79721427513E+01 -0.82430921682E+03  0.11512848405E+04  0.80047290808E+03 0.  0.
         22    1    5    5    0    0  0.72184036467E+01  0.38530076025E+03 -0.27853757846E+03  0.47549128679E+03  0.00000000000E+00 0. -1.
         22    1    5    5    0    0  0.64549745970E+02 -0.39327290300E+03 -0.54577163836E+03  0.67579355366E+03  0.00000000000E+00 0. -1.
          5    1    4    4  502    0 -0.43130268057E+02  0.66188961386E+02 -0.22747504229E+03  0.24084888103E+03  0.47000000000E+01 0.  1.
         -5    1    4    4    0  502 -0.28637881560E+02 -0.58216818634E+02 -0.20313661436E+03  0.21329768008E+03  0.47000000000E+01 0.  1.
<mgrwt>
<rscale>  0 0.10012910E+04</rscale>
<asrwt>0</asrwt>
<pdfrwt beam="1">  1        2 0.26962350E-01 0.10012910E+04</pdfrwt>
<pdfrwt beam="2">  1       -2 0.22002709E+00 0.10012910E+04</pdfrwt>
<totfact> 0.21429818E+01</totfact>
</mgrwt>
</event>
<event>
 9    1  0.4307774E-036  0.9997277E+03  0.7818608E-02  0.8681297E-01
          1   -1    0    0  501    0  0.00000000000E+00  0.00000000000E+00  0.44992458922E+03  0.44992458922E+03  0.00000000000E+00 0. -1.
         -1   -1    0    0    0  501 -0.00000000000E+00 -0.00000000000E+00 -0.55534611778E+03  0.55534611778E+03  0.00000000000E+00 0. -1.
         36    2    1    2    0    0  0.71054273576E-14  0.28421709430E-13 -0.10542152856E+03  0.10052707070E+04  0.99972771076E+03 0.  0.
         25    2    3    3    0    0 -0.13037719148E+02 -0.12929470883E+03 -0.66645284754E+02  0.19206846618E+03  0.12474613368E+03 0.  0.
         35    2    3    3    0    0  0.13037719148E+02  0.12929470883E+03 -0.38776243807E+02  0.81320224082E+03  0.80181493098E+03 0.  0.
         22    1    5    5    0    0  0.13578155831E+03 -0.20649691073E+03  0.25155495874E+03  0.35264359201E+03  0.00000000000E+00 0.  1.
         22    1    5    5    0    0 -0.12274383916E+03  0.33579161956E+03 -0.29033120255E+03  0.46055864881E+03  0.00000000000E+00 0.  1.
          5    1    4    4  502    0 -0.60454277176E+02 -0.30069918087E+02 -0.10464020358E+02  0.68487263960E+02  0.47000000000E+01 0. -1.
         -5    1    4    4    0  502  0.47416558029E+02 -0.99224790738E+02 -0.56181264396E+02  0.12358120222E+03  0.47000000000E+01 0. -1.
<mgrwt>
<rscale>  0 0.99972771E+03</rscale>
<asrwt>0</asrwt>
<pdfrwt beam="1">  1        1 0.69219168E-01 0.99972771E+03</pdfrwt>
<pdfrwt beam="2">  1       -1 0.85437864E-01 0.99972771E+03</pdfrwt>
<totfact> 0.82272276E+01</totfact>
</mgrwt>
</event>
<event>
 9    1  0.4307774E-036  0.1000555E+04  0.7818608E-02  0.8680509E-01
          1   -1    0    0  501    0  0.00000000000E+00  0.00000000000E+00  0.24333530401E+04  0.24333530401E+04  0.00000000000E+00 0.  1.
         -1   -1    0    0    0  501 -0.00000000000E+00 -0.00000000000E+00 -0.10285301462E+03  0.10285301462E+03  0.00000000000E+00 0.  1.
         36    2    1    2    0    0 -0.35527136788E-14  0.28421709430E-13  0.23305000255E+04  0.25362060547E+04  0.10005552375E+04 0.  0.
         25    2    3    3    0    0  0.22148838723E+02 -0.13493597376E+03  0.54206281700E+03  0.57284534523E+03  0.12498561479E+03 0.  0.
         35    2    3    3    0    0 -0.22148838723E+02  0.13493597376E+03  0.17884372085E+04  0.19633607095E+04  0.79848565349E+03 0.  0.
         22    1    5    5    0    0  0.12786359807E+02  0.47152839570E+03  0.10454888036E+04  0.11469740003E+04  0.00000000000E+00 0. -1.
         22    1    5    5    0    0 -0.34935198530E+02 -0.33659242194E+03  0.74294840486E+03  0.81638670915E+03  0.00000000000E+00 0. -1.
          5    1    4    4  502    0 -0.12700328132E+02 -0.36969800131E+02  0.27905950007E+02  0.48258641735E+02  0.47000000000E+01 0. -1.
         -5    1    4    4    0  502  0.34849166855E+02 -0.97966173632E+02  0.51415686699E+03  0.52458670349E+03  0.47000000000E+01 0. -1.
<mgrwt>
<rscale>  0 0.10005552E+04</rscale>
<asrwt>0</asrwt>
<pdfrwt beam="1">  1        1 0.37436196E+00 0.10005552E+04</pdfrwt>
<pdfrwt beam="2">  1       -1 0.15823543E-01 0.10005552E+04</pdfrwt>
<totfact> 0.46378407E+01</totfact>
</mgrwt>
</event>
<event>
 9    1  0.4307774E-036  0.9978788E+03  0.7818608E-02  0.8683061E-01
         -2   -1    0    0    0  501 -0.00000000000E+00  0.00000000000E+00  0.33578155425E+03  0.33578155425E+03  0.00000000000E+00 0.  1.
          2   -1    0    0  501    0  0.00000000000E+00 -0.00000000000E+00 -0.74137641370E+03  0.74137641370E+03  0.00000000000E+00 0.  1.
         36    2    1    2    0    0  0.28421709430E-13 -0.10658141036E-13 -0.40559485945E+03  0.10771579679E+04  0.99787879921E+03 0.  0.
         25    2    3    3    0    0  0.12517758062E+03 -0.84909746100E+01 -0.16116158299E+02  0.17814376419E+03  0.12543503028E+03 0.  0.
         35    2    3    3    0    0 -0.12517758062E+03  0.84909746100E+01 -0.38947870115E+03  0.89901420376E+03  0.80049444507E+03 0.  0.
         22    1    5    5    0    0 -0.12680026744E+01  0.13659402852E+03  0.22279018131E+03  0.26133312332E+03  0.00000000000E+00 0.  1.
         22    1    5    5    0    0 -0.12390957794E+03 -0.12810305391E+03 -0.61226888246E+03  0.63768108044E+03  0.00000000000E+00 0.  1.
          5    1    4    4  502    0  0.57870269559E+01  0.22615297532E+02 -0.45388200299E+02  0.51255439612E+02  0.47000000000E+01 0.  1.
         -5    1    4    4    0  502  0.11939055366E+03 -0.31106272142E+02  0.29272042000E+02  0.12688832457E+03  0.47000000000E+01 0.  1.
<mgrwt>
<rscale>  0 0.99787880E+03</rscale>
<asrwt>0</asrwt>
<pdfrwt beam="1">  1        2 0.11405791E+00 0.99787880E+03</pdfrwt>
<pdfrwt beam="2">  1       -2 0.51658701E-01 0.99787880E+03</pdfrwt>
<totfact> 0.16306176E+02</totfact>
</mgrwt>
</event>
<event>
 9    1  0.4307774E-036  0.9996563E+03  0.7818608E-02  0.8681365E-01
         -2   -1    0    0    0  501 -0.00000000000E+00  0.00000000000E+00  0.10504155135E+03  0.10504155135E+03  0.00000000000E+00 0. -1.
          2   -1    0    0  501    0  0.00000000000E+00 -0.00000000000E+00 -0.23783749122E+04  0.23783749122E+04  0.00000000000E+00 0. -1.
         36    2    1    2    0    0 -0.14210854715E-13  0.14210854715E-13 -0.22733333608E+04  0.24834164635E+04  0.99965632188E+03 0.  0.
         25    2    3    3    0    0  0.12381531721E+03 -0.58355528862E+02 -0.30591331195E+03  0.35493903029E+03  0.11688952163E+03 0.  0.
         35    2    3    3    0    0 -0.12381531721E+03  0.58355528862E+02 -0.19674200489E+04  0.21284774332E+04  0.80058661902E+03 0.  0.
         22    1    5    5    0    0 -0.49688844152E+02  0.41710060755E+03 -0.78103537012E+03  0.88682475576E+03  0.00000000000E+00 0.  1.
         22    1    5    5    0    0 -0.74126473062E+02 -0.35874507869E+03 -0.11863846788E+04  0.12416526775E+04  0.00000000000E+00 0.  1.
          5    1    4    4  502    0  0.24851368229E+02  0.15056972191E+02 -0.51533589946E+01  0.29882269381E+02  0.47000000000E+01 0. -1.
         -5    1    4    4    0  502  0.98963948985E+02 -0.73412501053E+02 -0.30075995296E+03  0.32505676091E+03  0.47000000000E+01 0. -1.
<mgrwt>
<rscale>  0 0.99965632E+03</rscale>
<asrwt>0</asrwt>
<pdfrwt beam="1">  1        2 0.36590386E+00 0.99965632E+03</pdfrwt>
<pdfrwt beam="2">  1       -2 0.16160238E-01 0.99965632E+03</pdfrwt>
<totfact> 0.14541768E+02</totfact>
</mgrwt>
</event>
<event>
 9    1  0.4307774E-036  0.9996634E+03  0.7818608E-02  0.8681359E-01
          2   -1    0    0  501    0  0.00000000000E+00  0.00000000000E+00  0.37655641307E+03  0.37655641307E+03  0.00000000000E+00 0.  1.
         -2   -1    0    0    0  501 -0.00000000000E+00 -0.00000000000E+00 -0.66346429025E+03  0.66346429025E+03  0.00000000000E+00 0.  1.
         36    2    1    2    0    0  0.14210854715E-13 -0.71054273576E-14 -0.28690787718E+03  0.10400207033E+04  0.99966341003E+03 0.  0.
         25    2    3    3    0    0  0.10444307039E+03  0.36947514664E+02  0.34115704309E+02  0.17063534533E+03  0.12521607726E+03 0.  0.
         35    2    3    3    0    0 -0.10444307039E+03 -0.36947514664E+02 -0.32102358149E+03  0.86938535799E+03  0.80031324306E+03 0.  0.
         22    1    5    5    0    0  0.34100541274E+03  0.55498555385E+02 -0.80374869939E+02  0.35471805830E+03  0.00000000000E+00 0.  1.
         22    1    5    5    0    0 -0.44544848313E+03 -0.92446070049E+02 -0.24064871155E+03  0.51466729968E+03  0.00000000000E+00 0.  1.
          5    1    4    4  502    0  0.94264867125E+02  0.31749097411E+02  0.77082208086E+02  0.12592707081E+03  0.47000000000E+01 0. -1.
         -5    1    4    4    0  502  0.10178203265E+02  0.51984172531E+01 -0.42966503777E+02  0.44708274519E+02  0.47000000000E+01 0. -1.
<mgrwt>
<rscale>  0 0.99966341E+03</rscale>
<asrwt>0</asrwt>
<pdfrwt beam="1">  1        2 0.57931757E-01 0.99966341E+03</pdfrwt>
<pdfrwt beam="2">  1       -2 0.10207143E+00 0.99966341E+03</pdfrwt>
<totfact> 0.79424280E+01</totfact>
</mgrwt>
</event>
<event>
 9    1  0.4307774E-036  0.1001245E+04  0.7818608E-02  0.8679854E-01
         -2   -1    0    0    0  501 -0.00000000000E+00  0.00000000000E+00  0.30349520018E+03  0.30349520018E+03  0.00000000000E+00 0. -1.
          2   -1    0    0  501    0  0.00000000000E+00 -0.00000000000E+00 -0.82578797409E+03  0.82578797409E+03  0.00000000000E+00 0. -1.
         36    2    1    2    0    0 -0.28421709430E-13  0.14210854715E-13 -0.52229277391E+03  0.11292831743E+04  0.10012445985E+04 0.  0.
         25    2    3    3    0    0 -0.12593026357E+03 -0.64729723460E+02 -0.88913389085E+02  0.20867701290E+03  0.12486847709E+03 0.  0.
         35    2    3    3    0    0  0.12593026357E+03  0.64729723460E+02 -0.43337938483E+03  0.92060616137E+03  0.79978099801E+03 0.  0.
         22    1    5    5    0    0 -0.26970099872E+03 -0.19164552440E+03 -0.25029638319E+03  0.41486734647E+03  0.00000000000E+00 0.  1.
         22    1    5    5    0    0  0.39563126228E+03  0.25637524786E+03 -0.18308300163E+03  0.50573881490E+03  0.00000000000E+00 0.  1.
          5    1    4    4  502    0 -0.92164930342E+02 -0.70164700184E+02 -0.28676023440E+01  0.11596453199E+03  0.47000000000E+01 0.  1.
         -5    1    4    4    0  502 -0.33765333225E+02  0.54349767237E+01 -0.86045786741E+02  0.92712480906E+02  0.47000000000E+01 0.  1.
<mgrwt>
<rscale>  0 0.10012446E+04</rscale>
<asrwt>0</asrwt>
<pdfrwt beam="1">  1        2 0.12704431E+00 0.10012446E+04</pdfrwt>
<pdfrwt beam="2">  1       -2 0.46691569E-01 0.10012446E+04</pdfrwt>
<totfact> 0.17373395E+02</totfact>
</mgrwt>
</event>
<event>
 9    1  0.4307774E-036  0.9999009E+03  0.7818608E-02  0.8681132E-01
         -1   -1    0    0    0  501 -0.00000000000E+00  0.00000000000E+00  0.58726564243E+03  0.58726564243E+03  0.00000000000E+00 0.  1.
          1   -1    0    0  501    0  0.00000000000E+00 -0.00000000000E+00 -0.42561735097E+03  0.42561735097E+03  0.00000000000E+00 0.  1.
         36    2    1    2    0    0 -0.28421709430E-13  0.00000000000E+00  0.16164829146E+03  0.10128829934E+04  0.99990088918E+03 0.  0.
         25    2    3    3    0    0 -0.97668442139E+02  0.84863801833E+02 -0.28030556527E+02  0.18183673409E+03  0.12465109833E+03 0.  0.
         35    2    3    3    0    0  0.97668442139E+02 -0.84863801833E+02  0.18967884798E+03  0.83104625931E+03  0.79869820976E+03 0.  0.
         22    1    5    5    0    0  0.43305422157E+03 -0.11141400978E+03  0.48477125652E+01  0.44718289402E+03  0.00000000000E+00 0. -1.
         22    1    5    5    0    0 -0.33538577943E+03  0.26550207946E+02  0.18483113542E+03  0.38386336528E+03  0.00000000000E+00 0. -1.
          5    1    4    4  502    0 -0.99368651079E+02  0.61654921495E+02  0.28557538625E+02  0.12047025016E+03  0.47000000000E+01 0.  1.
         -5    1    4    4    0  502  0.17002089402E+01  0.23208880338E+02 -0.56588095152E+02  0.61366483930E+02  0.47000000000E+01 0.  1.
<mgrwt>
<rscale>  0 0.99990089E+03</rscale>
<asrwt>0</asrwt>
<pdfrwt beam="1">  1        1 0.65479592E-01 0.99990089E+03</pdfrwt>
<pdfrwt beam="2">  1       -1 0.90348561E-01 0.99990089E+03</pdfrwt>
<totfact> 0.78714831E+01</totfact>
</mgrwt>
</event>
<event>
 9    1  0.4307774E-036  0.9982651E+03  0.7818608E-02  0.8682692E-01
          1   -1    0    0  501    0  0.00000000000E+00  0.00000000000E+00  0.41147567651E+03  0.41147567651E+03  0.00000000000E+00 0. -1.
         -1   -1    0    0    0  501 -0.00000000000E+00 -0.00000000000E+00 -0.60546301816E+03  0.60546301816E+03  0.00000000000E+00 0. -1.
         36    2    1    2    0    0 -0.14210854715E-13  0.00000000000E+00 -0.19398734165E+03  0.10169386947E+04  0.99826510506E+03 0.  0.
         25    2    3    3    0    0  0.90493241165E+02  0.93842014631E+02  0.25883904393E+01  0.18090789434E+03  0.12540181842E+03 0.  0.
         35    2    3    3    0    0 -0.90493241165E+02 -0.93842014631E+02 -0.19657573209E+03  0.83603080033E+03  0.80206616326E+03 0.  0.
         22    1    5    5    0    0 -0.10257962374E+03 -0.20012690332E+03 -0.48164131350E+03  0.53155593451E+03  0.00000000000E+00 0. -1.
         22    1    5    5    0    0  0.12086382571E+02  0.10628488869E+03  0.28506558141E+03  0.30447486582E+03  0.00000000000E+00 0. -1.
          5    1    4    4  502    0  0.54326032570E+02 -0.11858982233E+02  0.33257063612E+02  0.64962108606E+02  0.47000000000E+01 0. -1.
         -5    1    4    4    0  502  0.36167208595E+02  0.10570099686E+03 -0.30668673173E+02  0.11594578574E+03  0.47000000000E+01 0. -1.
<mgrwt>
<rscale>  0 0.99826511E+03</rscale>
<asrwt>0</asrwt>
<pdfrwt beam="1">  1        1 0.63303950E-01 0.99826511E+03</pdfrwt>
<pdfrwt beam="2">  1       -1 0.93148156E-01 0.99826511E+03</pdfrwt>
<totfact> 0.77138522E+01</totfact>
</mgrwt>
</event>
<event>
 9    1  0.4307774E-036  0.9996106E+03  0.7818608E-02  0.8681409E-01
         -2   -1    0    0    0  501 -0.00000000000E+00  0.00000000000E+00  0.60762110019E+02  0.60762110019E+02  0.00000000000E+00 0. -1.
          2   -1    0    0  501    0  0.00000000000E+00 -0.00000000000E+00 -0.41112023219E+04  0.41112023219E+04  0.00000000000E+00 0. -1.
         36    2    1    2    0    0 -0.14210854715E-13  0.14210854715E-13 -0.40504402119E+04  0.41719644319E+04  0.99961057976E+03 0.  0.
         25    2    3    3    0    0 -0.64480562967E+02  0.10293567994E+03 -0.10815909742E+04  0.10947099387E+04  0.11746198196E+03 0.  0.
         35    2    3    3    0    0  0.64480562967E+02 -0.10293567994E+03 -0.29688492377E+04  0.30772544932E+04  0.80042234024E+03 0.  0.
         22    1    5    5    0    0  0.29224153061E+03  0.25281791851E+03 -0.14845215717E+04  0.15339903224E+04  0.00000000000E+00 0.  1.
         22    1    5    5    0    0 -0.22776096764E+03 -0.35575359845E+03 -0.14843276659E+04  0.15432641708E+04  0.00000000000E+00 0.  1.
          5    1    4    4  502    0 -0.46986680413E+02  0.10693081599E+03 -0.52697841225E+03  0.53978725858E+03  0.47000000000E+01 0. -1.
         -5    1    4    4    0  502 -0.17493882554E+02 -0.39951360492E+01 -0.55461256198E+03  0.55492268015E+03  0.47000000000E+01 0. -1.
<mgrwt>
<rscale>  0 0.99961058E+03</rscale>
<asrwt>0</asrwt>
<pdfrwt beam="1">  1        2 0.63249290E+00 0.99961058E+03</pdfrwt>
<pdfrwt beam="2">  1       -2 0.93480134E-02 0.99961058E+03</pdfrwt>
<totfact> 0.20203319E+01</totfact>
</mgrwt>
</event>
<event>
 9    1  0.4307774E-036  0.9996602E+03  0.7818608E-02  0.8681362E-01
          2   -1    0    0  501    0  0.00000000000E+00  0.00000000000E+00  0.11833580077E+04  0.11833580077E+04  0.00000000000E+00 0. -1.
         -2   -1    0    0    0  501 -0.00000000000E+00 -0.00000000000E+00 -0.21111964659E+03  0.21111964659E+03  0.00000000000E+00 0. -1.
         36    2    1    2    0    0 -0.14210854715E-13  0.14210854715E-13  0.97223836108E+03  0.13944776543E+04  0.99966019102E+03 0.  0.
         25    2    3    3    0    0 -0.22029592833E+02  0.98530104255E+02  0.47240221401E+02  0.16715123263E+03  0.12455686110E+03 0.  0.
         35    2    3    3    0    0  0.22029592833E+02 -0.98530104255E+02  0.92499813968E+03  0.12273264216E+04  0.80032187427E+03 0.  0.
         22    1    5    5    0    0  0.32859388101E+03  0.17892310915E+03  0.30809651075E+03  0.48467605425E+03  0.00000000000E+00 0. -1.
         22    1    5    5    0    0 -0.30656428817E+03 -0.27745321340E+03  0.61690162893E+03  0.74265036739E+03  0.00000000000E+00 0. -1.
          5    1    4    4  502    0 -0.48212724780E+01  0.33463387529E+02 -0.42732854319E+02  0.54692136651E+02  0.47000000000E+01 0.  1.
         -5    1    4    4    0  502 -0.17208320355E+02  0.65066716727E+02  0.89973075720E+02  0.11245909598E+03  0.47000000000E+01 0.  1.
<mgrwt>
<rscale>  0 0.99966019E+03</rscale>
<asrwt>0</asrwt>
<pdfrwt beam="1">  1        2 0.18205507E+00 0.99966019E+03</pdfrwt>
<pdfrwt beam="2">  1       -2 0.32479946E-01 0.99966019E+03</pdfrwt>
<totfact> 0.20621359E+02</totfact>
</mgrwt>
</event>
<event>
 9    1  0.4307774E-036  0.9996002E+03  0.7818608E-02  0.8681419E-01
          2   -1    0    0  501    0  0.00000000000E+00  0.00000000000E+00  0.22465139645E+04  0.22465139645E+04  0.00000000000E+00 0.  1.
         -2   -1    0    0    0  501 -0.00000000000E+00 -0.00000000000E+00 -0.11119457197E+03  0.11119457197E+03  0.00000000000E+00 0.  1.
         36    2    1    2    0    0 -0.24868995752E-13  0.00000000000E+00  0.21353193925E+04  0.23577085364E+04  0.99960023751E+03 0.  0.
         25    2    3    3    0    0 -0.20383753292E+02  0.96578949743E+01  0.73171417182E+03  0.74197109898E+03  0.12085822334E+03 0.  0.
         35    2    3    3    0    0  0.20383753292E+02 -0.96578949743E+01  0.14036052207E+04  0.16157374374E+04  0.79999442433E+03 0.  0.
         22    1    5    5    0    0 -0.34244441700E+03 -0.27454363875E+02  0.30770301979E+03  0.46119742976E+03  0.00000000000E+00 0.  1.
         22    1    5    5    0    0  0.36282817029E+03  0.17796468900E+02  0.10959022009E+04  0.11545400077E+04  0.00000000000E+00 0.  1.
          5    1    4    4  502    0  0.41989803891E+01 -0.33354610124E+02  0.64351056450E+02  0.72755136720E+02  0.47000000000E+01 0.  1.
         -5    1    4    4    0  502 -0.24582733681E+02  0.43012505098E+02  0.66736311537E+03  0.66921596226E+03  0.47000000000E+01 0.  1.
<mgrwt>
<rscale>  0 0.99960024E+03</rscale>
<asrwt>0</asrwt>
<pdfrwt beam="1">  1        2 0.34561750E+00 0.99960024E+03</pdfrwt>
<pdfrwt beam="2">  1       -2 0.17106859E-01 0.99960024E+03</pdfrwt>
<totfact> 0.15797892E+02</totfact>
</mgrwt>
</event>
<event>
 9    1  0.4307774E-036  0.1008432E+04  0.7818608E-02  0.8673050E-01
         -1   -1    0    0    0  501 -0.00000000000E+00  0.00000000000E+00  0.16304947954E+03  0.16304947954E+03  0.00000000000E+00 0.  1.
          1   -1    0    0  501    0  0.00000000000E+00 -0.00000000000E+00 -0.15592428266E+04  0.15592428266E+04  0.00000000000E+00 0.  1.
         36    2    1    2    0    0  0.00000000000E+00  0.00000000000E+00 -0.13961933471E+04  0.17222923062E+04  0.10084319141E+04 0.  0.
         25    2    3    3    0    0  0.93946939202E+02  0.97108939733E+02 -0.37735928566E+03  0.41978822331E+03  0.12476356999E+03 0.  0.
         35    2    3    3    0    0 -0.93946939202E+02 -0.97108939733E+02 -0.10188340615E+04  0.13025040829E+04  0.80014865343E+03 0.  0.
         22    1    5    5    0    0  0.24876796534E+03 -0.12012079792E+03 -0.58210023519E+02  0.28231704431E+03  0.00000000000E+00 0.  1.
         22    1    5    5    0    0 -0.34271490454E+03  0.23011858183E+02 -0.96062403793E+03  0.10201870386E+04  0.00000000000E+00 0.  1.
          5    1    4    4  502    0 -0.29795231805E+02  0.30338865278E+02 -0.76188123272E+02  0.87378044795E+02  0.47000000000E+01 0.  1.
         -5    1    4    4    0  502  0.12374217101E+03  0.66770074456E+02 -0.30117116238E+03  0.33241017851E+03  0.47000000000E+01 0.  1.
<mgrwt>
<rscale>  0 0.10084319E+04</rscale>
<asrwt>0</asrwt>
<pdfrwt beam="1">  1        1 0.23988352E+00 0.10084319E+04</pdfrwt>
<pdfrwt beam="2">  1       -1 0.25084535E-01 0.10084319E+04</pdfrwt>
<totfact> 0.89130382E+01</totfact>
</mgrwt>
</event>
<event>
 9    1  0.4307774E-036  0.1000800E+04  0.7818608E-02  0.8680276E-01
         -2   -1    0    0    0  501 -0.00000000000E+00  0.00000000000E+00  0.19661916736E+03  0.19661916736E+03  0.00000000000E+00 0. -1.
          2   -1    0    0  501    0  0.00000000000E+00 -0.00000000000E+00 -0.12735290425E+04  0.12735290425E+04  0.00000000000E+00 0. -1.
         36    2    1    2    0    0 -0.71054273576E-14  0.28421709430E-13 -0.10769098752E+04  0.14701482099E+04  0.10008001198E+04 0.  0.
         25    2    3    3    0    0  0.36744765723E+02 -0.12840771795E+03 -0.14040915358E+03  0.23063665099E+03  0.12505924410E+03 0.  0.
         35    2    3    3    0    0 -0.36744765723E+02  0.12840771795E+03 -0.93650072159E+03  0.12395115589E+04  0.80094730367E+03 0.  0.
         22    1    5    5    0    0 -0.17932795235E+03  0.21185811253E+03  0.10934212975E+02  0.27778036532E+03  0.00000000000E+00 0.  1.
         22    1    5    5    0    0  0.14258318663E+03 -0.83450394587E+02 -0.94743493457E+03  0.96173119358E+03  0.00000000000E+00 0.  1.
          5    1    4    4  502    0  0.31776756555E+02 -0.51524251842E+02 -0.14092429212E+03  0.15344789635E+03  0.47000000000E+01 0.  1.
         -5    1    4    4    0  502  0.49680091676E+01 -0.76883466104E+02  0.51513853815E+00  0.77188754641E+02  0.47000000000E+01 0.  1.
<mgrwt>
<rscale>  0 0.10008001E+04</rscale>
<asrwt>0</asrwt>
<pdfrwt beam="1">  1        2 0.19592755E+00 0.10008001E+04</pdfrwt>
<pdfrwt beam="2">  1       -2 0.30249103E-01 0.10008001E+04</pdfrwt>
<totfact> 0.20797798E+02</totfact>
</mgrwt>
</event>
<event>
 9    1  0.4307774E-036  0.1000281E+04  0.7818608E-02  0.8680771E-01
          2   -1    0    0  501    0  0.00000000000E+00  0.00000000000E+00  0.12240199888E+04  0.12240199888E+04  0.00000000000E+00 0. -1.
         -2   -1    0    0    0  501 -0.00000000000E+00 -0.00000000000E+00 -0.20435973224E+03  0.20435973224E+03  0.00000000000E+00 0. -1.
         36    2    1    2    0    0  0.56843418861E-13  0.21316282073E-13  0.10196602565E+04  0.14283797210E+04  0.10002807549E+04 0.  0.
         25    2    3    3    0    0 -0.13366674110E+03  0.29913562784E+01  0.30852310217E+03  0.35884422309E+03  0.12532727549E+03 0.  0.
         35    2    3    3    0    0  0.13366674110E+03 -0.29913562784E+01  0.71113715436E+03  0.10695354979E+04  0.78760039558E+03 0.  0.
         22    1    5    5    0    0 -0.13594916933E+03  0.29847139297E+03  0.11180857255E+03  0.34650902724E+03  0.00000000000E+00 0. -1.
         22    1    5    5    0    0  0.26961591043E+03 -0.30146274925E+03  0.59932858181E+03  0.72302647069E+03  0.00000000000E+00 0. -1.
          5    1    4    4  502    0 -0.10552147637E+03  0.43953466486E+02  0.27727296279E+03  0.29994845405E+03  0.47000000000E+01 0. -1.
         -5    1    4    4    0  502 -0.28145264735E+02 -0.40962110208E+02  0.31250139378E+02  0.58895769040E+02  0.47000000000E+01 0. -1.
<mgrwt>
<rscale>  0 0.10002808E+04</rscale>
<asrwt>0</asrwt>
<pdfrwt beam="1">  1        2 0.18831076E+00 0.10002808E+04</pdfrwt>
<pdfrwt beam="2">  1       -2 0.31439959E-01 0.10002808E+04</pdfrwt>
<totfact> 0.20715292E+02</totfact>
</mgrwt>
</event>
<event>
 9    1  0.4307774E-036  0.1001478E+04  0.7818608E-02  0.8679632E-01
         -2   -1    0    0    0  501 -0.00000000000E+00  0.00000000000E+00  0.15052105343E+04  0.15052105343E+04  0.00000000000E+00 0. -1.
          2   -1    0    0  501    0  0.00000000000E+00 -0.00000000000E+00 -0.16658103244E+03  0.16658103244E+03  0.00000000000E+00 0. -1.
         36    2    1    2    0    0  0.00000000000E+00  0.00000000000E+00  0.13386295019E+04  0.16717915668E+04  0.10014779575E+04 0.  0.
         25    2    3    3    0    0  0.66316785296E+02  0.84362663790E+02  0.40678858441E+03  0.43889381885E+03  0.12504341954E+03 0.  0.
         35    2    3    3    0    0 -0.66316785296E+02 -0.84362663790E+02  0.93184091750E+03  0.12328977479E+04  0.80012148219E+03 0.  0.
         22    1    5    5    0    0 -0.16563613182E+03 -0.80233575853E+02  0.10570919540E+04  0.10729940140E+04  0.00000000000E+00 0. -1.
         22    1    5    5    0    0  0.99319346520E+02 -0.41290879363E+01 -0.12525103654E+03  0.15990373390E+03  0.00000000000E+00 0. -1.
          5    1    4    4  502    0  0.28093177002E+02 -0.26070066995E+02  0.17572332503E+03  0.17991568011E+03  0.47000000000E+01 0.  1.
         -5    1    4    4    0  502  0.38223608293E+02  0.11043273078E+03  0.23106525937E+03  0.25897813875E+03  0.47000000000E+01 0.  1.
<mgrwt>
<rscale>  0 0.10014780E+04</rscale>
<asrwt>0</asrwt>
<pdfrwt beam="1">  1        2 0.25627852E-01 0.10014780E+04</pdfrwt>
<pdfrwt beam="2">  1       -2 0.23157084E+00 0.10014780E+04</pdfrwt>
<totfact> 0.19141591E+01</totfact>
</mgrwt>
</event>
<event>
 9    1  0.4307774E-036  0.9991448E+03  0.7818608E-02  0.8681853E-01
         -1   -1    0    0    0  501 -0.00000000000E+00  0.00000000000E+00  0.59657424765E+02  0.59657424765E+02  0.00000000000E+00 0. -1.
          1   -1    0    0  501    0  0.00000000000E+00 -0.00000000000E+00 -0.41834291164E+04  0.41834291164E+04  0.00000000000E+00 0. -1.
         36    2    1    2    0    0  0.00000000000E+00  0.00000000000E+00 -0.41237716917E+04  0.42430865412E+04  0.99914484991E+03 0.  0.
         25    2    3    3    0    0 -0.36358105465E+02 -0.38430167647E+02 -0.22306814098E+03  0.26087481506E+03  0.12448889104E+03 0.  0.
         35    2    3    3    0    0  0.36358105465E+02  0.38430167647E+02 -0.39007035507E+04  0.39822117261E+04  0.79982701369E+03 0.  0.
         22    1    5    5    0    0  0.10327922207E+03  0.20056612464E+03 -0.29078523573E+03  0.36803453830E+03  0.00000000000E+00 0. -1.
         22    1    5    5    0    0 -0.66921116604E+02 -0.16213595699E+03 -0.36099183150E+04  0.36141771878E+04  0.00000000000E+00 0. -1.
          5    1    4    4  502    0 -0.52444665612E+02  0.32815142340E+02 -0.10510785553E+03  0.12205338099E+03  0.47000000000E+01 0.  1.
         -5    1    4    4    0  502  0.16086560147E+02 -0.71245309987E+02 -0.11796028545E+03  0.13882143407E+03  0.47000000000E+01 0.  1.
<mgrwt>
<rscale>  0 0.99914485E+03</rscale>
<asrwt>0</asrwt>
<pdfrwt beam="1">  1        1 0.64360461E+00 0.99914485E+03</pdfrwt>
<pdfrwt beam="2">  1       -1 0.91780634E-02 0.99914485E+03</pdfrwt>
<totfact> 0.57486449E+00</totfact>
</mgrwt>
</event>
<event>
 9    1  0.4307774E-036  0.1000371E+04  0.7818608E-02  0.8680685E-01
         -1   -1    0    0    0  501 -0.00000000000E+00  0.00000000000E+00  0.90525174365E+02  0.90525174365E+02  0.00000000000E+00 0. -1.
          1   -1    0    0  501    0  0.00000000000E+00 -0.00000000000E+00 -0.27637115611E+04  0.27637115611E+04  0.00000000000E+00 0. -1.
         36    2    1    2    0    0  0.00000000000E+00 -0.28421709430E-13 -0.26731863867E+04  0.28542367354E+04  0.10003708731E+04 0.  0.
         25    2    3    3    0    0 -0.65065684753E+02  0.10261541211E+03 -0.70046744339E+03  0.72236780136E+03  0.12805129858E+03 0.  0.
         35    2    3    3    0    0  0.65065684753E+02 -0.10261541211E+03 -0.19727189433E+04  0.21318689341E+04  0.79905047187E+03 0.  0.
         22    1    5    5    0    0  0.28112298992E+03  0.26195295398E+03 -0.91430800056E+03  0.99177043989E+03  0.00000000000E+00 0. -1.
         22    1    5    5    0    0 -0.21605730517E+03 -0.36456836609E+03 -0.10584109428E+04  0.11400984942E+04  0.00000000000E+00 0. -1.
          5    1    4    4  502    0 -0.73259159732E+02  0.11070826101E+03 -0.69687289956E+03  0.70942029269E+03  0.47000000000E+01 0. -1.
         -5    1    4    4    0  502  0.81934749788E+01 -0.80928488973E+01 -0.35945438249E+01  0.12947508672E+02  0.47000000000E+01 0. -1.
<mgrwt>
<rscale>  0 0.10003709E+04</rscale>
<asrwt>0</asrwt>
<pdfrwt beam="1">  1        1 0.42518644E+00 0.10003709E+04</pdfrwt>
<pdfrwt beam="2">  1       -1 0.13926948E-01 0.10003709E+04</pdfrwt>
<totfact> 0.33359969E+01</totfact>
</mgrwt>
</event>
<event>
 9    1  0.4307774E-036  0.9999087E+03  0.7818608E-02  0.8681125E-01
         -2   -1    0    0    0  501 -0.00000000000E+00  0.00000000000E+00  0.45144527800E+03  0.45144527800E+03  0.00000000000E+00 0. -1.
          2   -1    0    0  501    0  0.00000000000E+00 -0.00000000000E+00 -0.55367590167E+03  0.55367590167E+03  0.00000000000E+00 0. -1.
         36    2    1    2    0    0 -0.71054273576E-14  0.35527136788E-14 -0.10223062367E+03  0.10051211797E+04  0.99990873853E+03 0.  0.
         25    2    3    3    0    0 -0.45481279459E+02  0.27825548213E+02  0.11050458476E+03  0.17561479018E+03  0.12564427310E+03 0.  0.
         35    2    3    3    0    0  0.45481279459E+02 -0.27825548213E+02 -0.21273520843E+03  0.82950638948E+03  0.79998860828E+03 0.  0.
         22    1    5    5    0    0  0.51336352284E+02 -0.32526940818E+03  0.14875614625E+03  0.36133640837E+03  0.00000000000E+00 0. -1.
         22    1    5    5    0    0 -0.58550728249E+01  0.29744385997E+03 -0.36149135468E+03  0.46816998111E+03  0.00000000000E+00 0. -1.
          5    1    4    4  502    0 -0.12888041597E+02  0.60080579070E+01  0.13048878129E+03  0.13134538598E+03  0.47000000000E+01 0.  1.
         -5    1    4    4    0  502 -0.32593237861E+02  0.21817490306E+02 -0.19984196528E+02  0.44269404202E+02  0.47000000000E+01 0.  1.
<mgrwt>
<rscale>  0 0.99990874E+03</rscale>
<asrwt>0</asrwt>
<pdfrwt beam="1">  1        2 0.85180907E-01 0.99990874E+03</pdfrwt>
<pdfrwt beam="2">  1       -2 0.69453120E-01 0.99990874E+03</pdfrwt>
<totfact> 0.12493087E+02</totfact>
</mgrwt>
</event>
<event>
 9    1  0.4307774E-036  0.9994181E+03  0.7818608E-02  0.8681592E-01
          2   -1    0    0  501    0  0.00000000000E+00  0.00000000000E+00  0.92610278634E+03  0.92610278634E+03  0.00000000000E+00 0. -1.
         -2   -1    0    0    0  501 -0.00000000000E+00 -0.00000000000E+00 -0.26963435701E+03  0.26963435701E+03  0.00000000000E+00 0. -1.
         36    2    1    2    0    0 -0.28421709430E-13  0.28421709430E-13  0.65646842933E+03  0.11957371434E+04  0.99941808933E+03 0.  0.
         25    2    3    3    0    0 -0.98083438561E+02  0.90322624766E+02  0.59567749538E+02  0.18878447488E+03  0.11963579610E+03 0.  0.
         35    2    3    3    0    0  0.98083438561E+02 -0.90322624766E+02  0.59690067979E+03  0.10069526685E+04  0.79992794521E+03 0.  0.
         22    1    5    5    0    0  0.92959053972E+02  0.34893870132E+03  0.35067714528E+03  0.50336275509E+03  0.00000000000E+00 0. -1.
         22    1    5    5    0    0  0.51243845894E+01 -0.43926132608E+03  0.24622353452E+03  0.50358991338E+03  0.00000000000E+00 0. -1.
          5    1    4    4  502    0 -0.41083056201E+02 -0.17223403190E+02 -0.13446348776E+02  0.46769193062E+02  0.47000000000E+01 0. -1.
         -5    1    4    4    0  502 -0.57000382361E+02  0.10754602796E+03  0.73014098314E+02  0.14201528182E+03  0.47000000000E+01 0. -1.
<mgrwt>
<rscale>  0 0.99941809E+03</rscale>
<asrwt>0</asrwt>
<pdfrwt beam="1">  1        2 0.14247735E+00 0.99941809E+03</pdfrwt>
<pdfrwt beam="2">  1       -2 0.41482209E-01 0.99941809E+03</pdfrwt>
<totfact> 0.18751788E+02</totfact>
</mgrwt>
</event>
<event>
 9    1  0.4307774E-036  0.1000958E+04  0.7818608E-02  0.8680126E-01
          2   -1    0    0  501    0  0.00000000000E+00  0.00000000000E+00  0.68454463561E+03  0.68454463561E+03  0.00000000000E+00 0.  1.
         -2   -1    0    0    0  501 -0.00000000000E+00 -0.00000000000E+00 -0.36590632392E+03  0.36590632392E+03  0.00000000000E+00 0.  1.
         36    2    1    2    0    0 -0.35527136788E-13  0.00000000000E+00  0.31863831168E+03  0.10504509595E+04  0.10009579635E+04 0.  0.
         25    2    3    3    0    0  0.16794763452E+02 -0.53613022304E+02  0.19698172509E+03  0.24043253147E+03  0.12589512275E+03 0.  0.
         35    2    3    3    0    0 -0.16794763452E+02  0.53613022304E+02  0.12165658660E+03  0.81001842806E+03  0.79885737681E+03 0.  0.
         22    1    5    5    0    0 -0.26192985020E+03 -0.27662453895E+03 -0.59352629036E+00  0.38095765414E+03  0.00000000000E+00 0.  1.
         22    1    5    5    0    0  0.24513508675E+03  0.33023756125E+03  0.12225011289E+03  0.42906077392E+03  0.00000000000E+00 0.  1.
          5    1    4    4  502    0 -0.35911818436E+02 -0.72895550431E+02  0.11095844794E+03  0.13761281606E+03  0.47000000000E+01 0.  1.
         -5    1    4    4    0  502  0.52706581888E+02  0.19282528127E+02  0.86023277147E+02  0.10281971541E+03  0.47000000000E+01 0.  1.
<mgrwt>
<rscale>  0 0.10009580E+04</rscale>
<asrwt>0</asrwt>
<pdfrwt beam="1">  1        2 0.10531456E+00 0.10009580E+04</pdfrwt>
<pdfrwt beam="2">  1       -2 0.56293281E-01 0.10009580E+04</pdfrwt>
<totfact> 0.15106436E+02</totfact>
</mgrwt>
</event>
<event>
 9    1  0.4307774E-036  0.1003492E+04  0.7818608E-02  0.8677720E-01
          1   -1    0    0  501    0  0.00000000000E+00  0.00000000000E+00  0.36331188444E+03  0.36331188444E+03  0.00000000000E+00 0. -1.
         -1   -1    0    0    0  501 -0.00000000000E+00 -0.00000000000E+00 -0.69292798259E+03  0.69292798259E+03  0.00000000000E+00 0. -1.
         36    2    1    2    0    0 -0.28421709430E-13  0.33750779949E-13 -0.32961609815E+03  0.10562398670E+04  0.10034918458E+04 0.  0.
         25    2    3    3    0    0  0.13384888551E+03  0.92238056070E+01 -0.90517753244E+01  0.18353650643E+03  0.12491241657E+03 0.  0.
         35    2    3    3    0    0 -0.13384888551E+03 -0.92238056070E+01 -0.32056432282E+03  0.87270336060E+03  0.80053049148E+03 0.  0.
         22    1    5    5    0    0 -0.23553448618E+03 -0.36426530833E+03 -0.10973119387E+03  0.44744457080E+03  0.00000000000E+00 0.  1.
         22    1    5    5    0    0  0.10168560066E+03  0.35504150272E+03 -0.21083312895E+03  0.42525878980E+03  0.00000000000E+00 0.  1.
          5    1    4    4  502    0  0.35920438879E+02 -0.10984255435E+01  0.55075959648E+02  0.65931296052E+02  0.47000000000E+01 0.  1.
         -5    1    4    4    0  502  0.97928446633E+02  0.10322231150E+02 -0.64127734973E+02  0.11760521038E+03  0.47000000000E+01 0.  1.
<mgrwt>
<rscale>  0 0.10034918E+04</rscale>
<asrwt>0</asrwt>
<pdfrwt beam="1">  1        1 0.55894136E-01 0.10034918E+04</pdfrwt>
<pdfrwt beam="2">  1       -1 0.10660430E+00 0.10034918E+04</pdfrwt>
<totfact> 0.67281931E+01</totfact>
</mgrwt>
</event>
<event>
 9    1  0.4307774E-036  0.9985765E+03  0.7818608E-02  0.8682395E-01
         -2   -1    0    0    0  501 -0.00000000000E+00  0.00000000000E+00  0.85007783746E+02  0.85007783746E+02  0.00000000000E+00 0. -1.
          2   -1    0    0  501    0  0.00000000000E+00 -0.00000000000E+00 -0.29325402945E+04  0.29325402945E+04  0.00000000000E+00 0. -1.
         36    2    1    2    0    0 -0.14210854715E-13  0.00000000000E+00 -0.28475325107E+04  0.30175480782E+04  0.99857648916E+03 0.  0.
         25    2    3    3    0    0 -0.60634104471E+02  0.12475757364E+03 -0.52508135702E+03  0.55738956255E+03  0.12542625779E+03 0.  0.
         35    2    3    3    0    0  0.60634104471E+02 -0.12475757364E+03 -0.23224511537E+04  0.24601585157E+04  0.79959965862E+03 0.  0.
         22    1    5    5    0    0 -0.33656049679E+03 -0.10808482968E+03 -0.15682677236E+04  0.16076128114E+04  0.00000000000E+00 0. -1.
         22    1    5    5    0    0  0.39719460126E+03 -0.16672743963E+02 -0.75418343010E+03  0.85254570428E+03  0.00000000000E+00 0. -1.
          5    1    4    4  502    0 -0.43424163179E+02  0.12434037472E+03 -0.25798104837E+03  0.28969380050E+03  0.47000000000E+01 0.  1.
         -5    1    4    4    0  502 -0.17209941293E+02  0.41719891953E+00 -0.26710030865E+03  0.26769576204E+03  0.47000000000E+01 0.  1.
<mgrwt>
<rscale>  0 0.99857649E+03</rscale>
<asrwt>0</asrwt>
<pdfrwt beam="1">  1        2 0.45116004E+00 0.99857649E+03</pdfrwt>
<pdfrwt beam="2">  1       -2 0.13078121E-01 0.99857649E+03</pdfrwt>
<totfact> 0.93227466E+01</totfact>
</mgrwt>
</event>
<event>
 9    1  0.4307774E-036  0.1000193E+04  0.7818608E-02  0.8680854E-01
          2   -1    0    0  501    0  0.00000000000E+00  0.00000000000E+00  0.36435943593E+04  0.36435943593E+04  0.00000000000E+00 0.  1.
         -2   -1    0    0    0  501 -0.00000000000E+00 -0.00000000000E+00 -0.68640023742E+02  0.68640023742E+02  0.00000000000E+00 0.  1.
         36    2    1    2    0    0  0.00000000000E+00 -0.14210854715E-13  0.35749543356E+04  0.37122343831E+04  0.10001927881E+04 0.  0.
         25    2    3    3    0    0 -0.31216688076E+02 -0.10042916302E+03  0.32565558397E+03  0.36429563973E+03  0.12489697897E+03 0.  0.
         35    2    3    3    0    0  0.31216688076E+02  0.10042916302E+03  0.32492987516E+04  0.33479387434E+04  0.79980682262E+03 0.  0.
         22    1    5    5    0    0  0.99424788937E+02  0.33171923631E+03  0.64139561218E+03  0.72891101770E+03  0.00000000000E+00 0.  1.
         22    1    5    5    0    0 -0.68208100861E+02 -0.23129007329E+03  0.26079031395E+04  0.26190277257E+04  0.00000000000E+00 0.  1.
          5    1    4    4  502    0 -0.71216929338E+02 -0.98963457706E+02  0.26091913828E+03  0.28803906629E+03  0.47000000000E+01 0. -1.
         -5    1    4    4    0  502  0.40000241261E+02 -0.14657053105E+01  0.64736445684E+02  0.76256573440E+02  0.47000000000E+01 0. -1.
<mgrwt>
<rscale>  0 0.10001928E+04</rscale>
<asrwt>0</asrwt>
<pdfrwt beam="1">  1        2 0.56055283E+00 0.10001928E+04</pdfrwt>
<pdfrwt beam="2">  1       -2 0.10560007E-01 0.10001928E+04</pdfrwt>
<totfact> 0.40925805E+01</totfact>
</mgrwt>
</event>
<event>
 9    1  0.4307774E-036  0.1000484E+04  0.7818608E-02  0.8680577E-01
         -2   -1    0    0    0  501 -0.00000000000E+00  0.00000000000E+00  0.86290527177E+03  0.86290527177E+03  0.00000000000E+00 0.  1.
          2   -1    0    0  501    0  0.00000000000E+00 -0.00000000000E+00 -0.28999961559E+03  0.28999961559E+03  0.00000000000E+00 0.  1.
         36    2    1    2    0    0  0.28421709430E-13  0.00000000000E+00  0.57290565618E+03  0.11529048874E+04  0.10004842769E+04 0.  0.
         25    2    3    3    0    0 -0.11049468993E+03 -0.66869682478E+02  0.17337706991E+03  0.25010047127E+03  0.12573784801E+03 0.  0.
         35    2    3    3    0    0  0.11049468993E+03  0.66869682478E+02  0.39952858626E+03  0.90280441608E+03  0.79921967663E+03 0.  0.
         22    1    5    5    0    0  0.34332648453E+03  0.31054420673E+02 -0.92816713067E+02  0.35700475382E+03  0.00000000000E+00 0. -1.
         22    1    5    5    0    0 -0.23283179460E+03  0.35815261805E+02  0.49234529933E+03  0.54579966227E+03  0.00000000000E+00 0. -1.
          5    1    4    4  502    0 -0.86017870154E+02 -0.42248204377E+02  0.18883060077E+03  0.21180904265E+03  0.47000000000E+01 0. -1.
         -5    1    4    4    0  502 -0.24476819776E+02 -0.24621478100E+02 -0.15453530860E+02  0.38291428626E+02  0.47000000000E+01 0. -1.
<mgrwt>
<rscale>  0 0.10004843E+04</rscale>
<asrwt>0</asrwt>
<pdfrwt beam="1">  1        2 0.44615326E-01 0.10004843E+04</pdfrwt>
<pdfrwt beam="2">  1       -2 0.13275466E+00 0.10004843E+04</pdfrwt>
<totfact> 0.54061399E+01</totfact>
</mgrwt>
</event>
<event>
 9    1  0.4307774E-036  0.9999890E+03  0.7818608E-02  0.8681048E-01
          2   -1    0    0  501    0  0.00000000000E+00  0.00000000000E+00  0.74729528344E+03  0.74729528344E+03  0.00000000000E+00 0. -1.
         -2   -1    0    0    0  501 -0.00000000000E+00 -0.00000000000E+00 -0.33453244020E+03  0.33453244020E+03  0.00000000000E+00 0. -1.
         36    2    1    2    0    0  0.28421709430E-13  0.10658141036E-13  0.41276284325E+03  0.10818277236E+04  0.99998902937E+03 0.  0.
         25    2    3    3    0    0  0.10296906263E+03 -0.30636701803E+02  0.17564822573E+03  0.24054710218E+03  0.12437593742E+03 0.  0.
         35    2    3    3    0    0 -0.10296906263E+03  0.30636701803E+02  0.23711461751E+03  0.84128062146E+03  0.79999281675E+03 0.  0.
         22    1    5    5    0    0 -0.33843192261E+03  0.19280231771E+03  0.35972204238E+03  0.53019698955E+03  0.00000000000E+00 0.  1.
         22    1    5    5    0    0  0.23546285997E+03 -0.16216561591E+03 -0.12260742487E+03  0.31108363191E+03  0.00000000000E+00 0.  1.
          5    1    4    4  502    0  0.13467235632E+02  0.12966532312E+02 -0.15657811267E+02  0.24834541458E+02  0.47000000000E+01 0.  1.
         -5    1    4    4    0  502  0.89501826998E+02 -0.43603234115E+02  0.19130603700E+03  0.21571256072E+03  0.47000000000E+01 0.  1.
<mgrwt>
<rscale>  0 0.99998903E+03</rscale>
<asrwt>0</asrwt>
<pdfrwt beam="1">  1        2 0.11496850E+00 0.99998903E+03</pdfrwt>
<pdfrwt beam="2">  1       -2 0.51466530E-01 0.99998903E+03</pdfrwt>
<totfact> 0.16265078E+02</totfact>
</mgrwt>
</event>
<event>
 9    1  0.4307774E-036  0.1002161E+04  0.7818608E-02  0.8678983E-01
          1   -1    0    0  501    0  0.00000000000E+00  0.00000000000E+00  0.14289625466E+04  0.14289625466E+04  0.00000000000E+00 0. -1.
         -1   -1    0    0    0  501 -0.00000000000E+00 -0.00000000000E+00 -0.17570893322E+03  0.17570893322E+03  0.00000000000E+00 0. -1.
         36    2    1    2    0    0 -0.26645352591E-13  0.14210854715E-13  0.12532536134E+04  0.16046714798E+04  0.10021606352E+04 0.  0.
         25    2    3    3    0    0  0.36814157817E+01 -0.29382665918E+02  0.44663492672E+03  0.46676044441E+03  0.13230895975E+03 0.  0.
         35    2    3    3    0    0 -0.36814157817E+01  0.29382665918E+02  0.80661868667E+03  0.11379110354E+04  0.80207912635E+03 0.  0.
         22    1    5    5    0    0  0.33834566326E+03  0.13099535110E+03  0.65798895574E+03  0.75139006896E+03  0.00000000000E+00 0. -1.
         22    1    5    5    0    0 -0.34202707904E+03 -0.10161268519E+03  0.14862973094E+03  0.38652096645E+03  0.00000000000E+00 0. -1.
          5    1    4    4  502    0  0.13175323602E+02 -0.42343675130E+02  0.44776747387E+03  0.44998264037E+03  0.47000000000E+01 0. -1.
         -5    1    4    4    0  502 -0.94939078206E+01  0.12961009212E+02 -0.11325471575E+01  0.16777804045E+02  0.47000000000E+01 0. -1.
<mgrwt>
<rscale>  0 0.10021606E+04</rscale>
<asrwt>0</asrwt>
<pdfrwt beam="1">  1        1 0.21984038E+00 0.10021606E+04</pdfrwt>
<pdfrwt beam="2">  1       -1 0.27032145E-01 0.10021606E+04</pdfrwt>
<totfact> 0.97351077E+01</totfact>
</mgrwt>
</event>
<event>
 9    1  0.4307774E-036  0.1000099E+04  0.7818608E-02  0.8680943E-01
          2   -1    0    0  501    0  0.00000000000E+00  0.00000000000E+00  0.51181348412E+03  0.51181348412E+03  0.00000000000E+00 0. -1.
         -2   -1    0    0    0  501 -0.00000000000E+00 -0.00000000000E+00 -0.48855629445E+03  0.48855629445E+03  0.00000000000E+00 0. -1.
         36    2    1    2    0    0  0.00000000000E+00  0.00000000000E+00  0.23257189670E+02  0.10003697786E+04  0.10000993936E+04 0.  0.
         25    2    3    3    0    0  0.10866056039E+03 -0.88303953020E+02  0.67080160684E+01  0.18817401419E+03  0.12553786933E+03 0.  0.
         35    2    3    3    0    0 -0.10866056039E+03  0.88303953020E+02  0.16549173602E+02  0.81219576437E+03  0.79986460043E+03 0.  0.
         22    1    5    5    0    0  0.16667778758E+03 -0.25125865717E+03 -0.15927176972E+03  0.34099837875E+03  0.00000000000E+00 0. -1.
         22    1    5    5    0    0 -0.27533834797E+03  0.33956261019E+03  0.17582094333E+03  0.47119738562E+03  0.00000000000E+00 0. -1.
          5    1    4    4  502    0 -0.19752629809E+01 -0.86097992374E+01 -0.42101639599E+02  0.43274338396E+02  0.47000000000E+01 0. -1.
         -5    1    4    4    0  502  0.11063582337E+03 -0.79694153782E+02  0.48809655667E+02  0.14489967580E+03  0.47000000000E+01 0. -1.
<mgrwt>
<rscale>  0 0.10000994E+04</rscale>
<asrwt>0</asrwt>
<pdfrwt beam="1">  1        2 0.78740536E-01 0.10000994E+04</pdfrwt>
<pdfrwt beam="2">  1       -2 0.75162507E-01 0.10000994E+04</pdfrwt>
<totfact> 0.11503427E+02</totfact>
</mgrwt>
</event>
<event>
 9    1  0.4307774E-036  0.9991421E+03  0.7818608E-02  0.8681855E-01
         -3   -1    0    0    0  501 -0.00000000000E+00  0.00000000000E+00  0.14441223609E+03  0.14441223609E+03  0.00000000000E+00 0. -1.
          3   -1    0    0  501    0  0.00000000000E+00 -0.00000000000E+00 -0.17281862088E+04  0.17281862088E+04  0.00000000000E+00 0. -1.
         36    2    1    2    0    0  0.28421709430E-13  0.14210854715E-13 -0.15837739727E+04  0.18725984449E+04  0.99914210157E+03 0.  0.
         25    2    3    3    0    0 -0.80616073970E+02  0.89899118490E+02 -0.16876561238E+03  0.24219093334E+03  0.12487519122E+03 0.  0.
         35    2    3    3    0    0  0.80616073970E+02 -0.89899118490E+02 -0.14150083603E+04  0.16304075115E+04  0.80087401694E+03 0.  0.
         22    1    5    5    0    0 -0.33607632021E+03 -0.17761363643E+02 -0.35506941081E+03  0.48922085558E+03  0.00000000000E+00 0.  1.
         22    1    5    5    0    0  0.41669239418E+03 -0.72137754848E+02 -0.10599389495E+04  0.11411866559E+04  0.00000000000E+00 0.  1.
          5    1    4    4  502    0  0.26717722686E+02  0.49403025838E+02 -0.37002789181E+02  0.67422489383E+02  0.47000000000E+01 0.  1.
         -5    1    4    4    0  502 -0.10733379666E+03  0.40496092653E+02 -0.13176282320E+03  0.17476844396E+03  0.47000000000E+01 0.  1.
<mgrwt>
<rscale>  0 0.99914210E+03</rscale>
<asrwt>0</asrwt>
<pdfrwt beam="1">  1        3 0.26587481E+00 0.99914210E+03</pdfrwt>
<pdfrwt beam="2">  1       -3 0.22217267E-01 0.99914210E+03</pdfrwt>
<totfact> 0.46481772E+00</totfact>
</mgrwt>
</event>
<event>
 9    1  0.4307774E-036  0.1000265E+04  0.7818608E-02  0.8680786E-01
          2   -1    0    0  501    0  0.00000000000E+00  0.00000000000E+00  0.48563204414E+04  0.48563204414E+04  0.00000000000E+00 0.  1.
         -2   -1    0    0    0  501 -0.00000000000E+00 -0.00000000000E+00 -0.51506572607E+02  0.51506572607E+02  0.00000000000E+00 0.  1.
         36    2    1    2    0    0  0.00000000000E+00  0.14210854715E-13  0.48048138687E+04  0.49078270140E+04  0.10002648078E+04 0.  0.
         25    2    3    3    0    0  0.98874778306E+02  0.18857047529E+01  0.14006204543E+04  0.14096597184E+04  0.12499234793E+03 0.  0.
         35    2    3    3    0    0 -0.98874778306E+02 -0.18857047529E+01  0.34041934144E+04  0.34981672955E+04  0.79928833784E+03 0.  0.
         22    1    5    5    0    0  0.42995501613E+02 -0.30232350599E+03  0.27250691999E+04  0.27421251356E+04  0.00000000000E+00 0. -1.
         22    1    5    5    0    0 -0.14187027992E+03  0.30043780123E+03  0.67912421458E+03  0.75604215991E+03  0.00000000000E+00 0. -1.
          5    1    4    4  502    0  0.21198371520E+02  0.57961621131E+02  0.45588509468E+03  0.46006763636E+03  0.47000000000E+01 0.  1.
         -5    1    4    4    0  502  0.77676406786E+02 -0.56075916378E+02  0.94473535964E+03  0.94959208206E+03  0.47000000000E+01 0.  1.
<mgrwt>
<rscale>  0 0.10002648E+04</rscale>
<asrwt>0</asrwt>
<pdfrwt beam="1">  1        2 0.74712586E+00 0.10002648E+04</pdfrwt>
<pdfrwt beam="2">  1       -2 0.79240919E-02 0.10002648E+04</pdfrwt>
<totfact> 0.43899246E+00</totfact>
</mgrwt>
</event>
<event>
 9    1  0.4307774E-036  0.9993935E+03  0.7818608E-02  0.8681616E-01
         -2   -1    0    0    0  501 -0.00000000000E+00  0.00000000000E+00  0.42170171107E+03  0.42170171107E+03  0.00000000000E+00 0. -1.
          2   -1    0    0  501    0  0.00000000000E+00 -0.00000000000E+00 -0.59211721915E+03  0.59211721915E+03  0.00000000000E+00 0. -1.
         36    2    1    2    0    0  0.14210854715E-13  0.00000000000E+00 -0.17041550808E+03  0.10138189302E+04  0.99939350501E+03 0.  0.
         25    2    3    3    0    0  0.10261714389E+03  0.14503935649E+02 -0.12103544322E+03  0.20350593754E+03  0.12658769975E+03 0.  0.
         35    2    3    3    0    0 -0.10261714389E+03 -0.14503935649E+02 -0.49380064860E+02  0.81031299268E+03  0.80213970911E+03 0.  0.
         22    1    5    5    0    0 -0.17610443592E+03 -0.12498949327E+01  0.35649724239E+03  0.39762371461E+03  0.00000000000E+00 0.  1.
         22    1    5    5    0    0  0.73487292031E+02 -0.13254040717E+02 -0.40587730725E+03  0.41268927807E+03  0.00000000000E+00 0.  1.
          5    1    4    4  502    0 -0.25124262104E+02 -0.17724113293E+02 -0.30651533506E+02  0.43668973478E+02  0.47000000000E+01 0.  1.
         -5    1    4    4    0  502  0.12774140599E+03  0.32228048942E+02 -0.90383909715E+02  0.15983696406E+03  0.47000000000E+01 0.  1.
<mgrwt>
<rscale>  0 0.99939351E+03</rscale>
<asrwt>0</asrwt>
<pdfrwt beam="1">  1        2 0.91094956E-01 0.99939351E+03</pdfrwt>
<pdfrwt beam="2">  1       -2 0.64877187E-01 0.99939351E+03</pdfrwt>
<totfact> 0.13365924E+02</totfact>
</mgrwt>
</event>
<event>
 9    1  0.4307774E-036  0.9996343E+03  0.7818608E-02  0.8681386E-01
          2   -1    0    0  501    0  0.00000000000E+00  0.00000000000E+00  0.49588575277E+03  0.49588575277E+03  0.00000000000E+00 0.  1.
         -2   -1    0    0    0  501 -0.00000000000E+00 -0.00000000000E+00 -0.50377973833E+03  0.50377973833E+03  0.00000000000E+00 0.  1.
         36    2    1    2    0    0 -0.71054273576E-14  0.00000000000E+00 -0.78939855649E+01  0.99966549110E+03  0.99963432269E+03 0.  0.
         25    2    3    3    0    0  0.18626784093E+02  0.13683436523E+03 -0.41648876845E+01  0.18766624961E+03  0.12700659180E+03 0.  0.
         35    2    3    3    0    0 -0.18626784093E+02 -0.13683436523E+03 -0.37290978804E+01  0.81199924149E+03  0.80016139711E+03 0.  0.
         22    1    5    5    0    0 -0.93782998594E+02  0.25126787858E+03 -0.23277372589E+03  0.35512590035E+03  0.00000000000E+00 0. -1.
         22    1    5    5    0    0  0.75156214501E+02 -0.38810224381E+03  0.22904462801E+03  0.45687334114E+03  0.00000000000E+00 0. -1.
          5    1    4    4  502    0  0.22752798073E+02 -0.13829776631E+02  0.21701641493E+02  0.34669926237E+02  0.47000000000E+01 0.  1.
         -5    1    4    4    0  502 -0.41260139797E+01  0.15066414186E+03 -0.25866529178E+02  0.15299632337E+03  0.47000000000E+01 0.  1.
<mgrwt>
<rscale>  0 0.99963432E+03</rscale>
<asrwt>0</asrwt>
<pdfrwt beam="1">  1        2 0.76290116E-01 0.99963432E+03</pdfrwt>
<pdfrwt beam="2">  1       -2 0.77504575E-01 0.99963432E+03</pdfrwt>
<totfact> 0.11134817E+02</totfact>
</mgrwt>
</event>
<event>
 9    1  0.4307774E-036  0.1000141E+04  0.7818608E-02  0.8680903E-01
         -2   -1    0    0    0  501 -0.00000000000E+00  0.00000000000E+00  0.25889434635E+03  0.25889434635E+03  0.00000000000E+00 0.  1.
          2   -1    0    0  501    0  0.00000000000E+00 -0.00000000000E+00 -0.96591759959E+03  0.96591759959E+03  0.00000000000E+00 0.  1.
         36    2    1    2    0    0 -0.14210854715E-13  0.00000000000E+00 -0.70702325324E+03  0.12248119459E+04  0.10001412012E+04 0.  0.
         25    2    3    3    0    0 -0.72198103485E+02 -0.80255379423E+02 -0.24686405307E+03  0.29688902045E+03  0.12469056779E+03 0.  0.
         35    2    3    3    0    0  0.72198103485E+02  0.80255379423E+02 -0.46015920017E+03  0.92792292549E+03  0.79852424765E+03 0.  0.
         22    1    5    5    0    0 -0.24792149279E+02 -0.61665559415E+02  0.21821319476E+03  0.22811025898E+03  0.00000000000E+00 0. -1.
         22    1    5    5    0    0  0.96990252765E+02  0.14192093884E+03 -0.67837239493E+03  0.69981266651E+03  0.00000000000E+00 0. -1.
          5    1    4    4  502    0 -0.42077485151E+02 -0.37731964817E+02 -0.23694204713E+03  0.24363464373E+03  0.47000000000E+01 0. -1.
         -5    1    4    4    0  502 -0.30120618335E+02 -0.42523414605E+02 -0.99220059338E+01  0.53254376725E+02  0.47000000000E+01 0. -1.
<mgrwt>
<rscale>  0 0.10001412E+04</rscale>
<asrwt>0</asrwt>
<pdfrwt beam="1">  1        2 0.14860271E+00 0.10001412E+04</pdfrwt>
<pdfrwt beam="2">  1       -2 0.39829899E-01 0.10001412E+04</pdfrwt>
<totfact> 0.19112144E+02</totfact>
</mgrwt>
</event>
<event>
 9    1  0.4307774E-036  0.1000892E+04  0.7818608E-02  0.8680189E-01
         -1   -1    0    0    0  501 -0.00000000000E+00  0.00000000000E+00  0.95148777566E+03  0.95148777566E+03  0.00000000000E+00 0.  1.
          1   -1    0    0  501    0  0.00000000000E+00 -0.00000000000E+00 -0.26321535743E+03  0.26321535743E+03  0.00000000000E+00 0.  1.
         36    2    1    2    0    0  0.00000000000E+00  0.14210854715E-13  0.68827241823E+03  0.12147031331E+04  0.10008919921E+04 0.  0.
         25    2    3    3    0    0 -0.16199536346E+02  0.10609438380E+03  0.24563178190E+03  0.29478311488E+03  0.12265263669E+03 0.  0.
         35    2    3    3    0    0  0.16199536346E+02 -0.10609438380E+03  0.44264063633E+03  0.91992001822E+03  0.79925194009E+03 0.  0.
         22    1    5    5    0    0  0.93771318391E+01  0.30644461102E+03  0.40165356462E+03  0.50529379196E+03  0.00000000000E+00 0.  1.
         22    1    5    5    0    0  0.68224045065E+01 -0.41253899482E+03  0.40987071717E+02  0.41462622626E+03  0.00000000000E+00 0.  1.
          5    1    4    4  502    0 -0.34395678338E+02  0.47702299908E+02  0.22090091803E+03  0.22864356036E+03  0.47000000000E+01 0. -1.
         -5    1    4    4    0  502  0.18196141993E+02  0.58392083893E+02  0.24730863864E+02  0.66139554521E+02  0.47000000000E+01 0. -1.
<mgrwt>
<rscale>  0 0.10008920E+04</rscale>
<asrwt>0</asrwt>
<pdfrwt beam="1">  1        1 0.40494671E-01 0.10008920E+04</pdfrwt>
<pdfrwt beam="2">  1       -1 0.14638273E+00 0.10008920E+04</pdfrwt>
<totfact> 0.45713667E+01</totfact>
</mgrwt>
</event>
<event>
 9    1  0.4307774E-036  0.1000644E+04  0.7818608E-02  0.8680425E-01
          2   -1    0    0  501    0  0.00000000000E+00  0.00000000000E+00  0.26203792659E+04  0.26203792659E+04  0.00000000000E+00 0.  1.
         -2   -1    0    0    0  501 -0.00000000000E+00 -0.00000000000E+00 -0.95528867559E+02  0.95528867559E+02  0.00000000000E+00 0.  1.
         36    2    1    2    0    0  0.14210854715E-13  0.00000000000E+00  0.25248503984E+04  0.27159081335E+04  0.10006435206E+04 0.  0.
         25    2    3    3    0    0 -0.79971388567E+02 -0.68331692414E+02  0.21856687775E+03  0.27253090555E+03  0.12424560859E+03 0.  0.
         35    2    3    3    0    0  0.79971388567E+02  0.68331692414E+02  0.23062835206E+04  0.24433772280E+04  0.80005247162E+03 0.  0.
         22    1    5    5    0    0  0.12181953513E+03  0.29944275044E+03  0.21175209689E+04  0.21420553246E+04  0.00000000000E+00 0. -1.
         22    1    5    5    0    0 -0.41848146567E+02 -0.23111105802E+03  0.18876255178E+03  0.30132190340E+03  0.00000000000E+00 0. -1.
          5    1    4    4  502    0 -0.21399228971E+02 -0.33443257380E+02  0.19678611932E+03  0.20080648700E+03  0.47000000000E+01 0. -1.
         -5    1    4    4    0  502 -0.58572159596E+02 -0.34888435035E+02  0.21780758435E+02  0.71724418553E+02  0.47000000000E+01 0. -1.
<mgrwt>
<rscale>  0 0.10006435E+04</rscale>
<asrwt>0</asrwt>
<pdfrwt beam="1">  1        2 0.40313522E+00 0.10006435E+04</pdfrwt>
<pdfrwt beam="2">  1       -2 0.14696751E-01 0.10006435E+04</pdfrwt>
<totfact> 0.12152173E+02</totfact>
</mgrwt>
</event>
<event>
 9    1  0.4307774E-036  0.1000284E+04  0.7818608E-02  0.8680767E-01
          2   -1    0    0  501    0  0.00000000000E+00  0.00000000000E+00  0.25751651176E+03  0.25751651176E+03  0.00000000000E+00 0.  1.
         -2   -1    0    0    0  501 -0.00000000000E+00 -0.00000000000E+00 -0.97136336850E+03  0.97136336850E+03  0.00000000000E+00 0.  1.
         36    2    1    2    0    0  0.35527136788E-14 -0.71054273576E-14 -0.71384685673E+03  0.12288798803E+04  0.10002841722E+04 0.  0.
         25    2    3    3    0    0  0.25338539276E+02  0.22777343373E+02 -0.29312187290E+03  0.32160978388E+03  0.12787326450E+03 0.  0.
         35    2    3    3    0    0 -0.25338539276E+02 -0.22777343373E+02 -0.42072498383E+03  0.90727009638E+03  0.80309941278E+03 0.  0.
         22    1    5    5    0    0 -0.32965515306E+02 -0.41147787977E+03 -0.25053533413E+03  0.48287547503E+03  0.00000000000E+00 0.  1.
         22    1    5    5    0    0  0.76269760297E+01  0.38870053640E+03 -0.17018964971E+03  0.42439462135E+03  0.00000000000E+00 0.  1.
          5    1    4    4  502    0  0.52348251314E+01  0.60550559272E+02 -0.63636546230E+02  0.88121924845E+02  0.47000000000E+01 0. -1.
         -5    1    4    4    0  502  0.20103714145E+02 -0.37773215899E+02 -0.22948532667E+03  0.23348785904E+03  0.47000000000E+01 0. -1.
<mgrwt>
<rscale>  0 0.10002842E+04</rscale>
<asrwt>0</asrwt>
<pdfrwt beam="1">  1        2 0.39617924E-01 0.10002842E+04</pdfrwt>
<pdfrwt beam="2">  1       -2 0.14944052E+00 0.10002842E+04</pdfrwt>
<totfact> 0.44637423E+01</totfact>
</mgrwt>
</event>
<event>
 9    1  0.4307774E-036  0.1000030E+04  0.7818608E-02  0.8681010E-01
         -2   -1    0    0    0  501 -0.00000000000E+00  0.00000000000E+00  0.70267014675E+03  0.70267014675E+03  0.00000000000E+00 0.  1.
          2   -1    0    0  501    0  0.00000000000E+00 -0.00000000000E+00 -0.35580683395E+03  0.35580683395E+03  0.00000000000E+00 0.  1.
         36    2    1    2    0    0 -0.14210854715E-13 -0.14210854715E-13  0.34686331280E+03  0.10584769807E+04  0.10000296800E+04 0.  0.
         25    2    3    3    0    0  0.22376864544E+02  0.94472123089E+01 -0.76358418364E+02  0.14817705140E+03  0.12464291645E+03 0.  0.
         35    2    3    3    0    0 -0.22376864544E+02 -0.94472123089E+01  0.42322173116E+03  0.91029992929E+03  0.80556772133E+03 0.  0.
         22    1    5    5    0    0 -0.19882029937E+03 -0.15075200888E+03 -0.15206294954E+03  0.29219654386E+03  0.00000000000E+00 0.  1.
         22    1    5    5    0    0  0.17644343482E+03  0.14130479657E+03  0.57528468070E+03  0.61810338543E+03  0.00000000000E+00 0.  1.
          5    1    4    4  502    0 -0.31918146768E+02 -0.40939474130E+02 -0.24242179707E+02  0.57485493058E+02  0.47000000000E+01 0.  1.
         -5    1    4    4    0  502  0.54295011312E+02  0.50386686439E+02 -0.52116238657E+02  0.90691558347E+02  0.47000000000E+01 0.  1.
<mgrwt>
<rscale>  0 0.10000297E+04</rscale>
<asrwt>0</asrwt>
<pdfrwt beam="1">  1        2 0.54739513E-01 0.10000297E+04</pdfrwt>
<pdfrwt beam="2">  1       -2 0.10810310E+00 0.10000297E+04</pdfrwt>
<totfact> 0.73388807E+01</totfact>
</mgrwt>
</event>
<event>
 9    1  0.4307774E-036  0.1000147E+04  0.7818608E-02  0.8680898E-01
          1   -1    0    0  501    0  0.00000000000E+00  0.00000000000E+00  0.71550826142E+03  0.71550826142E+03  0.00000000000E+00 0. -1.
         -1   -1    0    0    0  501 -0.00000000000E+00 -0.00000000000E+00 -0.34950485019E+03  0.34950485019E+03  0.00000000000E+00 0. -1.
         36    2    1    2    0    0 -0.12434497876E-13 -0.14210854715E-13  0.36600341123E+03  0.10650131116E+04  0.10001472046E+04 0.  0.
         25    2    3    3    0    0  0.91069044855E+01  0.88905182149E+02 -0.45654898089E+02  0.15988409397E+03  0.12446480090E+03 0.  0.
         35    2    3    3    0    0 -0.91069044855E+01 -0.88905182149E+02  0.41165830932E+03  0.90512901764E+03  0.80112976965E+03 0.  0.
         22    1    5    5    0    0  0.31460841299E+03 -0.32850612604E+02 -0.68194059880E+02  0.32358622665E+03  0.00000000000E+00 0. -1.
         22    1    5    5    0    0 -0.32371531748E+03 -0.56054569545E+02  0.47985236919E+03  0.58154279099E+03  0.00000000000E+00 0. -1.
          5    1    4    4  502    0  0.35140862934E+01 -0.30310962658E+02 -0.22544914123E+02  0.38229130419E+02  0.47000000000E+01 0. -1.
         -5    1    4    4    0  502  0.55928181921E+01  0.11921614481E+03 -0.23109983966E+02  0.12165496355E+03  0.47000000000E+01 0. -1.
<mgrwt>
<rscale>  0 0.10001472E+04</rscale>
<asrwt>0</asrwt>
<pdfrwt beam="1">  1        1 0.11007819E+00 0.10001472E+04</pdfrwt>
<pdfrwt beam="2">  1       -1 0.53769977E-01 0.10001472E+04</pdfrwt>
<totfact> 0.10561829E+02</totfact>
</mgrwt>
</event>
<event>
 9    1  0.4307774E-036  0.1000304E+04  0.7818608E-02  0.8680749E-01
          1   -1    0    0  501    0  0.00000000000E+00  0.00000000000E+00  0.57599055117E+03  0.57599055117E+03  0.00000000000E+00 0.  1.
         -1   -1    0    0    0  501 -0.00000000000E+00 -0.00000000000E+00 -0.43429843109E+03  0.43429843109E+03  0.00000000000E+00 0.  1.
         36    2    1    2    0    0 -0.28421709430E-13 -0.14210854715E-13  0.14169212007E+03  0.10102889823E+04  0.10003035393E+04 0.  0.
         25    2    3    3    0    0 -0.13344486653E+03  0.40741942185E+02  0.32458862061E+02  0.19036380831E+03  0.12536890975E+03 0.  0.
         35    2    3    3    0    0  0.13344486653E+03 -0.40741942185E+02  0.10923325801E+03  0.81992517395E+03  0.80054852943E+03 0.  0.
         22    1    5    5    0    0 -0.12723778043E+03 -0.36242637983E+03  0.12957024407E+03  0.40537733251E+03  0.00000000000E+00 0.  1.
         22    1    5    5    0    0  0.26068264696E+03  0.32168443764E+03 -0.20336986060E+02  0.41454784145E+03  0.00000000000E+00 0.  1.
          5    1    4    4  502    0 -0.14841703540E+03  0.29183634629E+02 -0.13517311808E+01  0.15133809205E+03  0.47000000000E+01 0. -1.
         -5    1    4    4    0  502  0.14972168873E+02  0.11558307556E+02  0.33810593242E+02  0.39025716261E+02  0.47000000000E+01 0. -1.
<mgrwt>
<rscale>  0 0.10003035E+04</rscale>
<asrwt>0</asrwt>
<pdfrwt beam="1">  1        1 0.88613931E-01 0.10003035E+04</pdfrwt>
<pdfrwt beam="2">  1       -1 0.66815143E-01 0.10003035E+04</pdfrwt>
<totfact> 0.96260369E+01</totfact>
</mgrwt>
</event>
<event>
 9    1  0.4307774E-036  0.1000894E+04  0.7818608E-02  0.8680187E-01
         -1   -1    0    0    0  501 -0.00000000000E+00  0.00000000000E+00  0.18467435380E+03  0.18467435380E+03  0.00000000000E+00 0. -1.
          1   -1    0    0  501    0  0.00000000000E+00 -0.00000000000E+00 -0.13561553100E+04  0.13561553100E+04  0.00000000000E+00 0. -1.
         36    2    1    2    0    0 -0.14210854715E-13  0.14210854715E-13 -0.11714809562E+04  0.15408296638E+04  0.10008938116E+04 0.  0.
         25    2    3    3    0    0  0.65639063474E+02  0.68982990765E+02 -0.39469283872E+03  0.42196945421E+03  0.11492886359E+03 0.  0.
         35    2    3    3    0    0 -0.65639063474E+02 -0.68982990765E+02 -0.77678811748E+03  0.11188602096E+04  0.79961318739E+03 0.  0.
         22    1    5    5    0    0 -0.18076117206E+03  0.30700924713E+03 -0.57615976686E+03  0.67741372594E+03  0.00000000000E+00 0. -1.
         22    1    5    5    0    0  0.11512210858E+03 -0.37599223790E+03 -0.20062835063E+03  0.44144648364E+03  0.00000000000E+00 0. -1.
          5    1    4    4  502    0  0.89526076347E+02  0.16776599319E+02 -0.22584632137E+03  0.24356728743E+03  0.47000000000E+01 0.  1.
         -5    1    4    4    0  502 -0.23887012873E+02  0.52206391446E+02 -0.16884651735E+03  0.17840216678E+03  0.47000000000E+01 0.  1.
<mgrwt>
<rscale>  0 0.10008938E+04</rscale>
<asrwt>0</asrwt>
<pdfrwt beam="1">  1        1 0.20863928E+00 0.10008938E+04</pdfrwt>
<pdfrwt beam="2">  1       -1 0.28411439E-01 0.10008938E+04</pdfrwt>
<totfact> 0.10095796E+02</totfact>
</mgrwt>
</event>
<event>
 9    1  0.4307774E-036  0.1003885E+04  0.7818608E-02  0.8677347E-01
         -2   -1    0    0    0  501 -0.00000000000E+00  0.00000000000E+00  0.46147831650E+03  0.46147831650E+03  0.00000000000E+00 0. -1.
          2   -1    0    0  501    0  0.00000000000E+00 -0.00000000000E+00 -0.54595445863E+03  0.54595445863E+03  0.00000000000E+00 0. -1.
         36    2    1    2    0    0  0.28421709430E-13  0.00000000000E+00 -0.84476142130E+02  0.10074327751E+04  0.10038847433E+04 0.  0.
         25    2    3    3    0    0 -0.10601826623E+03 -0.94533959570E+02  0.15509347833E+02  0.18980691493E+03  0.12493831597E+03 0.  0.
         35    2    3    3    0    0  0.10601826623E+03  0.94533959570E+02 -0.99985489963E+02  0.81762586021E+03  0.79896082932E+03 0.  0.
         22    1    5    5    0    0  0.38095751764E+03  0.29111366420E+01  0.17398744298E+03  0.41881826044E+03  0.00000000000E+00 0. -1.
         22    1    5    5    0    0 -0.27493925141E+03  0.91622822928E+02 -0.27397293294E+03  0.39880759977E+03  0.00000000000E+00 0. -1.
          5    1    4    4  502    0 -0.47999792404E+02 -0.98557038606E+02  0.51544670251E+02  0.12122876293E+03  0.47000000000E+01 0. -1.
         -5    1    4    4    0  502 -0.58018473824E+02  0.40230790361E+01 -0.36035322418E+02  0.68578151999E+02  0.47000000000E+01 0. -1.
<mgrwt>
<rscale>  0 0.10038847E+04</rscale>
<asrwt>0</asrwt>
<pdfrwt beam="1">  1        2 0.83992994E-01 0.10038847E+04</pdfrwt>
<pdfrwt beam="2">  1       -2 0.70996664E-01 0.10038847E+04</pdfrwt>
<totfact> 0.12104557E+02</totfact>
</mgrwt>
</event>
<event>
 9    1  0.4307774E-036  0.1000346E+04  0.7818608E-02  0.8680708E-01
         -2   -1    0    0    0  501 -0.00000000000E+00  0.00000000000E+00  0.10925132149E+03  0.10925132149E+03  0.00000000000E+00 0. -1.
          2   -1    0    0  501    0  0.00000000000E+00 -0.00000000000E+00 -0.22898879075E+04  0.22898879075E+04  0.00000000000E+00 0. -1.
         36    2    1    2    0    0  0.00000000000E+00  0.71054273576E-14 -0.21806365860E+04  0.23991392290E+04  0.10003464999E+04 0.  0.
         25    2    3    3    0    0 -0.75767493942E+02 -0.27668317861E+02 -0.13643620041E+03  0.20229230517E+03  0.12570239058E+03 0.  0.
         35    2    3    3    0    0  0.75767493942E+02  0.27668317861E+02 -0.20442003856E+04  0.21968469238E+04  0.80054665151E+03 0.  0.
         22    1    5    5    0    0  0.10650439754E+03 -0.35646275947E+03 -0.13768262182E+04  0.14262045157E+04  0.00000000000E+00 0. -1.
         22    1    5    5    0    0 -0.30736903594E+02  0.38413107734E+03 -0.66737416740E+03  0.77064240808E+03  0.00000000000E+00 0. -1.
          5    1    4    4  502    0 -0.65926317211E+02 -0.17333662814E+01 -0.32815267385E+01  0.66197751301E+02  0.47000000000E+01 0.  1.
         -5    1    4    4    0  502 -0.98411767315E+01 -0.25934951580E+02 -0.13315467367E+03  0.13609455387E+03  0.47000000000E+01 0.  1.
<mgrwt>
<rscale>  0 0.10003465E+04</rscale>
<asrwt>0</asrwt>
<pdfrwt beam="1">  1        2 0.35229044E+00 0.10003465E+04</pdfrwt>
<pdfrwt beam="2">  1       -2 0.16807896E-01 0.10003465E+04</pdfrwt>
<totfact> 0.15350975E+02</totfact>
</mgrwt>
</event>
<event>
 9    1  0.4307774E-036  0.1001133E+04  0.7818608E-02  0.8679960E-01
         -2   -1    0    0    0  501 -0.00000000000E+00  0.00000000000E+00  0.15248104801E+03  0.15248104801E+03  0.00000000000E+00 0.  1.
          2   -1    0    0  501    0  0.00000000000E+00 -0.00000000000E+00 -0.16432651683E+04  0.16432651683E+04  0.00000000000E+00 0.  1.
         36    2    1    2    0    0  0.00000000000E+00  0.00000000000E+00 -0.14907841203E+04  0.17957462163E+04  0.10011329483E+04 0.  0.
         25    2    3    3    0    0  0.39451472228E+02  0.48777252540E+02 -0.51844467043E+02  0.14827649841E+03  0.12394527902E+03 0.  0.
         35    2    3    3    0    0 -0.39451472228E+02 -0.48777252540E+02 -0.14389396532E+04  0.16474697179E+04  0.79979591564E+03 0.  0.
         22    1    5    5    0    0  0.21044736619E+03  0.14997256007E+02 -0.13621217892E+04  0.13783645310E+04  0.00000000000E+00 0. -1.
         22    1    5    5    0    0 -0.24989883842E+03 -0.63774508548E+02 -0.76817864016E+02  0.26910518690E+03  0.00000000000E+00 0. -1.
          5    1    4    4  502    0  0.72814080981E+02  0.54373139933E+02 -0.64839285966E+02  0.11173429080E+03  0.47000000000E+01 0.  1.
         -5    1    4    4    0  502 -0.33362608753E+02 -0.55958873922E+01  0.12994818923E+02  0.36542207615E+02  0.47000000000E+01 0.  1.
<mgrwt>
<rscale>  0 0.10011329E+04</rscale>
<asrwt>0</asrwt>
<pdfrwt beam="1">  1        2 0.25281002E+00 0.10011329E+04</pdfrwt>
<pdfrwt beam="2">  1       -2 0.23458624E-01 0.10011329E+04</pdfrwt>
<totfact> 0.20188615E+02</totfact>
</mgrwt>
</event>
<event>
 9    1  0.4307774E-036  0.9973212E+03  0.7818608E-02  0.8683593E-01
          1   -1    0    0  501    0  0.00000000000E+00  0.00000000000E+00  0.55512821694E+03  0.55512821694E+03  0.00000000000E+00 0.  1.
         -1   -1    0    0    0  501 -0.00000000000E+00 -0.00000000000E+00 -0.44793683429E+03  0.44793683429E+03  0.00000000000E+00 0.  1.
         36    2    1    2    0    0  0.28421709430E-13  0.71054273576E-14  0.10719138265E+03  0.10030650512E+04  0.99732116416E+03 0.  0.
         25    2    3    3    0    0 -0.13308380222E+03  0.39242879028E+02  0.69720674871E+01  0.18769146851E+03  0.12620687642E+03 0.  0.
         35    2    3    3    0    0  0.13308380222E+03 -0.39242879028E+02  0.10021931517E+03  0.81537358272E+03  0.79720691561E+03 0.  0.
         22    1    5    5    0    0 -0.64195835300E+02 -0.39242642280E+03  0.10320012630E+03  0.41081610077E+03  0.00000000000E+00 0. -1.
         22    1    5    5    0    0  0.19727963752E+03  0.35318354377E+03 -0.29808111373E+01  0.40455748196E+03  0.00000000000E+00 0. -1.
          5    1    4    4  502    0 -0.27541449871E+02  0.32527687213E+02 -0.51293552420E+02  0.66855818118E+02  0.47000000000E+01 0.  1.
         -5    1    4    4    0  502 -0.10554235235E+03  0.67151918155E+01  0.58265619907E+02  0.12083565039E+03  0.47000000000E+01 0.  1.
<mgrwt>
<rscale>  0 0.99732116E+03</rscale>
<asrwt>0</asrwt>
<pdfrwt beam="1">  1        1 0.85404342E-01 0.99732116E+03</pdfrwt>
<pdfrwt beam="2">  1       -1 0.68913359E-01 0.99732116E+03</pdfrwt>
<totfact> 0.95521729E+01</totfact>
</mgrwt>
</event>
<event>
 9    1  0.4307774E-036  0.1000946E+04  0.7818608E-02  0.8680138E-01
          2   -1    0    0  501    0  0.00000000000E+00  0.00000000000E+00  0.30647661667E+04  0.30647661667E+04  0.00000000000E+00 0. -1.
         -2   -1    0    0    0  501 -0.00000000000E+00 -0.00000000000E+00 -0.81726643828E+02  0.81726643828E+02  0.00000000000E+00 0. -1.
         36    2    1    2    0    0 -0.14210854715E-13  0.71054273576E-14  0.29830395228E+04  0.31464928105E+04  0.10009456587E+04 0.  0.
         25    2    3    3    0    0  0.80406058123E+02  0.14011403761E+02  0.92845688811E+03  0.94029562776E+03  0.12434717881E+03 0.  0.
         35    2    3    3    0    0 -0.80406058123E+02 -0.14011403761E+02  0.20545826347E+04  0.22061971827E+04  0.79958411226E+03 0.  0.
         22    1    5    5    0    0 -0.16547084516E+03  0.32911553419E+03  0.55943079427E+03  0.66982120675E+03  0.00000000000E+00 0.  1.
         22    1    5    5    0    0  0.85064787036E+02 -0.34312693795E+03  0.14951518405E+04  0.15363759760E+04  0.00000000000E+00 0.  1.
          5    1    4    4  502    0  0.87619689408E+02 -0.18949997788E+02  0.85044499301E+03  0.85516962558E+03  0.47000000000E+01 0. -1.
         -5    1    4    4    0  502 -0.72136312847E+01  0.32961401549E+02  0.78011895106E+02  0.85126002175E+02  0.47000000000E+01 0. -1.
<mgrwt>
<rscale>  0 0.10009457E+04</rscale>
<asrwt>0</asrwt>
<pdfrwt beam="1">  1        2 0.47150240E+00 0.10009457E+04</pdfrwt>
<pdfrwt beam="2">  1       -2 0.12573332E-01 0.10009457E+04</pdfrwt>
<totfact> 0.81189496E+01</totfact>
</mgrwt>
</event>
<event>
 9    1  0.4307774E-036  0.1000952E+04  0.7818608E-02  0.8680132E-01
          2   -1    0    0  501    0  0.00000000000E+00  0.00000000000E+00  0.49214516220E+03  0.49214516220E+03  0.00000000000E+00 0. -1.
         -2   -1    0    0    0  501 -0.00000000000E+00 -0.00000000000E+00 -0.50894763130E+03  0.50894763130E+03  0.00000000000E+00 0. -1.
         36    2    1    2    0    0  0.00000000000E+00  0.28421709430E-13 -0.16802469097E+02  0.10010927935E+04  0.10009517762E+04 0.  0.
         25    2    3    3    0    0  0.69096855142E+02 -0.78546643172E+02  0.91018894087E+02  0.18679590569E+03  0.12515718420E+03 0.  0.
         35    2    3    3    0    0 -0.69096855142E+02  0.78546643172E+02 -0.10782136318E+03  0.81429688781E+03  0.80031870189E+03 0.  0.
         22    1    5    5    0    0  0.83141411207E+02 -0.34549370421E+03 -0.69873271400E+02  0.36216110774E+03  0.00000000000E+00 0. -1.
         22    1    5    5    0    0 -0.15223826635E+03  0.42404034738E+03 -0.37948091784E+02  0.45213578007E+03  0.00000000000E+00 0. -1.
          5    1    4    4  502    0  0.56629340748E+02  0.34488038224E+01 -0.80641208310E+01  0.57496926232E+02  0.47000000000E+01 0. -1.
         -5    1    4    4    0  502  0.12467514394E+02 -0.81995446994E+02  0.99083014918E+02  0.12929897946E+03  0.47000000000E+01 0. -1.
<mgrwt>
<rscale>  0 0.10009518E+04</rscale>
<asrwt>0</asrwt>
<pdfrwt beam="1">  1        2 0.75714640E-01 0.10009518E+04</pdfrwt>
<pdfrwt beam="2">  1       -2 0.78299636E-01 0.10009518E+04</pdfrwt>
<totfact> 0.10974497E+02</totfact>
</mgrwt>
</event>
<event>
 9    1  0.4307774E-036  0.1001497E+04  0.7818608E-02  0.8679614E-01
          2   -1    0    0  501    0  0.00000000000E+00  0.00000000000E+00  0.24237482327E+04  0.24237482327E+04  0.00000000000E+00 0. -1.
         -2   -1    0    0    0  501 -0.00000000000E+00 -0.00000000000E+00 -0.10345502429E+03  0.10345502429E+03  0.00000000000E+00 0. -1.
         36    2    1    2    0    0  0.00000000000E+00 -0.17763568394E-13  0.23202932084E+04  0.25272032570E+04  0.10014967444E+04 0.  0.
         25    2    3    3    0    0 -0.72900245178E+02 -0.69237993458E+01  0.12875044791E+03  0.19290275702E+03  0.12358159688E+03 0.  0.
         35    2    3    3    0    0  0.72900245178E+02  0.69237993458E+01  0.21915427605E+04  0.23343005000E+04  0.80046034771E+03 0.  0.
         22    1    5    5    0    0  0.10555996087E+03 -0.17999311602E+03  0.95142642165E+02  0.22933065541E+03  0.00000000000E+00 0.  1.
         22    1    5    5    0    0 -0.32659715693E+02  0.18691691537E+03  0.20964001184E+04  0.21049698446E+04  0.00000000000E+00 0.  1.
          5    1    4    4  502    0 -0.43459624084E+02  0.25122207835E+02  0.13907505851E+03  0.14793182941E+03  0.47000000000E+01 0. -1.
         -5    1    4    4    0  502 -0.29440621095E+02 -0.32046007181E+02 -0.10324610603E+02  0.44970927617E+02  0.47000000000E+01 0.  1.
<mgrwt>
<rscale>  0 0.10014967E+04</rscale>
<asrwt>0</asrwt>
<pdfrwt beam="1">  1        2 0.37288430E+00 0.10014967E+04</pdfrwt>
<pdfrwt beam="2">  1       -2 0.15916159E-01 0.10014967E+04</pdfrwt>
<totfact> 0.14015107E+02</totfact>
</mgrwt>
</event>
<event>
 9    1  0.4307774E-036  0.1000517E+04  0.7818608E-02  0.8680546E-01
         -1   -1    0    0    0  501 -0.00000000000E+00  0.00000000000E+00  0.30850506587E+03  0.30850506587E+03  0.00000000000E+00 0. -1.
          1   -1    0    0  501    0  0.00000000000E+00 -0.00000000000E+00 -0.81119724337E+03  0.81119724337E+03  0.00000000000E+00 0. -1.
         36    2    1    2    0    0  0.00000000000E+00  0.00000000000E+00 -0.50269217750E+03  0.11197023092E+04  0.10005167845E+04 0.  0.
         25    2    3    3    0    0  0.10081865911E+03 -0.74801299463E+02 -0.25617927249E+02  0.17972535628E+03  0.12603685599E+03 0.  0.
         35    2    3    3    0    0 -0.10081865911E+03  0.74801299463E+02 -0.47707425025E+03  0.93997695295E+03  0.80012323764E+03 0.  0.
         22    1    5    5    0    0 -0.43064795651E+02  0.33248165525E+02  0.22643481232E+03  0.23287924202E+03  0.00000000000E+00 0.  1.
         22    1    5    5    0    0 -0.57753863460E+02  0.41553133938E+02 -0.70350906257E+03  0.70709771093E+03  0.00000000000E+00 0.  1.
          5    1    4    4  502    0  0.46118851496E+02 -0.27479824888E+02 -0.74757856298E+02  0.92157019903E+02  0.47000000000E+01 0. -1.
         -5    1    4    4    0  502  0.54699807615E+02 -0.47321474575E+02  0.49139929049E+02  0.87568336377E+02  0.47000000000E+01 0. -1.
<mgrwt>
<rscale>  0 0.10005168E+04</rscale>
<asrwt>0</asrwt>
<pdfrwt beam="1">  1        1 0.12479958E+00 0.10005168E+04</pdfrwt>
<pdfrwt beam="2">  1       -1 0.47462318E-01 0.10005168E+04</pdfrwt>
<totfact> 0.10897640E+02</totfact>
</mgrwt>
</event>
<event>
 9    1  0.4307774E-036  0.9997878E+03  0.7818608E-02  0.8681240E-01
         -2   -1    0    0    0  501 -0.00000000000E+00  0.00000000000E+00  0.33787637874E+03  0.33787637874E+03  0.00000000000E+00 0.  1.
          2   -1    0    0  501    0  0.00000000000E+00 -0.00000000000E+00 -0.73960154236E+03  0.73960154236E+03  0.00000000000E+00 0.  1.
         36    2    1    2    0    0  0.14210854715E-13  0.14210854715E-13 -0.40172516362E+03  0.10774779211E+04  0.99978775917E+03 0.  0.
         25    2    3    3    0    0 -0.92882839630E+02  0.95989085684E+02 -0.12110252305E+03  0.21937814161E+03  0.12497928413E+03 0.  0.
         35    2    3    3    0    0  0.92882839630E+02 -0.95989085684E+02 -0.28062264057E+03  0.85809977949E+03  0.79984063331E+03 0.  0.
         22    1    5    5    0    0  0.43526318548E+03 -0.44160810973E+02 -0.26493570671E+03  0.51146372946E+03  0.00000000000E+00 0.  1.
         22    1    5    5    0    0 -0.34238034585E+03 -0.51828274711E+02 -0.15686933861E+02  0.34663605003E+03  0.00000000000E+00 0.  1.
          5    1    4    4  502    0 -0.10867265515E+03  0.11433163815E+03 -0.99186873347E+02  0.18639097431E+03  0.47000000000E+01 0. -1.
         -5    1    4    4    0  502  0.15789815524E+02 -0.18342552462E+02 -0.21915649700E+02  0.32987167306E+02  0.47000000000E+01 0. -1.
<mgrwt>
<rscale>  0 0.99978776E+03</rscale>
<asrwt>0</asrwt>
<pdfrwt beam="1">  1        2 0.11378485E+00 0.99978776E+03</pdfrwt>
<pdfrwt beam="2">  1       -2 0.51980982E-01 0.99978776E+03</pdfrwt>
<totfact> 0.16150518E+02</totfact>
</mgrwt>
</event>
<event>
 9    1  0.4307774E-036  0.9855753E+03  0.7818608E-02  0.8694897E-01
         -1   -1    0    0    0  501 -0.00000000000E+00  0.00000000000E+00  0.16275432719E+03  0.16275432719E+03  0.00000000000E+00 0.  1.
          1   -1    0    0  501    0  0.00000000000E+00 -0.00000000000E+00 -0.14920627462E+04  0.14920627462E+04  0.00000000000E+00 0.  1.
         36    2    1    2    0    0 -0.28421709430E-13 -0.28421709430E-13 -0.13293084190E+04  0.16548170734E+04  0.98557530082E+03 0.  0.
         25    2    3    3    0    0 -0.10646001880E+03 -0.35624707756E+02 -0.32075588833E+03  0.36223178805E+03  0.12539805809E+03 0.  0.
         35    2    3    3    0    0  0.10646001880E+03  0.35624707756E+02 -0.10085525307E+04  0.12925852854E+04  0.80062204402E+03 0.  0.
         22    1    5    5    0    0  0.29413690975E+03 -0.23085065342E+03 -0.85317333896E+03  0.93151129471E+03  0.00000000000E+00 0.  1.
         22    1    5    5    0    0 -0.18767689095E+03  0.26647536117E+03 -0.15537919175E+03  0.36107399067E+03  0.00000000000E+00 0.  1.
          5    1    4    4  502    0 -0.78670049801E+02 -0.57540461515E+02 -0.10421792688E+03  0.14277026206E+03  0.47000000000E+01 0. -1.
         -5    1    4    4    0  502 -0.27789968995E+02  0.21915753759E+02 -0.21653796145E+03  0.21946152598E+03  0.47000000000E+01 0. -1.
<mgrwt>
<rscale>  0 0.98557530E+03</rscale>
<asrwt>0</asrwt>
<pdfrwt beam="1">  1        1 0.22954811E+00 0.98557530E+03</pdfrwt>
<pdfrwt beam="2">  1       -1 0.25039128E-01 0.98557530E+03</pdfrwt>
<totfact> 0.99977707E+01</totfact>
</mgrwt>
</event>
<event>
 9    1  0.4307774E-036  0.1000339E+04  0.7818608E-02  0.8680715E-01
         -2   -1    0    0    0  501 -0.00000000000E+00  0.00000000000E+00  0.18093493228E+03  0.18093493228E+03  0.00000000000E+00 0.  1.
          2   -1    0    0  501    0  0.00000000000E+00 -0.00000000000E+00 -0.13826496622E+04  0.13826496622E+04  0.00000000000E+00 0.  1.
         36    2    1    2    0    0  0.00000000000E+00  0.00000000000E+00 -0.12017147299E+04  0.15635845945E+04  0.10003391885E+04 0.  0.
         25    2    3    3    0    0 -0.22125317159E+02 -0.13307227173E+03 -0.29296718414E+03  0.34529177228E+03  0.12328372907E+03 0.  0.
         35    2    3    3    0    0  0.22125317159E+02  0.13307227173E+03 -0.90874754579E+03  0.12182928222E+04  0.80013595066E+03 0.  0.
         22    1    5    5    0    0  0.68090806949E+02  0.47311679099E+02  0.14125487751E+03  0.16379161575E+03  0.00000000000E+00 0. -1.
         22    1    5    5    0    0 -0.45965489790E+02  0.85760592632E+02 -0.10500024233E+04  0.10545012065E+04  0.00000000000E+00 0. -1.
          5    1    4    4  502    0  0.46670027224E+02 -0.22279866996E+02 -0.92842454943E+02  0.10637807741E+03  0.47000000000E+01 0.  1.
         -5    1    4    4    0  502 -0.68795344383E+02 -0.11079240473E+03 -0.20012472920E+03  0.23891369486E+03  0.47000000000E+01 0.  1.
<mgrwt>
<rscale>  0 0.10003392E+04</rscale>
<asrwt>0</asrwt>
<pdfrwt beam="1">  1        2 0.21271534E+00 0.10003392E+04</pdfrwt>
<pdfrwt beam="2">  1       -2 0.27836143E-01 0.10003392E+04</pdfrwt>
<totfact> 0.20916751E+02</totfact>
</mgrwt>
</event>
<event>
 9    1  0.4307774E-036  0.9999574E+03  0.7818608E-02  0.8681079E-01
         -1   -1    0    0    0  501 -0.00000000000E+00  0.00000000000E+00  0.16438983108E+03  0.16438983108E+03  0.00000000000E+00 0.  1.
          1   -1    0    0  501    0  0.00000000000E+00 -0.00000000000E+00 -0.15206457103E+04  0.15206457103E+04  0.00000000000E+00 0.  1.
         36    2    1    2    0    0 -0.14210854715E-13 -0.14210854715E-13 -0.13562558793E+04  0.16850355414E+04  0.99995738201E+03 0.  0.
         25    2    3    3    0    0 -0.25213640061E+02 -0.11261364838E+03 -0.39566695779E+03  0.43141028235E+03  0.12745559534E+03 0.  0.
         35    2    3    3    0    0  0.25213640061E+02  0.11261364838E+03 -0.96058892147E+03  0.12536252591E+04  0.79719988252E+03 0.  0.
         22    1    5    5    0    0  0.30034476687E+03  0.28279120662E+02 -0.59214038128E+02  0.30742965043E+03  0.00000000000E+00 0. -1.
         22    1    5    5    0    0 -0.27513112681E+03  0.84334527720E+02 -0.90137488335E+03  0.94619560865E+03  0.00000000000E+00 0. -1.
          5    1    4    4  502    0  0.29239682844E+02 -0.94395260323E+02 -0.15452447316E+03  0.18348113535E+03  0.47000000000E+01 0. -1.
         -5    1    4    4    0  502 -0.54453322905E+02 -0.18218388058E+02 -0.24114248462E+03  0.24792914699E+03  0.47000000000E+01 0. -1.
<mgrwt>
<rscale>  0 0.99995738E+03</rscale>
<asrwt>0</asrwt>
<pdfrwt beam="1">  1        1 0.23394550E+00 0.99995738E+03</pdfrwt>
<pdfrwt beam="2">  1       -1 0.25290743E-01 0.99995738E+03</pdfrwt>
<totfact> 0.93705638E+01</totfact>
</mgrwt>
</event>
<event>
 9    1  0.4307774E-036  0.9995504E+03  0.7818608E-02  0.8681466E-01
          2   -1    0    0  501    0  0.00000000000E+00  0.00000000000E+00  0.44146142803E+04  0.44146142803E+04  0.00000000000E+00 0. -1.
         -2   -1    0    0    0  501 -0.00000000000E+00 -0.00000000000E+00 -0.56579182287E+02  0.56579182287E+02  0.00000000000E+00 0. -1.
         36    2    1    2    0    0 -0.35527136788E-13  0.00000000000E+00  0.43580350980E+04  0.44711934626E+04  0.99955043113E+03 0.  0.
         25    2    3    3    0    0 -0.27940920710E+01 -0.30551661521E+02  0.14608381240E+04  0.14654572524E+04  0.11214153098E+03 0.  0.
         35    2    3    3    0    0  0.27940920710E+01  0.30551661521E+02  0.28971969740E+04  0.30057362102E+04  0.79984914097E+03 0.  0.
         22    1    5    5    0    0  0.37527698012E+03  0.23047866381E+02  0.92207428734E+03  0.99578361472E+03  0.00000000000E+00 0.  1.
         22    1    5    5    0    0 -0.37248288805E+03  0.75037951395E+01  0.19751226866E+04  0.20099525955E+04  0.00000000000E+00 0.  1.
          5    1    4    4  502    0 -0.55047469928E+02 -0.25763096083E+02  0.62694663939E+03  0.62990327806E+03  0.47000000000E+01 0. -1.
         -5    1    4    4    0  502  0.52253377857E+02 -0.47885654379E+01  0.83389148465E+03  0.83555397434E+03  0.47000000000E+01 0. -1.
<mgrwt>
<rscale>  0 0.99955043E+03</rscale>
<asrwt>0</asrwt>
<pdfrwt beam="1">  1        2 0.67917116E+00 0.99955043E+03</pdfrwt>
<pdfrwt beam="2">  1       -2 0.87044930E-02 0.99955043E+03</pdfrwt>
<totfact> 0.11646816E+01</totfact>
</mgrwt>
</event>
<event>
 9    1  0.4307774E-036  0.1000262E+04  0.7818608E-02  0.8680788E-01
          1   -1    0    0  501    0  0.00000000000E+00  0.00000000000E+00  0.14532162696E+04  0.14532162696E+04  0.00000000000E+00 0. -1.
         -1   -1    0    0    0  501 -0.00000000000E+00 -0.00000000000E+00 -0.17212236301E+03  0.17212236301E+03  0.00000000000E+00 0. -1.
         36    2    1    2    0    0  0.00000000000E+00  0.10658141036E-13  0.12810939066E+04  0.16253386327E+04  0.10002620023E+04 0.  0.
         25    2    3    3    0    0 -0.11302309498E+03 -0.17511705773E+02  0.33016166101E+03  0.37124405271E+03  0.12543741242E+03 0.  0.
         35    2    3    3    0    0  0.11302309498E+03  0.17511705773E+02  0.95093224564E+03  0.12540945799E+04  0.80956790934E+03 0.  0.
         22    1    5    5    0    0  0.16059288650E+03  0.23827148688E+03  0.98469122665E+03  0.10257583480E+04  0.00000000000E+00 0. -1.
         22    1    5    5    0    0 -0.47569791520E+02 -0.22075978111E+03 -0.33758981015E+02  0.22833623194E+03  0.00000000000E+00 0. -1.
          5    1    4    4  502    0 -0.12434204494E+03 -0.32793241875E+02  0.18849652184E+03  0.22823095670E+03  0.47000000000E+01 0.  1.
         -5    1    4    4    0  502  0.11318949956E+02  0.15281536103E+02  0.14166513916E+03  0.14301309600E+03  0.47000000000E+01 0.  1.
<mgrwt>
<rscale>  0 0.10002620E+04</rscale>
<asrwt>0</asrwt>
<pdfrwt beam="1">  1        1 0.22357173E+00 0.10002620E+04</pdfrwt>
<pdfrwt beam="2">  1       -1 0.26480364E-01 0.10002620E+04</pdfrwt>
<totfact> 0.96868319E+01</totfact>
</mgrwt>
</event>
<event>
 9    1  0.4307774E-036  0.9985662E+03  0.7818608E-02  0.8682405E-01
          2   -1    0    0  501    0  0.00000000000E+00  0.00000000000E+00  0.35198169191E+03  0.35198169191E+03  0.00000000000E+00 0.  1.
         -2   -1    0    0    0  501 -0.00000000000E+00 -0.00000000000E+00 -0.70822898987E+03  0.70822898987E+03  0.00000000000E+00 0.  1.
         36    2    1    2    0    0 -0.14210854715E-13 -0.14210854715E-13 -0.35624729796E+03  0.10602106818E+04  0.99856624841E+03 0.  0.
         25    2    3    3    0    0  0.11964098381E+03  0.69783839652E+02 -0.71438263723E+02  0.19984176060E+03  0.12509817934E+03 0.  0.
         35    2    3    3    0    0 -0.11964098381E+03 -0.69783839652E+02 -0.28480903424E+03  0.86036892118E+03  0.79995921475E+03 0.  0.
         22    1    5    5    0    0  0.19262438469E+03  0.41122699955E+02 -0.44917967967E+03  0.49046673145E+03  0.00000000000E+00 0.  1.
         22    1    5    5    0    0 -0.31226536849E+03 -0.11090653961E+03  0.16437064543E+03  0.36990218973E+03  0.00000000000E+00 0.  1.
          5    1    4    4  502    0  0.81836258005E+02  0.32244030371E+02  0.23241949630E+02  0.91099554562E+02  0.47000000000E+01 0.  1.
         -5    1    4    4    0  502  0.37804725801E+02  0.37539809281E+02 -0.94680213353E+02  0.10874220604E+03  0.47000000000E+01 0.  1.
<mgrwt>
<rscale>  0 0.99856625E+03</rscale>
<asrwt>0</asrwt>
<pdfrwt beam="1">  1        2 0.54151030E-01 0.99856625E+03</pdfrwt>
<pdfrwt beam="2">  1       -2 0.10895831E+00 0.99856625E+03</pdfrwt>
<totfact> 0.72833724E+01</totfact>
</mgrwt>
</event>
<event>
 9    1  0.4307774E-036  0.1000470E+04  0.7818608E-02  0.8680590E-01
          2   -1    0    0  501    0  0.00000000000E+00  0.00000000000E+00  0.36737312549E+04  0.36737312549E+04  0.00000000000E+00 0.  1.
         -2   -1    0    0    0  501 -0.00000000000E+00 -0.00000000000E+00 -0.68114710599E+02  0.68114710599E+02  0.00000000000E+00 0.  1.
         36    2    1    2    0    0  0.14210854715E-13 -0.71054273576E-14  0.36056165443E+04  0.37418459655E+04  0.10004701720E+04 0.  0.
         25    2    3    3    0    0  0.96408685722E+02  0.57606700754E+02  0.98926433237E+03  0.10035315936E+04  0.12577191004E+03 0.  0.
         35    2    3    3    0    0 -0.96408685722E+02 -0.57606700754E+02  0.26163522119E+04  0.27383143719E+04  0.80028340975E+03 0.  0.
         22    1    5    5    0    0  0.34131550669E+03  0.47357820306E+02  0.13863847343E+04  0.14285662987E+04  0.00000000000E+00 0. -1.
         22    1    5    5    0    0 -0.43772419241E+03 -0.10496452106E+03  0.12299674776E+04  0.13097480732E+04  0.00000000000E+00 0. -1.
          5    1    4    4  502    0  0.12303813397E+03  0.44617372167E+02  0.89707533795E+03  0.90658443857E+03  0.47000000000E+01 0.  1.
         -5    1    4    4    0  502 -0.26629448243E+02  0.12989328587E+02  0.92188994418E+02  0.96947155000E+02  0.47000000000E+01 0.  1.
<mgrwt>
<rscale>  0 0.10004702E+04</rscale>
<asrwt>0</asrwt>
<pdfrwt beam="1">  1        2 0.56518927E+00 0.10004702E+04</pdfrwt>
<pdfrwt beam="2">  1       -2 0.10479189E-01 0.10004702E+04</pdfrwt>
<totfact> 0.39231498E+01</totfact>
</mgrwt>
</event>
<event>
 9    1  0.4307774E-036  0.9999628E+03  0.7818608E-02  0.8681073E-01
         -3   -1    0    0    0  501 -0.00000000000E+00  0.00000000000E+00  0.46964528723E+03  0.46964528723E+03  0.00000000000E+00 0. -1.
          3   -1    0    0  501    0  0.00000000000E+00 -0.00000000000E+00 -0.53227704605E+03  0.53227704605E+03  0.00000000000E+00 0. -1.
         36    2    1    2    0    0  0.00000000000E+00 -0.14210854715E-13 -0.62631758827E+02  0.10019223333E+04  0.99996281167E+03 0.  0.
         25    2    3    3    0    0 -0.11919345869E+03  0.27379570891E+02  0.66249798652E+02  0.18265594716E+03  0.11839526053E+03 0.  0.
         35    2    3    3    0    0  0.11919345869E+03 -0.27379570891E+02 -0.12888155748E+03  0.81926638612E+03  0.79976886291E+03 0.  0.
         22    1    5    5    0    0  0.22149516546E+03  0.34343308519E+03 -0.14667650646E+03  0.43418934795E+03  0.00000000000E+00 0.  1.
         22    1    5    5    0    0 -0.10230170677E+03 -0.37081265608E+03  0.17794948984E+02  0.38507703817E+03  0.00000000000E+00 0.  1.
          5    1    4    4  502    0 -0.96533277391E+02  0.42630202932E+02  0.95470172099E+02  0.14238206210E+03  0.47000000000E+01 0. -1.
         -5    1    4    4    0  502 -0.22660181294E+02 -0.15250632041E+02 -0.29220373447E+02  0.40273885066E+02  0.47000000000E+01 0. -1.
<mgrwt>
<rscale>  0 0.99996281E+03</rscale>
<asrwt>0</asrwt>
<pdfrwt beam="1">  1        3 0.81888776E-01 0.99996281E+03</pdfrwt>
<pdfrwt beam="2">  1       -3 0.72253121E-01 0.99996281E+03</pdfrwt>
<totfact> 0.10124534E+01</totfact>
</mgrwt>
</event>
<event>
 9    1  0.4307774E-036  0.9993409E+03  0.7818608E-02  0.8681666E-01
          2   -1    0    0  501    0  0.00000000000E+00  0.00000000000E+00  0.30569339474E+04  0.30569339474E+04  0.00000000000E+00 0.  1.
         -2   -1    0    0    0  501 -0.00000000000E+00 -0.00000000000E+00 -0.81673528240E+02  0.81673528240E+02  0.00000000000E+00 0.  1.
         36    2    1    2    0    0  0.00000000000E+00  0.00000000000E+00  0.29752604192E+04  0.31386074756E+04  0.99934094499E+03 0.  0.
         25    2    3    3    0    0 -0.92357567641E+02  0.93396389250E+01  0.23010493905E+03  0.27778396435E+03  0.12489394988E+03 0.  0.
         35    2    3    3    0    0  0.92357567641E+02 -0.93396389250E+01  0.27451554801E+04  0.28608235113E+04  0.79988461895E+03 0.  0.
         22    1    5    5    0    0  0.19901060954E+03  0.28008549315E+03  0.22596415705E+04  0.22856143886E+04  0.00000000000E+00 0.  1.
         22    1    5    5    0    0 -0.10665304190E+03 -0.28942513207E+03  0.48551390962E+03  0.57520912272E+03  0.00000000000E+00 0.  1.
          5    1    4    4  502    0 -0.29424367716E+02 -0.32893322449E+02  0.18326679074E+03  0.18856450001E+03  0.47000000000E+01 0.  1.
         -5    1    4    4    0  502 -0.62933199926E+02  0.42232961374E+02  0.46838148317E+02  0.89219464340E+02  0.47000000000E+01 0.  1.
<mgrwt>
<rscale>  0 0.99934094E+03</rscale>
<asrwt>0</asrwt>
<pdfrwt beam="1">  1        2 0.47029744E+00 0.99934094E+03</pdfrwt>
<pdfrwt beam="2">  1       -2 0.12565161E-01 0.99934094E+03</pdfrwt>
<totfact> 0.82280469E+01</totfact>
</mgrwt>
</event>
<event>
 9    1  0.4307774E-036  0.1001158E+04  0.7818608E-02  0.8679936E-01
         -3   -1    0    0    0  501 -0.00000000000E+00  0.00000000000E+00  0.45876688072E+03  0.45876688072E+03  0.00000000000E+00 0.  1.
          3   -1    0    0  501    0  0.00000000000E+00 -0.00000000000E+00 -0.54620175788E+03  0.54620175788E+03  0.00000000000E+00 0.  1.
         36    2    1    2    0    0  0.28421709430E-13  0.28421709430E-13 -0.87434877157E+02  0.10049686386E+04  0.10011578831E+04 0.  0.
         25    2    3    3    0    0 -0.10533513756E+03 -0.88527952553E+02 -0.47633559162E+02  0.19224397205E+03  0.12552330160E+03 0.  0.
         35    2    3    3    0    0  0.10533513756E+03  0.88527952553E+02 -0.39801317995E+02  0.81272466654E+03  0.80000284319E+03 0.  0.
         22    1    5    5    0    0  0.39698107946E+03 -0.94394318696E+02 -0.17350898183E+03  0.44340684662E+03  0.00000000000E+00 0. -1.
         22    1    5    5    0    0 -0.29164594190E+03  0.18292227125E+03  0.13370766384E+03  0.36931781992E+03  0.00000000000E+00 0. -1.
          5    1    4    4  502    0 -0.12247304966E+03 -0.64925312916E+02 -0.30149568078E+01  0.13873040083E+03  0.47000000000E+01 0.  1.
         -5    1    4    4    0  502  0.17137912097E+02 -0.23602639637E+02 -0.44618602354E+02  0.53513571222E+02  0.47000000000E+01 0.  1.
<mgrwt>
<rscale>  0 0.10011579E+04</rscale>
<asrwt>0</asrwt>
<pdfrwt beam="1">  1        3 0.84031039E-01 0.10011579E+04</pdfrwt>
<pdfrwt beam="2">  1       -3 0.70579520E-01 0.10011579E+04</pdfrwt>
<totfact> 0.10085297E+01</totfact>
</mgrwt>
</event>
<event>
 9    1  0.4307774E-036  0.1000688E+04  0.7818608E-02  0.8680383E-01
         -1   -1    0    0    0  501 -0.00000000000E+00  0.00000000000E+00  0.44489516247E+03  0.44489516247E+03  0.00000000000E+00 0. -1.
          1   -1    0    0  501    0  0.00000000000E+00 -0.00000000000E+00 -0.56270317619E+03  0.56270317619E+03  0.00000000000E+00 0. -1.
         36    2    1    2    0    0  0.21316282073E-13  0.56843418861E-13 -0.11780801372E+03  0.10075983387E+04  0.10006876056E+04 0.  0.
         25    2    3    3    0    0 -0.61006383474E+02 -0.12492006665E+03 -0.46938332492E+02  0.19307362368E+03  0.12548870558E+03 0.  0.
         35    2    3    3    0    0  0.61006383474E+02  0.12492006665E+03 -0.70869681232E+02  0.81452471498E+03  0.79943805120E+03 0.  0.
         22    1    5    5    0    0  0.11517412408E+03 -0.27212450320E+03 -0.23891178689E+03  0.37999429735E+03  0.00000000000E+00 0. -1.
         22    1    5    5    0    0 -0.54167740602E+02  0.39704456985E+03  0.16804210566E+03  0.43453041763E+03  0.00000000000E+00 0. -1.
          5    1    4    4  502    0 -0.71657132337E+02 -0.70914266823E+02 -0.79916066064E+02  0.12873323374E+03  0.47000000000E+01 0. -1.
         -5    1    4    4    0  502  0.10650748863E+02 -0.54005799831E+02  0.32977733572E+02  0.64340389945E+02  0.47000000000E+01 0. -1.
<mgrwt>
<rscale>  0 0.10006876E+04</rscale>
<asrwt>0</asrwt>
<pdfrwt beam="1">  1        1 0.86569719E-01 0.10006876E+04</pdfrwt>
<pdfrwt beam="2">  1       -1 0.68445410E-01 0.10006876E+04</pdfrwt>
<totfact> 0.94929205E+01</totfact>
</mgrwt>
</event>
<event>
 9    1  0.4307774E-036  0.1000668E+04  0.7818608E-02  0.8680402E-01
         -2   -1    0    0    0  501 -0.00000000000E+00  0.00000000000E+00  0.19323304153E+03  0.19323304153E+03  0.00000000000E+00 0. -1.
          2   -1    0    0  501    0  0.00000000000E+00 -0.00000000000E+00 -0.12955041075E+04  0.12955041075E+04  0.00000000000E+00 0. -1.
         36    2    1    2    0    0  0.28421709430E-13  0.42632564146E-13 -0.11022710660E+04  0.14887371490E+04  0.10006681748E+04 0.  0.
         25    2    3    3    0    0  0.72261651136E+02 -0.32660493285E+02 -0.37943136084E+03  0.40706876661E+03  0.12429146839E+03 0.  0.
         35    2    3    3    0    0 -0.72261651136E+02  0.32660493285E+02 -0.72283970511E+03  0.10816683824E+04  0.80076263408E+03 0.  0.
         22    1    5    5    0    0 -0.68984652053E+02 -0.37591680433E+03 -0.44978740260E+03  0.59023811597E+03  0.00000000000E+00 0. -1.
         22    1    5    5    0    0 -0.32769990825E+01  0.40857729762E+03 -0.27305230251E+03  0.49143026642E+03  0.00000000000E+00 0. -1.
          5    1    4    4  502    0  0.98177711199E+02 -0.55182926964E+02 -0.28531213482E+03  0.30677210218E+03  0.47000000000E+01 0.  1.
         -5    1    4    4    0  502 -0.25916060064E+02  0.22522433679E+02 -0.94119226027E+02  0.10029666443E+03  0.47000000000E+01 0.  1.
<mgrwt>
<rscale>  0 0.10006682E+04</rscale>
<asrwt>0</asrwt>
<pdfrwt beam="1">  1        2 0.19930831E+00 0.10006682E+04</pdfrwt>
<pdfrwt beam="2">  1       -2 0.29728162E-01 0.10006682E+04</pdfrwt>
<totfact> 0.20844239E+02</totfact>
</mgrwt>
</event>
<event>
 9    1  0.4307774E-036  0.1000311E+04  0.7818608E-02  0.8680741E-01
         -2   -1    0    0    0  501 -0.00000000000E+00  0.00000000000E+00  0.56407133942E+03  0.56407133942E+03  0.00000000000E+00 0.  1.
          2   -1    0    0  501    0  0.00000000000E+00 -0.00000000000E+00 -0.44348243046E+03  0.44348243046E+03  0.00000000000E+00 0.  1.
         36    2    1    2    0    0 -0.28421709430E-13 -0.21316282073E-13  0.12058890896E+03  0.10075537699E+04  0.10003114086E+04 0.  0.
         25    2    3    3    0    0  0.10453229197E+03  0.13653089842E+02  0.11954650440E+03  0.20292939614E+03  0.12560082077E+03 0.  0.
         35    2    3    3    0    0 -0.10453229197E+03 -0.13653089842E+02  0.10424045630E+01  0.80462437374E+03  0.79768783950E+03 0.  0.
         22    1    5    5    0    0 -0.31239900137E+03 -0.26714292994E+03 -0.15786843161E+03  0.44031911470E+03  0.00000000000E+00 0. -1.
         22    1    5    5    0    0  0.20786670940E+03  0.25348984010E+03  0.15891083618E+03  0.36430525904E+03  0.00000000000E+00 0. -1.
          5    1    4    4  502    0  0.87760920444E+02 -0.47797679203E+02  0.75711037624E+02  0.12546253828E+03  0.47000000000E+01 0. -1.
         -5    1    4    4    0  502  0.16771371527E+02  0.61450769045E+02  0.43835466772E+02  0.77466857857E+02  0.47000000000E+01 0. -1.
<mgrwt>
<rscale>  0 0.10003114E+04</rscale>
<asrwt>0</asrwt>
<pdfrwt beam="1">  1        2 0.68228066E-01 0.10003114E+04</pdfrwt>
<pdfrwt beam="2">  1       -2 0.86780207E-01 0.10003114E+04</pdfrwt>
<totfact> 0.97331349E+01</totfact>
</mgrwt>
</event>
<event>
 9    1  0.4307774E-036  0.1000548E+04  0.7818608E-02  0.8680516E-01
          3   -1    0    0  501    0  0.00000000000E+00  0.00000000000E+00  0.23667332867E+03  0.23667332867E+03  0.00000000000E+00 0. -1.
         -3   -1    0    0    0  501 -0.00000000000E+00 -0.00000000000E+00 -0.10574662552E+04  0.10574662552E+04  0.00000000000E+00 0. -1.
         36    2    1    2    0    0 -0.71054273576E-14  0.00000000000E+00 -0.82079292649E+03  0.12941395838E+04  0.10005479670E+04 0.  0.
         25    2    3    3    0    0 -0.20058643917E+02  0.10596681270E+03 -0.36396859761E+02  0.16891888698E+03  0.12481003320E+03 0.  0.
         35    2    3    3    0    0  0.20058643917E+02 -0.10596681270E+03 -0.78439606673E+03  0.11252206969E+04  0.79950804408E+03 0.  0.
         22    1    5    5    0    0  0.10042113456E+03  0.32987830834E+03 -0.22585096009E+03  0.41220475343E+03  0.00000000000E+00 0.  1.
         22    1    5    5    0    0 -0.80362490641E+02 -0.43584512104E+03 -0.55854510663E+03  0.71301594343E+03  0.00000000000E+00 0.  1.
          5    1    4    4  502    0 -0.41160524649E+02  0.12445058587E+03 -0.45846998857E+02  0.13894666033E+03  0.47000000000E+01 0. -1.
         -5    1    4    4    0  502  0.21101880732E+02 -0.18483773171E+02  0.94501390962E+01  0.29972226644E+02  0.47000000000E+01 0. -1.
<mgrwt>
<rscale>  0 0.10005480E+04</rscale>
<asrwt>0</asrwt>
<pdfrwt beam="1">  1        3 0.36411281E-01 0.10005480E+04</pdfrwt>
<pdfrwt beam="2">  1       -3 0.16268712E+00 0.10005480E+04</pdfrwt>
<totfact> 0.60158925E+00</totfact>
</mgrwt>
</event>
<event>
 9    1  0.4307774E-036  0.9995068E+03  0.7818608E-02  0.8681508E-01
         -1   -1    0    0    0  501 -0.00000000000E+00  0.00000000000E+00  0.75655911934E+03  0.75655911934E+03  0.00000000000E+00 0.  1.
          1   -1    0    0  501    0  0.00000000000E+00 -0.00000000000E+00 -0.33011760348E+03  0.33011760348E+03  0.00000000000E+00 0.  1.
         36    2    1    2    0    0  0.14210854715E-13  0.00000000000E+00  0.42644151587E+03  0.10866767228E+04  0.99950684513E+03 0.  0.
         25    2    3    3    0    0  0.54497288678E+02  0.12791431644E+03  0.10101266281E+03  0.21215477509E+03  0.12439478976E+03 0.  0.
         35    2    3    3    0    0 -0.54497288678E+02 -0.12791431644E+03  0.32542885305E+03  0.87452194773E+03  0.79972037103E+03 0.  0.
         22    1    5    5    0    0 -0.23410341852E+03 -0.22827332051E+03 -0.14755473676E+03  0.35872764008E+03  0.00000000000E+00 0.  1.
         22    1    5    5    0    0  0.17960612984E+03  0.10035900407E+03  0.47298358981E+03  0.51579430765E+03  0.00000000000E+00 0.  1.
          5    1    4    4  502    0  0.94665648358E+02  0.96854578050E+02  0.75681613021E+02  0.15521659324E+03  0.47000000000E+01 0. -1.
         -5    1    4    4    0  502 -0.40168359679E+02  0.31059738394E+02  0.25331049793E+02  0.56938181847E+02  0.47000000000E+01 0. -1.
<mgrwt>
<rscale>  0 0.99950685E+03</rscale>
<asrwt>0</asrwt>
<pdfrwt beam="1">  1        1 0.50787324E-01 0.99950685E+03</pdfrwt>
<pdfrwt beam="2">  1       -1 0.11639371E+00 0.99950685E+03</pdfrwt>
<totfact> 0.62036512E+01</totfact>
</mgrwt>
</event>
<event>
 9    1  0.4307774E-036  0.1000076E+04  0.7818608E-02  0.8680966E-01
         -2   -1    0    0    0  501 -0.00000000000E+00  0.00000000000E+00  0.24049428717E+03  0.24049428717E+03  0.00000000000E+00 0.  1.
          2   -1    0    0  501    0  0.00000000000E+00 -0.00000000000E+00 -0.10396831619E+04  0.10396831619E+04  0.00000000000E+00 0.  1.
         36    2    1    2    0    0  0.28421709430E-13 -0.71054273576E-14 -0.79918887478E+03  0.12801774491E+04  0.10000757190E+04 0.  0.
         25    2    3    3    0    0 -0.13109977977E+03 -0.51798107829E+02 -0.15784587744E+03  0.24534712326E+03  0.12413578709E+03 0.  0.
         35    2    3    3    0    0  0.13109977977E+03  0.51798107829E+02 -0.64134299734E+03  0.10348303259E+04  0.79980170469E+03 0.  0.
         22    1    5    5    0    0 -0.94546278838E+02  0.73399889531E+02 -0.76657252597E+03  0.77586079950E+03  0.00000000000E+00 0. -1.
         22    1    5    5    0    0  0.22564605861E+03 -0.21601781702E+02  0.12522952863E+03  0.25896952635E+03  0.00000000000E+00 0. -1.
          5    1    4    4  502    0 -0.15240094713E+03 -0.60909015337E+02 -0.13818439895E+03  0.21459956884E+03  0.47000000000E+01 0.  1.
         -5    1    4    4    0  502  0.21301167353E+02  0.91109075075E+01 -0.19661478490E+02  0.30747554417E+02  0.47000000000E+01 0.  1.
<mgrwt>
<rscale>  0 0.10000757E+04</rscale>
<asrwt>0</asrwt>
<pdfrwt beam="1">  1        2 0.15995126E+00 0.10000757E+04</pdfrwt>
<pdfrwt beam="2">  1       -2 0.36999121E-01 0.10000757E+04</pdfrwt>
<totfact> 0.19760757E+02</totfact>
</mgrwt>
</event>
<event>
 9    1  0.4307774E-036  0.1000298E+04  0.7818608E-02  0.8680754E-01
         -2   -1    0    0    0  501 -0.00000000000E+00  0.00000000000E+00  0.27218541014E+03  0.27218541014E+03  0.00000000000E+00 0. -1.
          2   -1    0    0  501    0  0.00000000000E+00 -0.00000000000E+00 -0.91903897276E+03  0.91903897276E+03  0.00000000000E+00 0. -1.
         36    2    1    2    0    0 -0.14210854715E-13  0.00000000000E+00 -0.64685356262E+03  0.11912243829E+04  0.10002979551E+04 0.  0.
         25    2    3    3    0    0  0.75360181299E+02 -0.10690906699E+03 -0.17404426713E+03  0.25089987369E+03  0.12470218188E+03 0.  0.
         35    2    3    3    0    0 -0.75360181299E+02  0.10690906699E+03 -0.47280929549E+03  0.94032450921E+03  0.80221745630E+03 0.  0.
         22    1    5    5    0    0  0.29742741460E+03  0.12452582177E+03  0.18932659828E+02  0.32299875054E+03  0.00000000000E+00 0.  1.
         22    1    5    5    0    0 -0.37278759590E+03 -0.17616754782E+02 -0.49174195532E+03  0.61732575868E+03  0.00000000000E+00 0.  1.
          5    1    4    4  502    0 -0.34314796470E+02 -0.35687835776E+02 -0.43702475443E+02  0.66205160214E+02  0.47000000000E+01 0. -1.
         -5    1    4    4    0  502  0.10967497777E+03 -0.71221231212E+02 -0.13034179169E+03  0.18469471347E+03  0.47000000000E+01 0. -1.
<mgrwt>
<rscale>  0 0.10002980E+04</rscale>
<asrwt>0</asrwt>
<pdfrwt beam="1">  1        2 0.14139061E+00 0.10002980E+04</pdfrwt>
<pdfrwt beam="2">  1       -2 0.41874679E-01 0.10002980E+04</pdfrwt>
<totfact> 0.18610032E+02</totfact>
</mgrwt>
</event>
<event>
 9    1  0.4307774E-036  0.9996727E+03  0.7818608E-02  0.8681350E-01
          2   -1    0    0  501    0  0.00000000000E+00  0.00000000000E+00  0.16997880627E+04  0.16997880627E+04  0.00000000000E+00 0.  1.
         -2   -1    0    0    0  501 -0.00000000000E+00 -0.00000000000E+00 -0.14698091202E+03  0.14698091202E+03  0.00000000000E+00 0.  1.
         36    2    1    2    0    0  0.35527136788E-13  0.00000000000E+00  0.15528071506E+04  0.18467689747E+04  0.99967274584E+03 0.  0.
         25    2    3    3    0    0 -0.19948021629E+02  0.10751803534E+03  0.13432275854E+03  0.21392892994E+03  0.12555848086E+03 0.  0.
         35    2    3    3    0    0  0.19948021629E+02 -0.10751803534E+03  0.14184843921E+04  0.16328400447E+04  0.80131803273E+03 0.  0.
         22    1    5    5    0    0  0.37499002823E+03 -0.79647926947E+02  0.10614407067E+04  0.11285467147E+04  0.00000000000E+00 0. -1.
         22    1    5    5    0    0 -0.35504200660E+03 -0.27870108393E+02  0.35704368541E+03  0.50429333000E+03  0.00000000000E+00 0. -1.
          5    1    4    4  502    0  0.24053149907E+02  0.19390049943E+02  0.10718659444E+03  0.11164938014E+03  0.47000000000E+01 0.  1.
         -5    1    4    4    0  502 -0.44001171536E+02  0.88127985397E+02  0.27136164098E+02  0.10227954981E+03  0.47000000000E+01 0.  1.
<mgrwt>
<rscale>  0 0.99967275E+03</rscale>
<asrwt>0</asrwt>
<pdfrwt beam="1">  1        2 0.26150584E+00 0.99967275E+03</pdfrwt>
<pdfrwt beam="2">  1       -2 0.22612449E-01 0.99967275E+03</pdfrwt>
<totfact> 0.20011689E+02</totfact>
</mgrwt>
</event>
<event>
 9    1  0.4307774E-036  0.1000106E+04  0.7818608E-02  0.8680937E-01
          2   -1    0    0  501    0  0.00000000000E+00  0.00000000000E+00  0.56962154827E+03  0.56962154827E+03  0.00000000000E+00 0.  1.
         -2   -1    0    0    0  501 -0.00000000000E+00 -0.00000000000E+00 -0.43898133032E+03  0.43898133032E+03  0.00000000000E+00 0.  1.
         36    2    1    2    0    0  0.00000000000E+00 -0.56843418861E-13  0.13064021796E+03  0.10086028786E+04  0.10001064444E+04 0.  0.
         25    2    3    3    0    0 -0.49619812261E+02  0.12703098835E+03 -0.93658363696E+01  0.18516024198E+03  0.12489034611E+03 0.  0.
         35    2    3    3    0    0  0.49619812261E+02 -0.12703098835E+03  0.14000605433E+03  0.82344263661E+03  0.79991067174E+03 0.  0.
         22    1    5    5    0    0 -0.12458797011E+02  0.28824866196E+03  0.25825225385E+03  0.38721665688E+03  0.00000000000E+00 0. -1.
         22    1    5    5    0    0  0.62078609273E+02 -0.41527965031E+03 -0.11824619952E+03  0.43622597973E+03  0.00000000000E+00 0. -1.
          5    1    4    4  502    0  0.31376813559E+02 -0.27501295558E+01 -0.51427292936E+00  0.31849994008E+02  0.47000000000E+01 0. -1.
         -5    1    4    4    0  502 -0.80996625820E+02  0.12978111790E+03 -0.88515634402E+01  0.15331024797E+03  0.47000000000E+01 0. -1.
<mgrwt>
<rscale>  0 0.10001064E+04</rscale>
<asrwt>0</asrwt>
<pdfrwt beam="1">  1        2 0.87634085E-01 0.10001064E+04</pdfrwt>
<pdfrwt beam="2">  1       -2 0.67535589E-01 0.10001064E+04</pdfrwt>
<totfact> 0.12838048E+02</totfact>
</mgrwt>
</event>
<event>
 9    1  0.4307774E-036  0.9996873E+03  0.7818608E-02  0.8681336E-01
         -1   -1    0    0    0  501 -0.00000000000E+00  0.00000000000E+00  0.13252985585E+03  0.13252985585E+03  0.00000000000E+00 0. -1.
          1   -1    0    0  501    0  0.00000000000E+00 -0.00000000000E+00 -0.18851876844E+04  0.18851876844E+04  0.00000000000E+00 0. -1.
         36    2    1    2    0    0 -0.56843418861E-13 -0.14210854715E-13 -0.17526578286E+04  0.20177175403E+04  0.99968725525E+03 0.  0.
         25    2    3    3    0    0  0.10926587924E+03  0.76194526100E+02 -0.41460571895E+03  0.45301805628E+03  0.12483116182E+03 0.  0.
         35    2    3    3    0    0 -0.10926587924E+03 -0.76194526100E+02 -0.13380521096E+04  0.15646994840E+04  0.80009773714E+03 0.  0.
         22    1    5    5    0    0  0.27988906800E+03 -0.17334863488E+03 -0.27660827724E+03  0.42999974260E+03  0.00000000000E+00 0.  1.
         22    1    5    5    0    0 -0.38915494724E+03  0.97154108778E+02 -0.10614438324E+04  0.11346997414E+04  0.00000000000E+00 0.  1.
          5    1    4    4  502    0  0.77368528331E+02  0.29032896284E+02 -0.85537327596E+02  0.11902740296E+03  0.47000000000E+01 0.  1.
         -5    1    4    4    0  502  0.31897350905E+02  0.47161629815E+02 -0.32906839135E+03  0.33399065332E+03  0.47000000000E+01 0.  1.
<mgrwt>
<rscale>  0 0.99968726E+03</rscale>
<asrwt>0</asrwt>
<pdfrwt beam="1">  1        1 0.29002890E+00 0.99968726E+03</pdfrwt>
<pdfrwt beam="2">  1       -1 0.20389207E-01 0.99968726E+03</pdfrwt>
<totfact> 0.74260704E+01</totfact>
</mgrwt>
</event>
<event>
 9    1  0.4307774E-036  0.1000326E+04  0.7818608E-02  0.8680728E-01
          2   -1    0    0  501    0  0.00000000000E+00  0.00000000000E+00  0.18912372599E+04  0.18912372599E+04  0.00000000000E+00 0.  1.
         -2   -1    0    0    0  501 -0.00000000000E+00 -0.00000000000E+00 -0.13227467058E+03  0.13227467058E+03  0.00000000000E+00 0.  1.
         36    2    1    2    0    0  0.35527136788E-13  0.00000000000E+00  0.17589625893E+04  0.20235119304E+04  0.10003255181E+04 0.  0.
         25    2    3    3    0    0 -0.14976793705E+02 -0.12794191645E+03  0.44538632053E+03  0.48024289044E+03  0.12518314969E+03 0.  0.
         35    2    3    3    0    0  0.14976793705E+02  0.12794191645E+03  0.13135762687E+04  0.15432690400E+04  0.79975201011E+03 0.  0.
         22    1    5    5    0    0 -0.29431127030E+03  0.10781231511E+03  0.16621499989E+03  0.35478168682E+03  0.00000000000E+00 0. -1.
         22    1    5    5    0    0  0.30928806401E+03  0.20129601335E+02  0.11473612689E+04  0.11884873532E+04  0.00000000000E+00 0. -1.
          5    1    4    4  502    0 -0.60125609380E+02 -0.76394437368E+02  0.34602008287E+03  0.35944844792E+03  0.47000000000E+01 0. -1.
         -5    1    4    4    0  502  0.45148815675E+02 -0.51547479078E+02  0.99366237665E+02  0.12079444252E+03  0.47000000000E+01 0. -1.
<mgrwt>
<rscale>  0 0.10003255E+04</rscale>
<asrwt>0</asrwt>
<pdfrwt beam="1">  1        2 0.29095956E+00 0.10003255E+04</pdfrwt>
<pdfrwt beam="2">  1       -2 0.20349951E-01 0.10003255E+04</pdfrwt>
<totfact> 0.18753036E+02</totfact>
</mgrwt>
</event>
<event>
 9    1  0.4307774E-036  0.9997973E+03  0.7818608E-02  0.8681231E-01
         -2   -1    0    0    0  501 -0.00000000000E+00  0.00000000000E+00  0.19245443793E+03  0.19245443793E+03  0.00000000000E+00 0.  1.
          2   -1    0    0  501    0  0.00000000000E+00 -0.00000000000E+00 -0.12984822278E+04  0.12984822278E+04  0.00000000000E+00 0.  1.
         36    2    1    2    0    0  0.00000000000E+00 -0.35527136788E-14 -0.11060277899E+04  0.14909366657E+04  0.99979731407E+03 0.  0.
         25    2    3    3    0    0  0.11416468285E+02 -0.24271198552E+02 -0.38767306265E+01  0.12819272647E+03  0.12529532813E+03 0.  0.
         35    2    3    3    0    0 -0.11416468285E+02  0.24271198552E+02 -0.11021510592E+04  0.13627439392E+04  0.80100852664E+03 0.  0.
         22    1    5    5    0    0  0.42267355484E+02  0.66161482459E+01  0.12611734851E+03  0.13317615535E+03  0.00000000000E+00 0.  1.
         22    1    5    5    0    0 -0.53683823769E+02  0.17655050306E+02 -0.12282684077E+04  0.12295677839E+04  0.00000000000E+00 0.  1.
          5    1    4    4  502    0  0.39154326278E+02 -0.15324689190E+02 -0.54859913173E+02  0.69279199175E+02  0.47000000000E+01 0.  1.
         -5    1    4    4    0  502 -0.27737857993E+02 -0.89465093620E+01  0.50983182546E+02  0.58913527295E+02  0.47000000000E+01 0.  1.
<mgrwt>
<rscale>  0 0.99979731E+03</rscale>
<asrwt>0</asrwt>
<pdfrwt beam="1">  1        2 0.19976650E+00 0.99979731E+03</pdfrwt>
<pdfrwt beam="2">  1       -2 0.29608375E-01 0.99979731E+03</pdfrwt>
<totfact> 0.20914565E+02</totfact>
</mgrwt>
</event>
<event>
 9    1  0.4307774E-036  0.1000394E+04  0.7818608E-02  0.8680663E-01
         -1   -1    0    0    0  501 -0.00000000000E+00  0.00000000000E+00  0.65159066729E+03  0.65159066729E+03  0.00000000000E+00 0.  1.
          1   -1    0    0  501    0  0.00000000000E+00 -0.00000000000E+00 -0.38397874461E+03  0.38397874461E+03  0.00000000000E+00 0.  1.
         36    2    1    2    0    0  0.14210854715E-13  0.14210854715E-13  0.26761192268E+03  0.10355694119E+04  0.10003938553E+04 0.  0.
         25    2    3    3    0    0 -0.61745445767E+02  0.88391949382E+02 -0.38894699234E+02  0.16813808179E+03  0.12301211376E+03 0.  0.
         35    2    3    3    0    0  0.61745445767E+02 -0.88391949382E+02  0.30650662191E+03  0.86743133012E+03  0.80427928383E+03 0.  0.
         22    1    5    5    0    0 -0.17536104541E+03 -0.61737437816E+00  0.51226882345E+03  0.54145288334E+03  0.00000000000E+00 0.  1.
         22    1    5    5    0    0  0.23710649118E+03 -0.87774575003E+02 -0.20576220154E+03  0.32597844677E+03  0.00000000000E+00 0.  1.
          5    1    4    4  502    0  0.31053946075E+02  0.56832834097E+02 -0.90038564509E+01  0.65555152576E+02  0.47000000000E+01 0.  1.
         -5    1    4    4    0  502 -0.92799391842E+02  0.31559115285E+02 -0.29890842783E+02  0.10258292921E+03  0.47000000000E+01 0.  1.
<mgrwt>
<rscale>  0 0.10003939E+04</rscale>
<asrwt>0</asrwt>
<pdfrwt beam="1">  1        1 0.59073653E-01 0.10003939E+04</pdfrwt>
<pdfrwt beam="2">  1       -1 0.10024472E+00 0.10003939E+04</pdfrwt>
<totfact> 0.71942062E+01</totfact>
</mgrwt>
</event>
<event>
 9    1  0.4307774E-036  0.1000699E+04  0.7818608E-02  0.8680373E-01
          2   -1    0    0  501    0  0.00000000000E+00  0.00000000000E+00  0.39853154573E+03  0.39853154573E+03  0.00000000000E+00 0.  1.
         -2   -1    0    0    0  501 -0.00000000000E+00 -0.00000000000E+00 -0.62817984295E+03  0.62817984295E+03  0.00000000000E+00 0.  1.
         36    2    1    2    0    0  0.28421709430E-13 -0.71054273576E-14 -0.22964829722E+03  0.10267113887E+04  0.10006987235E+04 0.  0.
         25    2    3    3    0    0 -0.96673248878E+02  0.47061189138E+02  0.37761910985E+02  0.17614901917E+03  0.13432067027E+03 0.  0.
         35    2    3    3    0    0  0.96673248878E+02 -0.47061189138E+02 -0.26741020820E+03  0.85056236951E+03  0.80024224608E+03 0.  0.
         22    1    5    5    0    0 -0.13688149557E+03  0.12252503240E+03  0.21845492105E+03  0.28543209337E+03  0.00000000000E+00 0.  1.
         22    1    5    5    0    0  0.23355474445E+03 -0.16958622154E+03 -0.48586512925E+03  0.56513027614E+03  0.00000000000E+00 0.  1.
          5    1    4    4  502    0  0.48702321918E+01 -0.35376393825E+02 -0.90728988419E+01  0.37143181004E+02  0.47000000000E+01 0.  1.
         -5    1    4    4    0  502 -0.10154348107E+03  0.82437582964E+02  0.46834809827E+02  0.13900583817E+03  0.47000000000E+01 0.  1.
<mgrwt>
<rscale>  0 0.10006987E+04</rscale>
<asrwt>0</asrwt>
<pdfrwt beam="1">  1        2 0.61312546E-01 0.10006987E+04</pdfrwt>
<pdfrwt beam="2">  1       -2 0.96643053E-01 0.10006987E+04</pdfrwt>
<totfact> 0.85121071E+01</totfact>
</mgrwt>
</event>
<event>
 9    1  0.4307774E-036  0.9959102E+03  0.7818608E-02  0.8684942E-01
          1   -1    0    0  501    0  0.00000000000E+00  0.00000000000E+00  0.39296077683E+03  0.39296077683E+03  0.00000000000E+00 0. -1.
         -1   -1    0    0    0  501 -0.00000000000E+00 -0.00000000000E+00 -0.63100265228E+03  0.63100265228E+03  0.00000000000E+00 0. -1.
         36    2    1    2    0    0  0.00000000000E+00 -0.71054273576E-14 -0.23804187545E+03  0.10239634291E+04  0.99591022169E+03 0.  0.
         25    2    3    3    0    0  0.10508312711E+03 -0.53248533275E+02 -0.12832057708E+03  0.21445214507E+03  0.12508270113E+03 0.  0.
         35    2    3    3    0    0 -0.10508312711E+03  0.53248533275E+02 -0.10972129837E+03  0.80951128403E+03  0.79334222487E+03 0.  0.
         22    1    5    5    0    0 -0.34799554017E+03 -0.13165883598E+03 -0.27471360584E+03  0.46249595707E+03  0.00000000000E+00 0. -1.
         22    1    5    5    0    0  0.24291241307E+03  0.18490736925E+03  0.16499230747E+03  0.34701532697E+03  0.00000000000E+00 0. -1.
          5    1    4    4  502    0  0.20458313505E+01  0.22432787594E+02  0.10828266577E+02  0.25431412509E+02  0.47000000000E+01 0.  1.
         -5    1    4    4    0  502  0.10303729576E+03 -0.75681320869E+02 -0.13914884366E+03  0.18902073256E+03  0.47000000000E+01 0.  1.
<mgrwt>
<rscale>  0 0.99591022E+03</rscale>
<asrwt>0</asrwt>
<pdfrwt beam="1">  1        1 0.60455504E-01 0.99591022E+03</pdfrwt>
<pdfrwt beam="2">  1       -1 0.97077332E-01 0.99591022E+03</pdfrwt>
<totfact> 0.74971891E+01</totfact>
</mgrwt>
</event>
<event>
 9    1  0.4307774E-036  0.1001110E+04  0.7818608E-02  0.8679981E-01
         -1   -1    0    0    0  501 -0.00000000000E+00  0.00000000000E+00  0.88926557487E+02  0.88926557487E+02  0.00000000000E+00 0. -1.
          1   -1    0    0  501    0  0.00000000000E+00 -0.00000000000E+00 -0.28175546796E+04  0.28175546796E+04  0.00000000000E+00 0. -1.
         36    2    1    2    0    0  0.00000000000E+00  0.00000000000E+00 -0.27286281221E+04  0.29064812371E+04  0.10011102600E+04 0.  0.
         25    2    3    3    0    0 -0.91595051712E+02  0.63487692101E+02 -0.25842821125E+03  0.30769542402E+03  0.12438244669E+03 0.  0.
         35    2    3    3    0    0  0.91595051712E+02 -0.63487692101E+02 -0.24701999109E+04  0.25987858131E+04  0.79961225731E+03 0.  0.
         22    1    5    5    0    0 -0.28711987903E+03  0.18594554853E+03 -0.12863076167E+04  0.13310149724E+04  0.00000000000E+00 0.  1.
         22    1    5    5    0    0  0.37871493074E+03 -0.24943324063E+03 -0.11838922942E+04  0.12677708407E+04  0.00000000000E+00 0.  1.
          5    1    4    4  502    0 -0.69314750681E+02  0.12361259617E+02 -0.37744929609E+02  0.80025652840E+02  0.47000000000E+01 0.  1.
         -5    1    4    4    0  502 -0.22280301031E+02  0.51126432483E+02 -0.22068328164E+03  0.22766977118E+03  0.47000000000E+01 0.  1.
<mgrwt>
<rscale>  0 0.10011103E+04</rscale>
<asrwt>0</asrwt>
<pdfrwt beam="1">  1        1 0.43346988E+00 0.10011103E+04</pdfrwt>
<pdfrwt beam="2">  1       -1 0.13681011E-01 0.10011103E+04</pdfrwt>
<totfact> 0.31425666E+01</totfact>
</mgrwt>
</event>
<event>
 9    1  0.4307774E-036  0.1001047E+04  0.7818608E-02  0.8680041E-01
          1   -1    0    0  501    0  0.00000000000E+00  0.00000000000E+00  0.77387468939E+03  0.77387468939E+03  0.00000000000E+00 0. -1.
         -1   -1    0    0    0  501 -0.00000000000E+00 -0.00000000000E+00 -0.32372668310E+03  0.32372668310E+03  0.00000000000E+00 0. -1.
         36    2    1    2    0    0  0.42632564146E-13  0.28421709430E-13  0.45014800629E+03  0.10976013725E+04  0.10010472243E+04 0.  0.
         25    2    3    3    0    0 -0.99042567630E+02 -0.68627914236E+02  0.38054092126E+01  0.17329970708E+03  0.12449532730E+03 0.  0.
         35    2    3    3    0    0  0.99042567630E+02  0.68627914236E+02  0.44634259708E+03  0.92430166542E+03  0.80037031049E+03 0.  0.
         22    1    5    5    0    0  0.32628471426E+03 -0.18735368997E+03  0.44402704747E+03  0.58199926013E+03  0.00000000000E+00 0.  1.
         22    1    5    5    0    0 -0.22724214663E+03  0.25598160420E+03  0.23155496119E+01  0.34230240529E+03  0.00000000000E+00 0.  1.
          5    1    4    4  502    0 -0.76831665794E+02 -0.85456181789E+02  0.44866075044E+02  0.12345411522E+03  0.47000000000E+01 0.  1.
         -5    1    4    4    0  502 -0.22210901836E+02  0.16828267553E+02 -0.41060665831E+02  0.49845591858E+02  0.47000000000E+01 0.  1.
<mgrwt>
<rscale>  0 0.10010472E+04</rscale>
<asrwt>0</asrwt>
<pdfrwt beam="1">  1        1 0.11905764E+00 0.10010472E+04</pdfrwt>
<pdfrwt beam="2">  1       -1 0.49804105E-01 0.10010472E+04</pdfrwt>
<totfact> 0.10764250E+02</totfact>
</mgrwt>
</event>
<event>
 9    1  0.4307774E-036  0.9999872E+03  0.7818608E-02  0.8681050E-01
         -2   -1    0    0    0  501 -0.00000000000E+00  0.00000000000E+00  0.26750934699E+03  0.26750934699E+03  0.00000000000E+00 0. -1.
          2   -1    0    0  501    0  0.00000000000E+00 -0.00000000000E+00 -0.93452282657E+03  0.93452282657E+03  0.00000000000E+00 0. -1.
         36    2    1    2    0    0  0.71054273576E-14  0.28421709430E-13 -0.66701347957E+03  0.12020321736E+04  0.99998718209E+03 0.  0.
         25    2    3    3    0    0 -0.52981228980E+01 -0.12656167537E+03 -0.66012446715E+02  0.19060318079E+03  0.12619826317E+03 0.  0.
         35    2    3    3    0    0  0.52981228980E+01  0.12656167537E+03 -0.60100103286E+03  0.10114289928E+04  0.80357976464E+03 0.  0.
         22    1    5    5    0    0 -0.18586543842E+03 -0.21912122385E+03  0.57863470598E+01  0.28739094237E+03  0.00000000000E+00 0.  1.
         22    1    5    5    0    0  0.19116356132E+03  0.34568289923E+03 -0.60678737992E+03  0.72403805040E+03  0.00000000000E+00 0.  1.
          5    1    4    4  502    0 -0.13796080967E+02 -0.64615455517E+02  0.32535914055E+02  0.73798134429E+02  0.47000000000E+01 0.  1.
         -5    1    4    4    0  502  0.84979580687E+01 -0.61946219856E+02 -0.98548360770E+02  0.11680504636E+03  0.47000000000E+01 0.  1.
<mgrwt>
<rscale>  0 0.99998718E+03</rscale>
<asrwt>0</asrwt>
<pdfrwt beam="1">  1        2 0.14377274E+00 0.99998718E+03</pdfrwt>
<pdfrwt beam="2">  1       -2 0.41155283E-01 0.99998718E+03</pdfrwt>
<totfact> 0.18801730E+02</totfact>
</mgrwt>
</event>
<event>
 9    1  0.4307774E-036  0.1000389E+04  0.7818608E-02  0.8680667E-01
          1   -1    0    0  501    0  0.00000000000E+00  0.00000000000E+00  0.40174453685E+03  0.40174453685E+03  0.00000000000E+00 0.  1.
         -1   -1    0    0    0  501 -0.00000000000E+00 -0.00000000000E+00 -0.62277077378E+03  0.62277077378E+03  0.00000000000E+00 0.  1.
         36    2    1    2    0    0  0.14210854715E-13  0.00000000000E+00 -0.22102623694E+03  0.10245153106E+04  0.10003894363E+04 0.  0.
         25    2    3    3    0    0 -0.12470275527E+03 -0.69817924709E+02 -0.41429457573E+02  0.19212136416E+03  0.12152735836E+03 0.  0.
         35    2    3    3    0    0  0.12470275527E+03  0.69817924709E+02 -0.17959677936E+03  0.83239394647E+03  0.80012458979E+03 0.  0.
         22    1    5    5    0    0  0.23104017131E+03  0.21522506852E+02 -0.46738213570E+03  0.52181303148E+03  0.00000000000E+00 0. -1.
         22    1    5    5    0    0 -0.10633741604E+03  0.48295417857E+02  0.28778535633E+03  0.31058091499E+03  0.00000000000E+00 0. -1.
          5    1    4    4  502    0 -0.10836678595E+03 -0.54157505173E+02  0.23240958597E+02  0.12344483716E+03  0.47000000000E+01 0.  1.
         -5    1    4    4    0  502 -0.16335969316E+02 -0.15660419536E+02 -0.64670416170E+02  0.68676527003E+02  0.47000000000E+01 0.  1.
<mgrwt>
<rscale>  0 0.10003894E+04</rscale>
<asrwt>0</asrwt>
<pdfrwt beam="1">  1        1 0.61806852E-01 0.10003894E+04</pdfrwt>
<pdfrwt beam="2">  1       -1 0.95810887E-01 0.10003894E+04</pdfrwt>
<totfact> 0.74885083E+01</totfact>
</mgrwt>
</event>
<event>
 9    1  0.4307774E-036  0.1001169E+04  0.7818608E-02  0.8679925E-01
          2   -1    0    0  501    0  0.00000000000E+00  0.00000000000E+00  0.69762105640E+03  0.69762105640E+03  0.00000000000E+00 0. -1.
         -2   -1    0    0    0  501 -0.00000000000E+00 -0.00000000000E+00 -0.35919936043E+03  0.35919936043E+03  0.00000000000E+00 0. -1.
         36    2    1    2    0    0 -0.28421709430E-13 -0.14210854715E-13  0.33842169597E+03  0.10568204168E+04  0.10011693908E+04 0.  0.
         25    2    3    3    0    0  0.12601094666E+03 -0.61549180883E+02  0.47793290979E+02  0.19370839585E+03  0.12478655221E+03 0.  0.
         35    2    3    3    0    0 -0.12601094666E+03  0.61549180883E+02  0.29062840499E+03  0.86311202098E+03  0.80051885089E+03 0.  0.
         22    1    5    5    0    0 -0.40899608888E+03  0.18322719249E+03  0.32437199514E+03  0.55323340103E+03  0.00000000000E+00 0. -1.
         22    1    5    5    0    0  0.28298514222E+03 -0.12167801161E+03 -0.33743590149E+02  0.30987861995E+03  0.00000000000E+00 0. -1.
          5    1    4    4  502    0  0.11042154601E+03 -0.84180174413E+02  0.64117481855E+00  0.13893063266E+03  0.47000000000E+01 0.  1.
         -5    1    4    4    0  502  0.15589400652E+02  0.22630993530E+02  0.47152116160E+02  0.54777763182E+02  0.47000000000E+01 0.  1.
<mgrwt>
<rscale>  0 0.10011694E+04</rscale>
<asrwt>0</asrwt>
<pdfrwt beam="1">  1        2 0.10732632E+00 0.10011694E+04</pdfrwt>
<pdfrwt beam="2">  1       -2 0.55261440E-01 0.10011694E+04</pdfrwt>
<totfact> 0.15331606E+02</totfact>
</mgrwt>
</event>
<event>
 9    1  0.4307774E-036  0.9995348E+03  0.7818608E-02  0.8681481E-01
          2   -1    0    0  501    0  0.00000000000E+00  0.00000000000E+00  0.19337205367E+04  0.19337205367E+04  0.00000000000E+00 0.  1.
         -2   -1    0    0    0  501 -0.00000000000E+00 -0.00000000000E+00 -0.12916419314E+03  0.12916419314E+03  0.00000000000E+00 0.  1.
         36    2    1    2    0    0  0.00000000000E+00  0.28421709430E-13  0.18045563436E+04  0.20628847299E+04  0.99953479755E+03 0.  0.
         25    2    3    3    0    0  0.10667416480E+03  0.61039429320E+02  0.46875938128E+03  0.50087625148E+03  0.12663519412E+03 0.  0.
         35    2    3    3    0    0 -0.10667416480E+03 -0.61039429320E+02  0.13357969623E+04  0.15620084784E+04  0.80025731653E+03 0.  0.
         22    1    5    5    0    0  0.13112405238E+02  0.28921311479E+03  0.16313555635E+03  0.33230914926E+03  0.00000000000E+00 0.  1.
         22    1    5    5    0    0 -0.11978657004E+03 -0.35025254411E+03  0.11726614060E+04  0.12296993291E+04  0.00000000000E+00 0.  1.
          5    1    4    4  502    0  0.57061582559E+02  0.17858617478E+02  0.53362458767E+02  0.80278243802E+02  0.47000000000E+01 0. -1.
         -5    1    4    4    0  502  0.49612582241E+02  0.43180811843E+02  0.41539692252E+03  0.42059800768E+03  0.47000000000E+01 0. -1.
<mgrwt>
<rscale>  0 0.99953480E+03</rscale>
<asrwt>0</asrwt>
<pdfrwt beam="1">  1        2 0.29749545E+00 0.99953480E+03</pdfrwt>
<pdfrwt beam="2">  1       -2 0.19871416E-01 0.99953480E+03</pdfrwt>
<totfact> 0.18487283E+02</totfact>
</mgrwt>
</event>
<event>
 9    1  0.4307774E-036  0.9998262E+03  0.7818608E-02  0.8681203E-01
         -2   -1    0    0    0  501 -0.00000000000E+00  0.00000000000E+00  0.15431490222E+03  0.15431490222E+03  0.00000000000E+00 0. -1.
          2   -1    0    0  501    0  0.00000000000E+00 -0.00000000000E+00 -0.16195008087E+04  0.16195008087E+04  0.00000000000E+00 0. -1.
         36    2    1    2    0    0  0.71054273576E-14  0.56843418861E-13 -0.14651859065E+04  0.17738157109E+04  0.99982620277E+03 0.  0.
         25    2    3    3    0    0 -0.23818897872E+02  0.13145881507E+03 -0.20965385614E+03  0.27915032804E+03  0.12697010000E+03 0.  0.
         35    2    3    3    0    0  0.23818897872E+02 -0.13145881507E+03 -0.12555320503E+04  0.14946653829E+04  0.79988444002E+03 0.  0.
         22    1    5    5    0    0 -0.22383013101E+03  0.13792498579E+03 -0.97852732040E+02  0.28053232687E+03  0.00000000000E+00 0. -1.
         22    1    5    5    0    0  0.24764902888E+03 -0.26938380085E+03 -0.11576793183E+04  0.12141330560E+04  0.00000000000E+00 0. -1.
          5    1    4    4  502    0  0.36361658027E+02 -0.51143186671E+00 -0.25383305339E+02  0.44596344323E+02  0.47000000000E+01 0. -1.
         -5    1    4    4    0  502 -0.60180555899E+02  0.13197024693E+03 -0.18427055081E+03  0.23455398372E+03  0.47000000000E+01 0. -1.
<mgrwt>
<rscale>  0 0.99982620E+03</rscale>
<asrwt>0</asrwt>
<pdfrwt beam="1">  1        2 0.24915396E+00 0.99982620E+03</pdfrwt>
<pdfrwt beam="2">  1       -2 0.23740755E-01 0.99982620E+03</pdfrwt>
<totfact> 0.20386951E+02</totfact>
</mgrwt>
</event>
<event>
 9    1  0.4307774E-036  0.1000022E+04  0.7818608E-02  0.8681017E-01
          2   -1    0    0  501    0  0.00000000000E+00  0.00000000000E+00  0.11843854738E+04  0.11843854738E+04  0.00000000000E+00 0. -1.
         -2   -1    0    0    0  501 -0.00000000000E+00 -0.00000000000E+00 -0.21108904828E+03  0.21108904828E+03  0.00000000000E+00 0. -1.
         36    2    1    2    0    0  0.71054273576E-14  0.00000000000E+00  0.97329642555E+03  0.13954745221E+04  0.10000216047E+04 0.  0.
         25    2    3    3    0    0 -0.53771716563E+02  0.86371874723E+02  0.31800232048E+03  0.35682310229E+03  0.12587991203E+03 0.  0.
         35    2    3    3    0    0  0.53771716563E+02 -0.86371874723E+02  0.65529410507E+03  0.10386514198E+04  0.79939659088E+03 0.  0.
         22    1    5    5    0    0 -0.27609601232E+03 -0.15564742110E+03  0.62432378932E+03  0.70016806670E+03  0.00000000000E+00 0.  1.
         22    1    5    5    0    0  0.32986772888E+03  0.69275546373E+02  0.30970315744E+02  0.33848335312E+03  0.00000000000E+00 0.  1.
          5    1    4    4  502    0 -0.32724007809E+02  0.11641883986E+03  0.27264532502E+03  0.29829812305E+03  0.47000000000E+01 0.  1.
         -5    1    4    4    0  502 -0.21047708754E+02 -0.30046965137E+02  0.45356995465E+02  0.58524979242E+02  0.47000000000E+01 0.  1.
<mgrwt>
<rscale>  0 0.10000216E+04</rscale>
<asrwt>0</asrwt>
<pdfrwt beam="1">  1        2 0.18221315E+00 0.10000216E+04</pdfrwt>
<pdfrwt beam="2">  1       -2 0.32475239E-01 0.10000216E+04</pdfrwt>
<totfact> 0.20597893E+02</totfact>
</mgrwt>
</event>
<event>
 9    1  0.4307774E-036  0.9998094E+03  0.7818608E-02  0.8681219E-01
          2   -1    0    0  501    0  0.00000000000E+00  0.00000000000E+00  0.11025833391E+04  0.11025833391E+04  0.00000000000E+00 0. -1.
         -2   -1    0    0    0  501 -0.00000000000E+00 -0.00000000000E+00 -0.22665379761E+03  0.22665379761E+03  0.00000000000E+00 0. -1.
         36    2    1    2    0    0  0.21316282073E-13  0.00000000000E+00  0.87592954151E+03  0.13292371367E+04  0.99980938381E+03 0.  0.
         25    2    3    3    0    0 -0.29677780859E+02 -0.13116140509E+03  0.21796271989E+03  0.28445403915E+03  0.12378315017E+03 0.  0.
         35    2    3    3    0    0  0.29677780859E+02  0.13116140509E+03  0.65796682163E+03  0.10447830976E+04  0.80035448257E+03 0.  0.
         22    1    5    5    0    0  0.17394812404E+03  0.25321858587E+03  0.76726052650E+03  0.82647826203E+03  0.00000000000E+00 0.  1.
         22    1    5    5    0    0 -0.14427034318E+03 -0.12205718078E+03 -0.10929370487E+03  0.21830483555E+03  0.00000000000E+00 0.  1.
          5    1    4    4  502    0 -0.71328985655E+02 -0.99091122884E+02  0.11053983263E+03  0.16476656040E+03  0.47000000000E+01 0. -1.
         -5    1    4    4    0  502  0.41651204797E+02 -0.32070282206E+02  0.10742288726E+03  0.11968747875E+03  0.47000000000E+01 0. -1.
<mgrwt>
<rscale>  0 0.99980938E+03</rscale>
<asrwt>0</asrwt>
<pdfrwt beam="1">  1        2 0.16962820E+00 0.99980938E+03</pdfrwt>
<pdfrwt beam="2">  1       -2 0.34869816E-01 0.99980938E+03</pdfrwt>
<totfact> 0.20209236E+02</totfact>
</mgrwt>
</event>
<event>
 9    1  0.4307774E-036  0.1000093E+04  0.7818608E-02  0.8680949E-01
         -1   -1    0    0    0  501 -0.00000000000E+00  0.00000000000E+00  0.10654215660E+04  0.10654215660E+04  0.00000000000E+00 0. -1.
          1   -1    0    0  501    0  0.00000000000E+00 -0.00000000000E+00 -0.23469257563E+03  0.23469257563E+03  0.00000000000E+00 0. -1.
         36    2    1    2    0    0  0.00000000000E+00 -0.14210854715E-13  0.83072899038E+03  0.13001141416E+04  0.10000930586E+04 0.  0.
         25    2    3    3    0    0 -0.32704786186E+02 -0.12154687409E+03  0.75208067637E+02  0.19276080728E+03  0.12512885258E+03 0.  0.
         35    2    3    3    0    0  0.32704786186E+02  0.12154687409E+03  0.75552092274E+03  0.11073533344E+04  0.79973514165E+03 0.  0.
         22    1    5    5    0    0 -0.23037855644E+03  0.20626344907E+03  0.77083210988E+03  0.83054261258E+03  0.00000000000E+00 0.  1.
         22    1    5    5    0    0  0.26308334263E+03 -0.84716574980E+02 -0.15311187134E+02  0.27681072179E+03  0.00000000000E+00 0.  1.
          5    1    4    4  502    0 -0.20267529095E+02 -0.57200809857E+02  0.10441172477E+03  0.12085778276E+03  0.47000000000E+01 0.  1.
         -5    1    4    4    0  502 -0.12437257091E+02 -0.64346064230E+02 -0.29203657133E+02  0.71903024524E+02  0.47000000000E+01 0.  1.
<mgrwt>
<rscale>  0 0.10000931E+04</rscale>
<asrwt>0</asrwt>
<pdfrwt beam="1">  1        1 0.36106551E-01 0.10000931E+04</pdfrwt>
<pdfrwt beam="2">  1       -1 0.16391101E+00 0.10000931E+04</pdfrwt>
<totfact> 0.37831288E+01</totfact>
</mgrwt>
</event>
<event>
 9    1  0.4307774E-036  0.1000537E+04  0.7818608E-02  0.8680527E-01
         -2   -1    0    0    0  501 -0.00000000000E+00  0.00000000000E+00  0.10404299122E+04  0.10404299122E+04  0.00000000000E+00 0.  1.
          2   -1    0    0  501    0  0.00000000000E+00 -0.00000000000E+00 -0.24054339854E+03  0.24054339854E+03  0.00000000000E+00 0.  1.
         36    2    1    2    0    0  0.00000000000E+00  0.00000000000E+00  0.79988651370E+03  0.12809733108E+04  0.10005369499E+04 0.  0.
         25    2    3    3    0    0 -0.30840895187E+02 -0.10194892309E+03  0.34113323124E+02  0.16850573778E+03  0.12603856995E+03 0.  0.
         35    2    3    3    0    0  0.30840895187E+02  0.10194892309E+03  0.76577319058E+03  0.11124675730E+04  0.79989422915E+03 0.  0.
         22    1    5    5    0    0  0.24918531743E+03  0.56131699598E+02 -0.55535503779E+02  0.26139679091E+03  0.00000000000E+00 0.  1.
         22    1    5    5    0    0 -0.21834442224E+03  0.45817223490E+02  0.82130869436E+03  0.85107078208E+03  0.00000000000E+00 0.  1.
          5    1    4    4  502    0  0.56657841690E+01  0.68758123920E+01 -0.33652067227E+02  0.35127333160E+02  0.47000000000E+01 0. -1.
         -5    1    4    4    0  502 -0.36506679356E+02 -0.10882473548E+03  0.67765390351E+02  0.13337840462E+03  0.47000000000E+01 0. -1.
<mgrwt>
<rscale>  0 0.10005369E+04</rscale>
<asrwt>0</asrwt>
<pdfrwt beam="1">  1        2 0.37006677E-01 0.10005369E+04</pdfrwt>
<pdfrwt beam="2">  1       -2 0.16006614E+00 0.10005369E+04</pdfrwt>
<totfact> 0.39666857E+01</totfact>
</mgrwt>
</event>
<event>
 9    1  0.4307774E-036  0.1000513E+04  0.7818608E-02  0.8680550E-01
         -2   -1    0    0    0  501 -0.00000000000E+00  0.00000000000E+00  0.35749386627E+03  0.35749386627E+03  0.00000000000E+00 0.  1.
          2   -1    0    0  501    0  0.00000000000E+00 -0.00000000000E+00 -0.70002975565E+03  0.70002975565E+03  0.00000000000E+00 0.  1.
         36    2    1    2    0    0  0.71054273576E-14 -0.17763568394E-13 -0.34253588938E+03  0.10575236219E+04  0.10005125563E+04 0.  0.
         25    2    3    3    0    0 -0.45761005558E+02  0.10889438311E+02 -0.20532646367E+03  0.24505631578E+03  0.12522376661E+03 0.  0.
         35    2    3    3    0    0  0.45761005558E+02 -0.10889438311E+02 -0.13720942571E+03  0.81246730614E+03  0.79941481569E+03 0.  0.
         22    1    5    5    0    0 -0.23509819556E+03  0.30036884472E+03 -0.72417191783E+02  0.38824844378E+03  0.00000000000E+00 0.  1.
         22    1    5    5    0    0  0.28085920111E+03 -0.31125828303E+03 -0.64792233928E+02  0.42421886236E+03  0.00000000000E+00 0.  1.
          5    1    4    4  502    0 -0.53669739800E+02  0.26527246488E+02 -0.21587325486E+03  0.22407027456E+03  0.47000000000E+01 0. -1.
         -5    1    4    4    0  502  0.79087342420E+01 -0.15637808177E+02  0.10546791189E+02  0.20986041224E+02  0.47000000000E+01 0. -1.
<mgrwt>
<rscale>  0 0.10005126E+04</rscale>
<asrwt>0</asrwt>
<pdfrwt beam="1">  1        2 0.10769689E+00 0.10005126E+04</pdfrwt>
<pdfrwt beam="2">  1       -2 0.54999057E-01 0.10005126E+04</pdfrwt>
<totfact> 0.15416556E+02</totfact>
</mgrwt>
</event>
<event>
 9    1  0.4307774E-036  0.9995554E+03  0.7818608E-02  0.8681461E-01
         -2   -1    0    0    0  501 -0.00000000000E+00  0.00000000000E+00  0.38689216726E+03  0.38689216726E+03  0.00000000000E+00 0.  1.
          2   -1    0    0  501    0  0.00000000000E+00 -0.00000000000E+00 -0.64560037732E+03  0.64560037732E+03  0.00000000000E+00 0.  1.
         36    2    1    2    0    0  0.71054273576E-14  0.00000000000E+00 -0.25870821006E+03  0.10324925446E+04  0.99955535948E+03 0.  0.
         25    2    3    3    0    0 -0.29224462259E+02 -0.13286200511E+03 -0.52085798995E+02  0.19194823487E+03  0.12499925126E+03 0.  0.
         35    2    3    3    0    0  0.29224462259E+02  0.13286200511E+03 -0.20662241106E+03  0.84054430971E+03  0.80331533923E+03 0.  0.
         22    1    5    5    0    0 -0.16432844127E+02  0.23665883541E+03 -0.48502619970E+03  0.53993319692E+03  0.00000000000E+00 0. -1.
         22    1    5    5    0    0  0.45657306386E+02 -0.10379683031E+03  0.27840378863E+03  0.30061111279E+03  0.00000000000E+00 0. -1.
          5    1    4    4  502    0  0.22248441389E+01  0.58167709524E+01 -0.49020461655E+02  0.49637490031E+02  0.47000000000E+01 0.  1.
         -5    1    4    4    0  502 -0.31449306398E+02 -0.13867877606E+03 -0.30653373396E+01  0.14231074483E+03  0.47000000000E+01 0.  1.
<mgrwt>
<rscale>  0 0.99955536E+03</rscale>
<asrwt>0</asrwt>
<pdfrwt beam="1">  1        2 0.99323134E-01 0.99955536E+03</pdfrwt>
<pdfrwt beam="2">  1       -2 0.59521873E-01 0.99955536E+03</pdfrwt>
<totfact> 0.14451085E+02</totfact>
</mgrwt>
</event>
<event>
 9    1  0.4307774E-036  0.1002330E+04  0.7818608E-02  0.8678822E-01
          2   -1    0    0  501    0  0.00000000000E+00  0.00000000000E+00  0.37509783205E+03  0.37509783205E+03  0.00000000000E+00 0. -1.
         -2   -1    0    0    0  501 -0.00000000000E+00 -0.00000000000E+00 -0.66960202412E+03  0.66960202412E+03  0.00000000000E+00 0. -1.
         36    2    1    2    0    0 -0.28421709430E-13  0.00000000000E+00 -0.29450419207E+03  0.10446998562E+04  0.10023298211E+04 0.  0.
         25    2    3    3    0    0 -0.12560406872E+03  0.15002364833E+02 -0.12539318879E+03  0.21738477517E+03  0.12462437824E+03 0.  0.
         35    2    3    3    0    0  0.12560406872E+03 -0.15002364833E+02 -0.16911100328E+03  0.82731508100E+03  0.79990640627E+03 0.  0.
         22    1    5    5    0    0 -0.29589528535E+03 -0.21628859061E+02 -0.26181813023E+03  0.39568998061E+03  0.00000000000E+00 0. -1.
         22    1    5    5    0    0  0.42149935407E+03  0.66264942287E+01  0.92707126947E+02  0.43162510040E+03  0.00000000000E+00 0. -1.
          5    1    4    4  502    0 -0.11861697566E+02  0.54505188818E+02 -0.51297486161E+02  0.75927844456E+02  0.47000000000E+01 0. -1.
         -5    1    4    4    0  502 -0.11374237116E+03 -0.39502823986E+02 -0.74095702625E+02  0.14145693071E+03  0.47000000000E+01 0. -1.
<mgrwt>
<rscale>  0 0.10023298E+04</rscale>
<asrwt>0</asrwt>
<pdfrwt beam="1">  1        2 0.57707360E-01 0.10023298E+04</pdfrwt>
<pdfrwt beam="2">  1       -2 0.10301569E+00 0.10023298E+04</pdfrwt>
<totfact> 0.77967253E+01</totfact>
</mgrwt>
</event>
<event>
 9    1  0.4307774E-036  0.9993163E+03  0.7818608E-02  0.8681689E-01
          2   -1    0    0  501    0  0.00000000000E+00  0.00000000000E+00  0.74800901294E+03  0.74800901294E+03  0.00000000000E+00 0. -1.
         -2   -1    0    0    0  501 -0.00000000000E+00 -0.00000000000E+00 -0.33376372153E+03  0.33376372153E+03  0.00000000000E+00 0. -1.
         36    2    1    2    0    0 -0.14210854715E-13 -0.71054273576E-14  0.41424529141E+03  0.10817727345E+04  0.99931631007E+03 0.  0.
         25    2    3    3    0    0  0.10477991665E+03 -0.51660838204E+02 -0.41914440363E+01  0.17104025025E+03  0.12485802283E+03 0.  0.
         35    2    3    3    0    0 -0.10477991665E+03  0.51660838204E+02  0.41843673545E+03  0.91073248422E+03  0.80043530850E+03 0.  0.
         22    1    5    5    0    0 -0.28961492758E+02 -0.35969251392E+03  0.72807964856E+02  0.36812833683E+03  0.00000000000E+00 0. -1.
         22    1    5    5    0    0 -0.75818423894E+02  0.41135335212E+03  0.34562877059E+03  0.54260414739E+03  0.00000000000E+00 0. -1.
          5    1    4    4  502    0  0.12660319521E+03 -0.40614590158E+02  0.22054724084E+02  0.13485701623E+03  0.47000000000E+01 0. -1.
         -5    1    4    4    0  502 -0.21823278561E+02 -0.11046248046E+02 -0.26246168120E+02  0.36183234019E+02  0.47000000000E+01 0. -1.
<mgrwt>
<rscale>  0 0.99931631E+03</rscale>
<asrwt>0</asrwt>
<pdfrwt beam="1">  1        2 0.11507831E+00 0.99931631E+03</pdfrwt>
<pdfrwt beam="2">  1       -2 0.51348265E-01 0.99931631E+03</pdfrwt>
<totfact> 0.16321274E+02</totfact>
</mgrwt>
</event>
<event>
 9    1  0.4307774E-036  0.9996881E+03  0.7818608E-02  0.8681335E-01
          2   -1    0    0  501    0  0.00000000000E+00  0.00000000000E+00  0.12411888441E+04  0.12411888441E+04  0.00000000000E+00 0.  1.
         -2   -1    0    0    0  501 -0.00000000000E+00 -0.00000000000E+00 -0.20129417346E+03  0.20129417346E+03  0.00000000000E+00 0.  1.
         36    2    1    2    0    0  0.00000000000E+00 -0.14210854715E-13  0.10398946706E+04  0.14424830176E+04  0.99968811632E+03 0.  0.
         25    2    3    3    0    0 -0.13190261387E+03 -0.22387755268E+00  0.12546156239E+03  0.22059638960E+03  0.12459459779E+03 0.  0.
         35    2    3    3    0    0  0.13190261387E+03  0.22387755268E+00  0.91443310825E+03  0.12218866280E+04  0.79963783831E+03 0.  0.
         22    1    5    5    0    0 -0.23210005294E+03  0.18679797899E+03  0.69843424539E+03  0.75932490718E+03  0.00000000000E+00 0. -1.
         22    1    5    5    0    0  0.36400266682E+03 -0.18657410143E+03  0.21599886286E+03  0.46256172078E+03  0.00000000000E+00 0. -1.
          5    1    4    4  502    0 -0.13884550077E+03 -0.10499784302E+02  0.56451613524E+02  0.15032362830E+03  0.47000000000E+01 0.  1.
         -5    1    4    4    0  502  0.69428868966E+01  0.10275906750E+02  0.69009948870E+02  0.70272761302E+02  0.47000000000E+01 0.  1.
<mgrwt>
<rscale>  0 0.99968812E+03</rscale>
<asrwt>0</asrwt>
<pdfrwt beam="1">  1        2 0.19095213E+00 0.99968812E+03</pdfrwt>
<pdfrwt beam="2">  1       -2 0.30968335E-01 0.99968812E+03</pdfrwt>
<totfact> 0.20808930E+02</totfact>
</mgrwt>
</event>
<event>
 9    1  0.4307774E-036  0.9943425E+03  0.7818608E-02  0.8686444E-01
          1   -1    0    0  501    0  0.00000000000E+00  0.00000000000E+00  0.20533433572E+03  0.20533433572E+03  0.00000000000E+00 0. -1.
         -1   -1    0    0    0  501 -0.00000000000E+00 -0.00000000000E+00 -0.12037891426E+04  0.12037891426E+04  0.00000000000E+00 0. -1.
         36    2    1    2    0    0  0.00000000000E+00 -0.71054273576E-14 -0.99845480693E+03  0.14091234784E+04  0.99434248415E+03 0.  0.
         25    2    3    3    0    0 -0.72523397854E+02  0.35487588770E+02 -0.34034743957E+03  0.37145863191E+03  0.12500449355E+03 0.  0.
         35    2    3    3    0    0  0.72523397854E+02 -0.35487588770E+02 -0.65810736736E+03  0.10376648464E+04  0.79820048508E+03 0.  0.
         22    1    5    5    0    0 -0.42356465852E+02 -0.36693290328E+03 -0.56448945154E+03  0.67459778135E+03  0.00000000000E+00 0. -1.
         22    1    5    5    0    0  0.11487986371E+03  0.33144531451E+03 -0.93617915815E+02  0.36306706509E+03  0.00000000000E+00 0. -1.
          5    1    4    4  502    0 -0.25191993467E+02 -0.33709994732E+02 -0.22404823861E+03  0.22801470019E+03  0.47000000000E+01 0. -1.
         -5    1    4    4    0  502 -0.47331404387E+02  0.69197583501E+02 -0.11629920096E+03  0.14344393172E+03  0.47000000000E+01 0. -1.
<mgrwt>
<rscale>  0 0.99434248E+03</rscale>
<asrwt>0</asrwt>
<pdfrwt beam="1">  1        1 0.31589898E-01 0.99434248E+03</pdfrwt>
<pdfrwt beam="2">  1       -1 0.18519833E+00 0.99434248E+03</pdfrwt>
<totfact> 0.29875388E+01</totfact>
</mgrwt>
</event>
<event>
 9    1  0.4307774E-036  0.1000851E+04  0.7818608E-02  0.8680228E-01
          2   -1    0    0  501    0  0.00000000000E+00  0.00000000000E+00  0.20206217064E+04  0.20206217064E+04  0.00000000000E+00 0.  1.
         -2   -1    0    0    0  501 -0.00000000000E+00 -0.00000000000E+00 -0.12393485375E+03  0.12393485375E+03  0.00000000000E+00 0.  1.
         36    2    1    2    0    0  0.00000000000E+00  0.00000000000E+00  0.18966868527E+04  0.21445565602E+04  0.10008505496E+04 0.  0.
         25    2    3    3    0    0  0.58890046038E+02 -0.10718761732E+03  0.19564006496E+03  0.26214450045E+03  0.12444870939E+03 0.  0.
         35    2    3    3    0    0 -0.58890046038E+02  0.10718761732E+03  0.17010467877E+04  0.18824120598E+04  0.79684237200E+03 0.  0.
         22    1    5    5    0    0 -0.40802809632E+03  0.26918580127E+02  0.61272105608E+03  0.73664009523E+03  0.00000000000E+00 0. -1.
         22    1    5    5    0    0  0.34913805028E+03  0.80269037194E+02  0.10883257317E+04  0.11457719645E+04  0.00000000000E+00 0. -1.
          5    1    4    4  502    0  0.86392504246E+01 -0.10254367960E+02  0.13773583897E+03  0.13846674708E+03  0.47000000000E+01 0. -1.
         -5    1    4    4    0  502  0.50250795613E+02 -0.96933249361E+02  0.57904225990E+02  0.12367775337E+03  0.47000000000E+01 0. -1.
<mgrwt>
<rscale>  0 0.10008505E+04</rscale>
<asrwt>0</asrwt>
<pdfrwt beam="1">  1        2 0.31086485E+00 0.10008505E+04</pdfrwt>
<pdfrwt beam="2">  1       -2 0.19066902E-01 0.10008505E+04</pdfrwt>
<totfact> 0.17717350E+02</totfact>
</mgrwt>
</event>
<event>
 9    1  0.4307774E-036  0.9993158E+03  0.7818608E-02  0.8681690E-01
         -2   -1    0    0    0  501 -0.00000000000E+00  0.00000000000E+00  0.42131704577E+03  0.42131704577E+03  0.00000000000E+00 0. -1.
          2   -1    0    0  501    0  0.00000000000E+00 -0.00000000000E+00 -0.59256563323E+03  0.59256563323E+03  0.00000000000E+00 0. -1.
         36    2    1    2    0    0  0.00000000000E+00  0.35527136788E-13 -0.17124858746E+03  0.10138826790E+04  0.99931576995E+03 0.  0.
         25    2    3    3    0    0 -0.57363078552E+01 -0.45565279172E+02  0.10249778104E+03  0.16780670281E+03  0.12467635901E+03 0.  0.
         35    2    3    3    0    0  0.57363078552E+01  0.45565279172E+02 -0.27374636851E+03  0.84607597619E+03  0.79924863674E+03 0.  0.
         22    1    5    5    0    0  0.27938331900E+02  0.31954004257E+03  0.13948461606E+03  0.34977470937E+03  0.00000000000E+00 0.  1.
         22    1    5    5    0    0 -0.22202024044E+02 -0.27397476340E+03 -0.41323098457E+03  0.49630126683E+03  0.00000000000E+00 0.  1.
          5    1    4    4  502    0 -0.22842271367E+02 -0.17575683762E+02  0.12459863977E+03  0.12797493916E+03  0.47000000000E+01 0. -1.
         -5    1    4    4    0  502  0.17105963512E+02 -0.27989595410E+02 -0.22100858727E+02  0.39831763649E+02  0.47000000000E+01 0. -1.
<mgrwt>
<rscale>  0 0.99931577E+03</rscale>
<asrwt>0</asrwt>
<pdfrwt beam="1">  1        2 0.91163944E-01 0.99931577E+03</pdfrwt>
<pdfrwt beam="2">  1       -2 0.64818007E-01 0.99931577E+03</pdfrwt>
<totfact> 0.13379937E+02</totfact>
</mgrwt>
</event>
<event>
 9    1  0.4307774E-036  0.1001667E+04  0.7818608E-02  0.8679453E-01
          2   -1    0    0  501    0  0.00000000000E+00  0.00000000000E+00  0.13889711222E+04  0.13889711222E+04  0.00000000000E+00 0.  1.
         -2   -1    0    0    0  501 -0.00000000000E+00 -0.00000000000E+00 -0.18058976990E+03  0.18058976990E+03  0.00000000000E+00 0.  1.
         36    2    1    2    0    0  0.14210854715E-13  0.00000000000E+00  0.12083813523E+04  0.15695608921E+04  0.10016665620E+04 0.  0.
         25    2    3    3    0    0 -0.39978011835E+02 -0.13480497627E+03  0.25025960446E+03  0.31336285884E+03  0.12568129780E+03 0.  0.
         35    2    3    3    0    0  0.39978011835E+02  0.13480497627E+03  0.95812174780E+03  0.12561980332E+04  0.80016597779E+03 0.  0.
         22    1    5    5    0    0  0.10482260349E+03  0.45548315089E+03  0.68896585430E+03  0.83254226760E+03  0.00000000000E+00 0. -1.
         22    1    5    5    0    0 -0.64844591651E+02 -0.32067817462E+03  0.26915589351E+03  0.42365576563E+03  0.00000000000E+00 0. -1.
          5    1    4    4  502    0  0.45420489012E+02 -0.49756101243E+02  0.79719549156E+02  0.10447960064E+03  0.47000000000E+01 0. -1.
         -5    1    4    4    0  502 -0.85398500847E+02 -0.85048875031E+02  0.17054005531E+03  0.20888325820E+03  0.47000000000E+01 0. -1.
<mgrwt>
<rscale>  0 0.10016666E+04</rscale>
<asrwt>0</asrwt>
<pdfrwt beam="1">  1        2 0.21368786E+00 0.10016666E+04</pdfrwt>
<pdfrwt beam="2">  1       -2 0.27783042E-01 0.10016666E+04</pdfrwt>
<totfact> 0.20814575E+02</totfact>
</mgrwt>
</event>
<event>
 9    1  0.4307774E-036  0.9997000E+03  0.7818608E-02  0.8681324E-01
          2   -1    0    0  501    0  0.00000000000E+00  0.00000000000E+00  0.19216078916E+04  0.19216078916E+04  0.00000000000E+00 0. -1.
         -2   -1    0    0    0  501 -0.00000000000E+00 -0.00000000000E+00 -0.13002132699E+03  0.13002132699E+03  0.00000000000E+00 0. -1.
         36    2    1    2    0    0 -0.14210854715E-13  0.28421709430E-13  0.17915865646E+04  0.20516292185E+04  0.99969997100E+03 0.  0.
         25    2    3    3    0    0 -0.62109366281E+02  0.18699052435E+02  0.58859770318E+03  0.60528227803E+03  0.12534812312E+03 0.  0.
         35    2    3    3    0    0  0.62109366281E+02 -0.18699052435E+02  0.12029888614E+04  0.14463469405E+04  0.80033120878E+03 0.  0.
         22    1    5    5    0    0  0.30447770558E+02 -0.39745085651E+03  0.79136467103E+03  0.88608819687E+03  0.00000000000E+00 0. -1.
         22    1    5    5    0    0  0.31661595723E+02  0.37875180408E+03  0.41162419036E+03  0.56025874364E+03  0.00000000000E+00 0. -1.
          5    1    4    4  502    0 -0.73926285097E+02  0.55598271757E+02  0.29761672780E+03  0.31169547657E+03  0.47000000000E+01 0.  1.
         -5    1    4    4    0  502  0.11816918815E+02 -0.36899219322E+02  0.29098097538E+03  0.29358680146E+03  0.47000000000E+01 0.  1.
<mgrwt>
<rscale>  0 0.99969997E+03</rscale>
<asrwt>0</asrwt>
<pdfrwt beam="1">  1        2 0.29563196E+00 0.99969997E+03</pdfrwt>
<pdfrwt beam="2">  1       -2 0.20003283E-01 0.99969997E+03</pdfrwt>
<totfact> 0.18568529E+02</totfact>
</mgrwt>
</event>
<event>
 9    1  0.4307774E-036  0.1000131E+04  0.7818608E-02  0.8680913E-01
          1   -1    0    0  501    0  0.00000000000E+00  0.00000000000E+00  0.50076130213E+03  0.50076130213E+03  0.00000000000E+00 0.  1.
         -1   -1    0    0    0  501 -0.00000000000E+00 -0.00000000000E+00 -0.49937048527E+03  0.49937048527E+03  0.00000000000E+00 0.  1.
         36    2    1    2    0    0 -0.71054273576E-14  0.14210854715E-13  0.13908168599E+01  0.10001317874E+04  0.10001308203E+04 0.  0.
         25    2    3    3    0    0 -0.15913003273E+02  0.61284890850E+02 -0.12416458096E+03  0.18833201840E+03  0.12666114033E+03 0.  0.
         35    2    3    3    0    0  0.15913003273E+02 -0.61284890850E+02  0.12555539782E+03  0.81179976900E+03  0.79952838943E+03 0.  0.
         22    1    5    5    0    0 -0.18785416390E+03  0.31715886100E+03  0.19709973746E+02  0.36914416299E+03  0.00000000000E+00 0. -1.
         22    1    5    5    0    0  0.20376716717E+03 -0.37844375185E+03  0.10584542407E+03  0.44265560601E+03  0.00000000000E+00 0. -1.
          5    1    4    4  502    0 -0.34642922848E+02 -0.24403156072E+02 -0.91381483845E+01  0.43603232513E+02  0.47000000000E+01 0.  1.
         -5    1    4    4    0  502  0.18729919575E+02  0.85688046922E+02 -0.11502643257E+03  0.14472878588E+03  0.47000000000E+01 0.  1.
<mgrwt>
<rscale>  0 0.10001308E+04</rscale>
<asrwt>0</asrwt>
<pdfrwt beam="1">  1        1 0.77040201E-01 0.10001308E+04</pdfrwt>
<pdfrwt beam="2">  1       -1 0.76826228E-01 0.10001308E+04</pdfrwt>
<totfact> 0.88723360E+01</totfact>
</mgrwt>
</event>
<event>
 9    1  0.4307774E-036  0.9995667E+03  0.7818608E-02  0.8681451E-01
          1   -1    0    0  501    0  0.00000000000E+00  0.00000000000E+00  0.35137268285E+03  0.35137268285E+03  0.00000000000E+00 0. -1.
         -1   -1    0    0    0  501 -0.00000000000E+00 -0.00000000000E+00 -0.71087882124E+03  0.71087882124E+03  0.00000000000E+00 0. -1.
         36    2    1    2    0    0 -0.39079850467E-13  0.71054273576E-14 -0.35950613838E+03  0.10622515041E+04  0.99956670333E+03 0.  0.
         25    2    3    3    0    0 -0.26027339411E+02  0.14308896721E+00  0.78543337580E+02  0.14943058892E+03  0.12443071227E+03 0.  0.
         35    2    3    3    0    0  0.26027339411E+02 -0.14308896721E+00 -0.43804947597E+03  0.91282091517E+03  0.80042316115E+03 0.  0.
         22    1    5    5    0    0 -0.33508237837E+03  0.18855292278E+03 -0.28071185573E+03  0.47605834824E+03  0.00000000000E+00 0.  1.
         22    1    5    5    0    0  0.36110971779E+03 -0.18869601174E+03 -0.15733762024E+03  0.43676256693E+03  0.00000000000E+00 0.  1.
          5    1    4    4  502    0 -0.49340106268E+02  0.20624475368E+02 -0.10778797045E+02  0.54754794644E+02  0.47000000000E+01 0.  1.
         -5    1    4    4    0  502  0.23312766858E+02 -0.20481386400E+02  0.89322134626E+02  0.94675794275E+02  0.47000000000E+01 0.  1.
<mgrwt>
<rscale>  0 0.99956670E+03</rscale>
<asrwt>0</asrwt>
<pdfrwt beam="1">  1        1 0.54057337E-01 0.99956670E+03</pdfrwt>
<pdfrwt beam="2">  1       -1 0.10936597E+00 0.99956670E+03</pdfrwt>
<totfact> 0.66291413E+01</totfact>
</mgrwt>
</event>
<event>
 9    1  0.4307774E-036  0.9991166E+03  0.7818608E-02  0.8681880E-01
         -2   -1    0    0    0  501 -0.00000000000E+00  0.00000000000E+00  0.34558863568E+03  0.34558863568E+03  0.00000000000E+00 0.  1.
          2   -1    0    0  501    0  0.00000000000E+00 -0.00000000000E+00 -0.72212586571E+03  0.72212586571E+03  0.00000000000E+00 0.  1.
         36    2    1    2    0    0  0.35527136788E-14 -0.14210854715E-13 -0.37653723003E+03  0.10677145014E+04  0.99911659524E+03 0.  0.
         25    2    3    3    0    0 -0.15058377985E+02  0.10226040289E+03 -0.17331163378E+03  0.23666892765E+03  0.12365805338E+03 0.  0.
         35    2    3    3    0    0  0.15058377985E+02 -0.10226040289E+03 -0.20322559625E+03  0.83104557374E+03  0.79915715471E+03 0.  0.
         22    1    5    5    0    0 -0.30973728567E+03  0.14996297819E+03 -0.23790143829E+03  0.41835771214E+03  0.00000000000E+00 0. -1.
         22    1    5    5    0    0  0.32479566366E+03 -0.25222338108E+03  0.34675842036E+02  0.41268786161E+03  0.00000000000E+00 0. -1.
          5    1    4    4  502    0 -0.10237320286E+02  0.12861955092E+03 -0.16212224383E+03  0.20725227031E+03  0.47000000000E+01 0. -1.
         -5    1    4    4    0  502 -0.48210576997E+01 -0.26359148021E+02 -0.11189389950E+02  0.29416657342E+02  0.47000000000E+01 0. -1.
<mgrwt>
<rscale>  0 0.99911660E+03</rscale>
<asrwt>0</asrwt>
<pdfrwt beam="1">  1        2 0.11109629E+00 0.99911660E+03</pdfrwt>
<pdfrwt beam="2">  1       -2 0.53167483E-01 0.99911660E+03</pdfrwt>
<totfact> 0.15896529E+02</totfact>
</mgrwt>
</event>
<event>
 9    1  0.4307774E-036  0.1001905E+04  0.7818608E-02  0.8679226E-01
         -3   -1    0    0    0  501 -0.00000000000E+00  0.00000000000E+00  0.80651814231E+03  0.80651814231E+03  0.00000000000E+00 0.  1.
          3   -1    0    0  501    0  0.00000000000E+00 -0.00000000000E+00 -0.31115671617E+03  0.31115671617E+03  0.00000000000E+00 0.  1.
         36    2    1    2    0    0 -0.14210854715E-13 -0.28421709430E-13  0.49536142615E+03  0.11176748585E+04  0.10019052584E+04 0.  0.
         25    2    3    3    0    0 -0.86102261764E+02  0.97955535452E+02  0.15919269019E+03  0.24090177458E+03  0.12522965296E+03 0.  0.
         35    2    3    3    0    0  0.86102261764E+02 -0.97955535452E+02  0.33616873596E+03  0.87677308389E+03  0.79919505454E+03 0.  0.
         22    1    5    5    0    0 -0.28663507686E+03  0.17909386275E+03  0.83841666985E+02  0.34822938429E+03  0.00000000000E+00 0.  1.
         22    1    5    5    0    0  0.37273733862E+03 -0.27704939821E+03  0.25232706897E+03  0.52854369960E+03  0.00000000000E+00 0.  1.
          5    1    4    4  502    0 -0.62473651270E+02 -0.15534408630E+02  0.51004161178E+02  0.82266575302E+02  0.47000000000E+01 0.  1.
         -5    1    4    4    0  502 -0.23628610494E+02  0.11348994408E+03  0.10818852901E+03  0.15863519928E+03  0.47000000000E+01 0.  1.
<mgrwt>
<rscale>  0 0.10019053E+04</rscale>
<asrwt>0</asrwt>
<pdfrwt beam="1">  1        3 0.47870264E-01 0.10019053E+04</pdfrwt>
<pdfrwt beam="2">  1       -3 0.12407971E+00 0.10019053E+04</pdfrwt>
<totfact> 0.78232021E+00</totfact>
</mgrwt>
</event>
<event>
 9    1  0.4307774E-036  0.1002302E+04  0.7818608E-02  0.8678849E-01
         -2   -1    0    0    0  501 -0.00000000000E+00  0.00000000000E+00  0.60075908389E+03  0.60075908389E+03  0.00000000000E+00 0.  1.
          2   -1    0    0  501    0  0.00000000000E+00 -0.00000000000E+00 -0.41805820649E+03  0.41805820649E+03  0.00000000000E+00 0.  1.
         36    2    1    2    0    0  0.28421709430E-13 -0.14210854715E-13  0.18270087739E+03  0.10188172904E+04  0.10023018810E+04 0.  0.
         25    2    3    3    0    0  0.11486894015E+03  0.85303615905E+02  0.40100729951E+02  0.19371542734E+03  0.12428200975E+03 0.  0.
         35    2    3    3    0    0 -0.11486894015E+03 -0.85303615905E+02  0.14260014744E+03  0.82510186304E+03  0.79999168874E+03 0.  0.
         22    1    5    5    0    0 -0.42390183149E+03  0.77819690327E+02  0.19266684952E+03  0.47209022638E+03  0.00000000000E+00 0.  1.
         22    1    5    5    0    0  0.30903289133E+03 -0.16312330623E+03 -0.50066702083E+02  0.35301163666E+03  0.00000000000E+00 0.  1.
          5    1    4    4  502    0  0.69721957080E+02 -0.52456140664E+01 -0.23736668860E+02  0.73987750436E+02  0.47000000000E+01 0. -1.
         -5    1    4    4    0  502  0.45146983072E+02  0.90549229971E+02  0.63837398811E+02  0.11972767690E+03  0.47000000000E+01 0. -1.
<mgrwt>
<rscale>  0 0.10023019E+04</rscale>
<asrwt>0</asrwt>
<pdfrwt beam="1">  1        2 0.64316647E-01 0.10023019E+04</pdfrwt>
<pdfrwt beam="2">  1       -2 0.92424474E-01 0.10023019E+04</pdfrwt>
<totfact> 0.89703438E+01</totfact>
</mgrwt>
</event>
<event>
 9    1  0.4307774E-036  0.1000089E+04  0.7818608E-02  0.8680953E-01
         -2   -1    0    0    0  501 -0.00000000000E+00  0.00000000000E+00  0.51664043881E+03  0.51664043881E+03  0.00000000000E+00 0. -1.
          2   -1    0    0  501    0  0.00000000000E+00 -0.00000000000E+00 -0.48398158329E+03  0.48398158329E+03  0.00000000000E+00 0. -1.
         36    2    1    2    0    0  0.00000000000E+00  0.14210854715E-13  0.32658855516E+02  0.10006220221E+04  0.10000889112E+04 0.  0.
         25    2    3    3    0    0  0.48444456270E+02  0.12251926969E+03 -0.40649470646E+02  0.18624780139E+03  0.12521192943E+03 0.  0.
         35    2    3    3    0    0 -0.48444456270E+02 -0.12251926969E+03  0.73308326163E+02  0.81437422071E+03  0.80029583523E+03 0.  0.
         22    1    5    5    0    0  0.15765139939E+03 -0.35193336819E+03  0.24939721046E+03  0.45924941803E+03  0.00000000000E+00 0.  1.
         22    1    5    5    0    0 -0.20609585566E+03  0.22941409850E+03 -0.17608888429E+03  0.35512480268E+03  0.00000000000E+00 0.  1.
          5    1    4    4  502    0  0.39347966777E+02 -0.80659580871E+01  0.16060322495E+02  0.43512597348E+02  0.47000000000E+01 0. -1.
         -5    1    4    4    0  502  0.90964894929E+01  0.13058522778E+03 -0.56709793142E+02  0.14273520405E+03  0.47000000000E+01 0. -1.
<mgrwt>
<rscale>  0 0.10000889E+04</rscale>
<asrwt>0</asrwt>
<pdfrwt beam="1">  1        2 0.74458705E-01 0.10000889E+04</pdfrwt>
<pdfrwt beam="2">  1       -2 0.79483145E-01 0.10000889E+04</pdfrwt>
<totfact> 0.10810791E+02</totfact>
</mgrwt>
</event>
<event>
 9    1  0.4307774E-036  0.1000202E+04  0.7818608E-02  0.8680846E-01
          2   -1    0    0  501    0  0.00000000000E+00  0.00000000000E+00  0.14960675111E+04  0.14960675111E+04  0.00000000000E+00 0. -1.
         -2   -1    0    0    0  501 -0.00000000000E+00 -0.00000000000E+00 -0.16717214215E+03  0.16717214215E+03  0.00000000000E+00 0. -1.
         36    2    1    2    0    0  0.28421709430E-13  0.28421709430E-13  0.13288953689E+04  0.16632396532E+04  0.10002016009E+04 0.  0.
         25    2    3    3    0    0 -0.10926249000E+03  0.85636715904E+02  0.19709114455E+03  0.27008976151E+03  0.12178514351E+03 0.  0.
         35    2    3    3    0    0  0.10926249000E+03 -0.85636715904E+02  0.11318042244E+04  0.13931498917E+04  0.80038358281E+03 0.  0.
         22    1    5    5    0    0  0.37949908369E+03  0.17920834940E+03  0.46434983092E+03  0.62590410806E+03  0.00000000000E+00 0.  1.
         22    1    5    5    0    0 -0.27023659369E+03 -0.26484506530E+03  0.66745439345E+03  0.76724578365E+03  0.00000000000E+00 0.  1.
          5    1    4    4  502    0 -0.23549421692E+02 -0.43563280303E+01 -0.11699294774E+02  0.27065039334E+02  0.47000000000E+01 0. -1.
         -5    1    4    4    0  502 -0.85713068304E+02  0.89993043934E+02  0.20879043933E+03  0.24302472218E+03  0.47000000000E+01 0. -1.
<mgrwt>
<rscale>  0 0.10002016E+04</rscale>
<asrwt>0</asrwt>
<pdfrwt beam="1">  1        2 0.23016422E+00 0.10002016E+04</pdfrwt>
<pdfrwt beam="2">  1       -2 0.25718792E-01 0.10002016E+04</pdfrwt>
<totfact> 0.20772397E+02</totfact>
</mgrwt>
</event>
<event>
 9    1  0.4307774E-036  0.1000743E+04  0.7818608E-02  0.8680330E-01
          1   -1    0    0  501    0  0.00000000000E+00  0.00000000000E+00  0.89678180099E+03  0.89678180099E+03  0.00000000000E+00 0.  1.
         -1   -1    0    0    0  501 -0.00000000000E+00 -0.00000000000E+00 -0.27918929795E+03  0.27918929795E+03  0.00000000000E+00 0.  1.
         36    2    1    2    0    0  0.28421709430E-13  0.00000000000E+00  0.61759250304E+03  0.11759710989E+04  0.10007434865E+04 0.  0.
         25    2    3    3    0    0  0.37676331600E+02 -0.11754474934E+03  0.43064767560E+02  0.18083773022E+03  0.12494573384E+03 0.  0.
         35    2    3    3    0    0 -0.37676331600E+02  0.11754474934E+03  0.57452773548E+03  0.99513336872E+03  0.80310150582E+03 0.  0.
         22    1    5    5    0    0 -0.39040734141E+03  0.13876015131E+03  0.14509960463E+03  0.43900588503E+03  0.00000000000E+00 0. -1.
         22    1    5    5    0    0  0.35273100981E+03 -0.21215401972E+02  0.42942813084E+03  0.55612748370E+03  0.00000000000E+00 0. -1.
          5    1    4    4  502    0  0.45095695342E+02 -0.14203294949E+03  0.41562158434E+02  0.15477882120E+03  0.47000000000E+01 0.  1.
         -5    1    4    4    0  502 -0.74193637423E+01  0.24488200147E+02  0.15026091263E+01  0.26058909014E+02  0.47000000000E+01 0.  1.
<mgrwt>
<rscale>  0 0.10007435E+04</rscale>
<asrwt>0</asrwt>
<pdfrwt beam="1">  1        1 0.13796643E+00 0.10007435E+04</pdfrwt>
<pdfrwt beam="2">  1       -1 0.42952200E-01 0.10007435E+04</pdfrwt>
<totfact> 0.11039197E+02</totfact>
</mgrwt>
</event>
<event>
 9    1  0.4307774E-036  0.9985383E+03  0.7818608E-02  0.8682431E-01
          2   -1    0    0  501    0  0.00000000000E+00  0.00000000000E+00  0.69315675689E+03  0.69315675689E+03  0.00000000000E+00 0. -1.
         -2   -1    0    0    0  501 -0.00000000000E+00 -0.00000000000E+00 -0.35961515520E+03  0.35961515520E+03  0.00000000000E+00 0. -1.
         36    2    1    2    0    0  0.00000000000E+00  0.14210854715E-13  0.33354160169E+03  0.10527719121E+04  0.99853828110E+03 0.  0.
         25    2    3    3    0    0 -0.80590201059E+02 -0.41251807642E+02 -0.54169909045E+02  0.16444061924E+03  0.12613423829E+03 0.  0.
         35    2    3    3    0    0  0.80590201059E+02  0.41251807642E+02  0.38771151073E+03  0.88833129285E+03  0.79411320236E+03 0.  0.
         22    1    5    5    0    0 -0.12396601538E+03  0.14294580532E+03 -0.18935919309E+03  0.26769008244E+03  0.00000000000E+00 0.  1.
         22    1    5    5    0    0  0.20455621644E+03 -0.10169399768E+03  0.57707070383E+03  0.62064121041E+03  0.00000000000E+00 0.  1.
          5    1    4    4  502    0 -0.69977177099E+02  0.16277259308E+02  0.15189084547E+02  0.73583644750E+02  0.47000000000E+01 0. -1.
         -5    1    4    4    0  502 -0.10613023961E+02 -0.57529066950E+02 -0.69358993592E+02  0.90856974492E+02  0.47000000000E+01 0. -1.
<mgrwt>
<rscale>  0 0.99853828E+03</rscale>
<asrwt>0</asrwt>
<pdfrwt beam="1">  1        2 0.10663950E+00 0.99853828E+03</pdfrwt>
<pdfrwt beam="2">  1       -2 0.55325409E-01 0.99853828E+03</pdfrwt>
<totfact> 0.15417392E+02</totfact>
</mgrwt>
</event>
<event>
 9    1  0.4307774E-036  0.1000039E+04  0.7818608E-02  0.8681001E-01
          2   -1    0    0  501    0  0.00000000000E+00  0.00000000000E+00  0.21274462719E+04  0.21274462719E+04  0.00000000000E+00 0. -1.
         -2   -1    0    0    0  501 -0.00000000000E+00 -0.00000000000E+00 -0.11752101945E+03  0.11752101945E+03  0.00000000000E+00 0. -1.
         36    2    1    2    0    0  0.28421709430E-13  0.71054273576E-14  0.20099252525E+04  0.22449672914E+04  0.10000393086E+04 0.  0.
         25    2    3    3    0    0  0.12276188047E+03  0.42218500582E+02  0.24251266536E+03  0.30063433855E+03  0.12130841507E+03 0.  0.
         35    2    3    3    0    0 -0.12276188047E+03 -0.42218500582E+02  0.17674125871E+04  0.19443329528E+04  0.79989405378E+03 0.  0.
         22    1    5    5    0    0  0.32461605087E+03  0.12705940265E+02  0.10305797912E+04  0.10805700937E+04  0.00000000000E+00 0.  1.
         22    1    5    5    0    0 -0.44737793134E+03 -0.54924440846E+02  0.73683279594E+03  0.86376285914E+03  0.00000000000E+00 0.  1.
          5    1    4    4  502    0  0.27251151009E+02 -0.19512316926E+02  0.15054391733E+03  0.15430138297E+03  0.47000000000E+01 0.  1.
         -5    1    4    4    0  502  0.95510729462E+02  0.61730817508E+02  0.91968748028E+02  0.14633295557E+03  0.47000000000E+01 0.  1.
<mgrwt>
<rscale>  0 0.10000393E+04</rscale>
<asrwt>0</asrwt>
<pdfrwt beam="1">  1        2 0.32729940E+00 0.10000393E+04</pdfrwt>
<pdfrwt beam="2">  1       -2 0.18080158E-01 0.10000393E+04</pdfrwt>
<totfact> 0.16856021E+02</totfact>
</mgrwt>
</event>
<event>
 9    1  0.4307774E-036  0.1000135E+04  0.7818608E-02  0.8680910E-01
         -2   -1    0    0    0  501 -0.00000000000E+00  0.00000000000E+00  0.33417198439E+03  0.33417198439E+03  0.00000000000E+00 0. -1.
          2   -1    0    0  501    0  0.00000000000E+00 -0.00000000000E+00 -0.74831906176E+03  0.74831906176E+03  0.00000000000E+00 0. -1.
         36    2    1    2    0    0 -0.28421709430E-13  0.28421709430E-13 -0.41414707737E+03  0.10824910461E+04  0.10001345226E+04 0.  0.
         25    2    3    3    0    0  0.10913751862E+03 -0.66681242697E+02 -0.14105254126E+03  0.22814120981E+03  0.12567898041E+03 0.  0.
         35    2    3    3    0    0 -0.10913751862E+03  0.66681242697E+02 -0.27309453611E+03  0.85434983634E+03  0.79935951305E+03 0.  0.
         22    1    5    5    0    0  0.22275183982E+03  0.29923127223E+03 -0.13900871184E+02  0.37329742919E+03  0.00000000000E+00 0.  1.
         22    1    5    5    0    0 -0.33188935844E+03 -0.23255002953E+03 -0.25919366492E+03  0.48105240714E+03  0.00000000000E+00 0.  1.
          5    1    4    4  502    0  0.84081477494E+02 -0.15732802004E+01 -0.17276151544E+02  0.85980959988E+02  0.47000000000E+01 0.  1.
         -5    1    4    4    0  502  0.25056041126E+02 -0.65107962497E+02 -0.12377638972E+03  0.14216024982E+03  0.47000000000E+01 0.  1.
<mgrwt>
<rscale>  0 0.10001345E+04</rscale>
<asrwt>0</asrwt>
<pdfrwt beam="1">  1        2 0.11512601E+00 0.10001345E+04</pdfrwt>
<pdfrwt beam="2">  1       -2 0.51411074E-01 0.10001345E+04</pdfrwt>
<totfact> 0.16272336E+02</totfact>
</mgrwt>
</event>
<event>
 9    1  0.4307774E-036  0.1000063E+04  0.7818608E-02  0.8680978E-01
         -2   -1    0    0    0  501 -0.00000000000E+00  0.00000000000E+00  0.21007530268E+03  0.21007530268E+03  0.00000000000E+00 0. -1.
          2   -1    0    0  501    0  0.00000000000E+00 -0.00000000000E+00 -0.11901998525E+04  0.11901998525E+04  0.00000000000E+00 0. -1.
         36    2    1    2    0    0 -0.14210854715E-13  0.00000000000E+00 -0.98012454986E+03  0.14002751552E+04  0.10000631865E+04 0.  0.
         25    2    3    3    0    0  0.71215074903E+02 -0.12650827573E+03 -0.20738244102E+03  0.28249947904E+03  0.12538958526E+03 0.  0.
         35    2    3    3    0    0 -0.71215074903E+02  0.12650827573E+03 -0.77274210884E+03  0.11177756762E+04  0.79449113573E+03 0.  0.
         22    1    5    5    0    0  0.81564695277E+02  0.92397365432E+02 -0.90468782243E+03  0.91304442866E+03  0.00000000000E+00 0. -1.
         22    1    5    5    0    0 -0.15277977018E+03  0.34110910297E+02  0.13194571359E+03  0.20473124752E+03  0.00000000000E+00 0. -1.
          5    1    4    4  502    0 -0.18889574894E+02 -0.56547856519E+02 -0.13410188518E+03  0.14683283599E+03  0.47000000000E+01 0. -1.
         -5    1    4    4    0  502  0.90104649797E+02 -0.69960419211E+02 -0.73280555841E+02  0.13566664305E+03  0.47000000000E+01 0. -1.
<mgrwt>
<rscale>  0 0.10000632E+04</rscale>
<asrwt>0</asrwt>
<pdfrwt beam="1">  1        2 0.18310767E+00 0.10000632E+04</pdfrwt>
<pdfrwt beam="2">  1       -2 0.32319277E-01 0.10000632E+04</pdfrwt>
<totfact> 0.20617126E+02</totfact>
</mgrwt>
</event>
<event>
 9    1  0.4307774E-036  0.1001581E+04  0.7818608E-02  0.8679533E-01
         -1   -1    0    0    0  501 -0.00000000000E+00  0.00000000000E+00  0.68819138432E+03  0.68819138432E+03  0.00000000000E+00 0. -1.
          1   -1    0    0  501    0  0.00000000000E+00 -0.00000000000E+00 -0.36442088528E+03  0.36442088528E+03  0.00000000000E+00 0. -1.
         36    2    1    2    0    0  0.00000000000E+00  0.71054273576E-14  0.32377049904E+03  0.10526122696E+04  0.10015813767E+04 0.  0.
         25    2    3    3    0    0 -0.89992438480E+02 -0.13267150726E+02  0.17517418907E+03  0.23411277288E+03  0.12588938651E+03 0.  0.
         35    2    3    3    0    0  0.89992438480E+02  0.13267150726E+02  0.14859630996E+03  0.81849949672E+03  0.79974114970E+03 0.  0.
         22    1    5    5    0    0  0.43262391203E+03 -0.31440986958E+02 -0.19587072276E+02  0.43420690727E+03  0.00000000000E+00 0.  1.
         22    1    5    5    0    0 -0.34263147355E+03  0.44708137684E+02  0.16818338224E+03  0.38429258945E+03  0.00000000000E+00 0.  1.
          5    1    4    4  502    0 -0.87849680441E+02 -0.34283550116E+02  0.49536936793E+02  0.10662516715E+03  0.47000000000E+01 0. -1.
         -5    1    4    4    0  502 -0.21427580394E+01  0.21016399391E+02  0.12563725228E+03  0.12748760574E+03  0.47000000000E+01 0. -1.
<mgrwt>
<rscale>  0 0.10015814E+04</rscale>
<asrwt>0</asrwt>
<pdfrwt beam="1">  1        1 0.56064752E-01 0.10015814E+04</pdfrwt>
<pdfrwt beam="2">  1       -1 0.10587560E+00 0.10015814E+04</pdfrwt>
<totfact> 0.68094850E+01</totfact>
</mgrwt>
</event>
<event>
 9    1  0.4307774E-036  0.1001909E+04  0.7818608E-02  0.8679222E-01
          2   -1    0    0  501    0  0.00000000000E+00  0.00000000000E+00  0.24652556371E+04  0.24652556371E+04  0.00000000000E+00 0. -1.
         -2   -1    0    0    0  501 -0.00000000000E+00 -0.00000000000E+00 -0.10179696749E+03  0.10179696749E+03  0.00000000000E+00 0. -1.
         36    2    1    2    0    0 -0.14210854715E-13 -0.14210854715E-13  0.23634586696E+04  0.25670526046E+04  0.10019092732E+04 0.  0.
         25    2    3    3    0    0 -0.27723193828E+02  0.63957150362E+02  0.13473639528E+03  0.19828954302E+03  0.12769398615E+03 0.  0.
         35    2    3    3    0    0  0.27723193828E+02 -0.63957150362E+02  0.22287222743E+04  0.23687630616E+04  0.79935997725E+03 0.  0.
         22    1    5    5    0    0  0.17052737085E+03 -0.35708635359E+03  0.17168228627E+04  0.17618373904E+04  0.00000000000E+00 0.  1.
         22    1    5    5    0    0 -0.14280417702E+03  0.29312920323E+03  0.51189941159E+03  0.60692567119E+03  0.00000000000E+00 0.  1.
          5    1    4    4  502    0  0.42164660717E+02  0.58041499711E+02  0.47120411473E+02  0.85959859699E+02  0.47000000000E+01 0. -1.
         -5    1    4    4    0  502 -0.69887854545E+02  0.59156506516E+01  0.87615983808E+02  0.11232968332E+03  0.47000000000E+01 0. -1.
<mgrwt>
<rscale>  0 0.10019093E+04</rscale>
<asrwt>0</asrwt>
<pdfrwt beam="1">  1        2 0.37927005E+00 0.10019093E+04</pdfrwt>
<pdfrwt beam="2">  1       -2 0.15661074E-01 0.10019093E+04</pdfrwt>
<totfact> 0.13596006E+02</totfact>
</mgrwt>
</event>
<event>
 9    1  0.4307774E-036  0.9978916E+03  0.7818608E-02  0.8683048E-01
         -2   -1    0    0    0  501 -0.00000000000E+00  0.00000000000E+00  0.16324669368E+03  0.16324669368E+03  0.00000000000E+00 0.  1.
          2   -1    0    0  501    0  0.00000000000E+00 -0.00000000000E+00 -0.15249738234E+04  0.15249738234E+04  0.00000000000E+00 0.  1.
         36    2    1    2    0    0  0.28421709430E-13 -0.17763568394E-13 -0.13617271297E+04  0.16882205171E+04  0.99789164667E+03 0.  0.
         25    2    3    3    0    0  0.12643869688E+03  0.23096771605E+02 -0.16773859666E+03  0.24533504190E+03  0.12463081901E+03 0.  0.
         35    2    3    3    0    0 -0.12643869688E+03 -0.23096771605E+02 -0.11939885331E+04  0.14428854752E+04  0.79986853450E+03 0.  0.
         22    1    5    5    0    0  0.17107652175E+03  0.26632121102E+03 -0.22386089048E+03  0.38769557906E+03  0.00000000000E+00 0. -1.
         22    1    5    5    0    0 -0.29751521864E+03 -0.28941798262E+03 -0.97012764258E+03  0.10551898961E+04  0.00000000000E+00 0. -1.
          5    1    4    4  502    0  0.92128110596E+02 -0.11693925155E+02 -0.27825237554E+02  0.97060138535E+02  0.47000000000E+01 0.  1.
         -5    1    4    4    0  502  0.34310586286E+02  0.34790696760E+02 -0.13991335910E+03  0.14827490337E+03  0.47000000000E+01 0.  1.
<mgrwt>
<rscale>  0 0.99789165E+03</rscale>
<asrwt>0</asrwt>
<pdfrwt beam="1">  1        2 0.23461136E+00 0.99789165E+03</pdfrwt>
<pdfrwt beam="2">  1       -2 0.25114876E-01 0.99789165E+03</pdfrwt>
<totfact> 0.20867913E+02</totfact>
</mgrwt>
</event>
<event>
 9    1  0.4307774E-036  0.1001114E+04  0.7818608E-02  0.8679977E-01
          1   -1    0    0  501    0  0.00000000000E+00  0.00000000000E+00  0.48763381103E+03  0.48763381103E+03  0.00000000000E+00 0. -1.
         -1   -1    0    0    0  501 -0.00000000000E+00 -0.00000000000E+00 -0.51382309319E+03  0.51382309319E+03  0.00000000000E+00 0. -1.
         36    2    1    2    0    0 -0.28421709430E-13  0.00000000000E+00 -0.26189282153E+02  0.10014569042E+04  0.10011144053E+04 0.  0.
         25    2    3    3    0    0 -0.13290485636E+03 -0.35179314024E+02 -0.35145403940E+02  0.18917953440E+03  0.12510959931E+03 0.  0.
         35    2    3    3    0    0  0.13290485636E+03  0.35179314024E+02  0.89561217869E+01  0.81227736982E+03  0.80050798149E+03 0.  0.
         22    1    5    5    0    0 -0.15312160355E+03 -0.18162897293E+03 -0.26858772445E+03  0.35857310971E+03  0.00000000000E+00 0.  1.
         22    1    5    5    0    0  0.28602645991E+03  0.21680828695E+03  0.27754384624E+03  0.45370426011E+03  0.00000000000E+00 0.  1.
          5    1    4    4  502    0 -0.92378065440E+02 -0.42368340546E+02 -0.79031702665E+02  0.12882889148E+03  0.47000000000E+01 0.  1.
         -5    1    4    4    0  502 -0.40526790924E+02  0.71890265220E+01  0.43886298725E+02  0.60350642919E+02  0.47000000000E+01 0.  1.
<mgrwt>
<rscale>  0 0.10011144E+04</rscale>
<asrwt>0</asrwt>
<pdfrwt beam="1">  1        1 0.75020587E-01 0.10011144E+04</pdfrwt>
<pdfrwt beam="2">  1       -1 0.79049706E-01 0.10011144E+04</pdfrwt>
<totfact> 0.86781513E+01</totfact>
</mgrwt>
</event>
<event>
 9    1  0.4307774E-036  0.9922392E+03  0.7818608E-02  0.8688464E-01
         -1   -1    0    0    0  501 -0.00000000000E+00  0.00000000000E+00  0.53152272378E+03  0.53152272378E+03  0.00000000000E+00 0. -1.
          1   -1    0    0  501    0  0.00000000000E+00 -0.00000000000E+00 -0.46307457642E+03  0.46307457642E+03  0.00000000000E+00 0. -1.
         36    2    1    2    0    0 -0.14210854715E-13  0.71054273576E-14  0.68448147356E+02  0.99459730020E+03  0.99223920538E+03 0.  0.
         25    2    3    3    0    0  0.59494663962E+02 -0.29065875132E+02  0.12474217581E+03  0.18853549831E+03  0.12490229605E+03 0.  0.
         35    2    3    3    0    0 -0.59494663962E+02  0.29065875132E+02 -0.56294028455E+02  0.80606180189E+03  0.80136269610E+03 0.  0.
         22    1    5    5    0    0 -0.18703005288E+03 -0.34699688518E+03  0.43583816965E+02  0.39659378223E+03  0.00000000000E+00 0.  1.
         22    1    5    5    0    0  0.12753538892E+03  0.37606276031E+03 -0.99877845420E+02  0.40946801966E+03  0.00000000000E+00 0.  1.
          5    1    4    4  502    0 -0.19378611948E+02  0.33867410677E+02  0.25012616981E+02  0.46585975521E+02  0.47000000000E+01 0. -1.
         -5    1    4    4    0  502  0.78873275910E+02 -0.62933285809E+02  0.99729558830E+02  0.14194952279E+03  0.47000000000E+01 0. -1.
<mgrwt>
<rscale>  0 0.99223921E+03</rscale>
<asrwt>0</asrwt>
<pdfrwt beam="1">  1        1 0.71242242E-01 0.99223921E+03</pdfrwt>
<pdfrwt beam="2">  1       -1 0.81772727E-01 0.99223921E+03</pdfrwt>
<totfact> 0.86877837E+01</totfact>
</mgrwt>
</event>
<event>
 9    1  0.4307774E-036  0.9980176E+03  0.7818608E-02  0.8682928E-01
          1   -1    0    0  501    0  0.00000000000E+00  0.00000000000E+00  0.84609191772E+03  0.84609191772E+03  0.00000000000E+00 0. -1.
         -1   -1    0    0    0  501 -0.00000000000E+00 -0.00000000000E+00 -0.29430582910E+03  0.29430582910E+03  0.00000000000E+00 0. -1.
         36    2    1    2    0    0  0.00000000000E+00 -0.28421709430E-13  0.55178608862E+03  0.11403977468E+04  0.99801760172E+03 0.  0.
         25    2    3    3    0    0  0.10470190724E+03  0.52963464761E+02  0.18560215419E+03  0.25229216454E+03  0.12423992380E+03 0.  0.
         35    2    3    3    0    0 -0.10470190724E+03 -0.52963464761E+02  0.36618393443E+03  0.88810558228E+03  0.80054558487E+03 0.  0.
         22    1    5    5    0    0  0.44666614805E+02  0.35588486922E+03  0.80957578526E+02  0.36769998115E+03  0.00000000000E+00 0.  1.
         22    1    5    5    0    0 -0.14936852205E+03 -0.40884833398E+03  0.28522635590E+03  0.52040560113E+03  0.00000000000E+00 0.  1.
          5    1    4    4  502    0  0.59690945377E+02 -0.28701777779E+02  0.34903000979E+02  0.75014068580E+02  0.47000000000E+01 0.  1.
         -5    1    4    4    0  502  0.45010961868E+02  0.81665242540E+02  0.15069915321E+03  0.17727809596E+03  0.47000000000E+01 0.  1.
<mgrwt>
<rscale>  0 0.99801760E+03</rscale>
<asrwt>0</asrwt>
<pdfrwt beam="1">  1        1 0.13016799E+00 0.99801760E+03</pdfrwt>
<pdfrwt beam="2">  1       -1 0.45277820E-01 0.99801760E+03</pdfrwt>
<totfact> 0.11078349E+02</totfact>
</mgrwt>
</event>
<event>
 9    1  0.4307774E-036  0.1000684E+04  0.7818608E-02  0.8680387E-01
          1   -1    0    0  501    0  0.00000000000E+00  0.00000000000E+00  0.94097386254E+03  0.94097386254E+03  0.00000000000E+00 0. -1.
         -1   -1    0    0    0  501 -0.00000000000E+00 -0.00000000000E+00 -0.26604574677E+03  0.26604574677E+03  0.00000000000E+00 0. -1.
         36    2    1    2    0    0  0.14210854715E-13  0.14210854715E-13  0.67492811577E+03  0.12070196093E+04  0.10006839540E+04 0.  0.
         25    2    3    3    0    0 -0.74880124858E+02  0.18807760798E+02 -0.16735222966E+02  0.14685800371E+03  0.12380000242E+03 0.  0.
         35    2    3    3    0    0  0.74880124858E+02 -0.18807760798E+02  0.69166333874E+03  0.10601616056E+04  0.79973976447E+03 0.  0.
         22    1    5    5    0    0  0.11034388884E+02  0.26594845822E+03 -0.43029355641E+02  0.26963283482E+03  0.00000000000E+00 0.  1.
         22    1    5    5    0    0  0.63845735975E+02 -0.28475621901E+03  0.73469269438E+03  0.79052877079E+03  0.00000000000E+00 0.  1.
          5    1    4    4  502    0 -0.21884564774E+02 -0.41189930755E+02 -0.41835655473E+02  0.62831971478E+02  0.47000000000E+01 0. -1.
         -5    1    4    4    0  502 -0.52995560084E+02  0.59997691553E+02  0.25100432507E+02  0.84026032230E+02  0.47000000000E+01 0. -1.
<mgrwt>
<rscale>  0 0.10006840E+04</rscale>
<asrwt>0</asrwt>
<pdfrwt beam="1">  1        1 0.14476521E+00 0.10006840E+04</pdfrwt>
<pdfrwt beam="2">  1       -1 0.40930115E-01 0.10006840E+04</pdfrwt>
<totfact> 0.11067770E+02</totfact>
</mgrwt>
</event>
<event>
 9    1  0.4307774E-036  0.1000435E+04  0.7818608E-02  0.8680623E-01
         -2   -1    0    0    0  501 -0.00000000000E+00  0.00000000000E+00  0.29790743515E+03  0.29790743515E+03  0.00000000000E+00 0. -1.
          2   -1    0    0  501    0  0.00000000000E+00 -0.00000000000E+00 -0.83991767186E+03  0.83991767186E+03  0.00000000000E+00 0. -1.
         36    2    1    2    0    0  0.17763568394E-13  0.00000000000E+00 -0.54201023672E+03  0.11378251070E+04  0.10004353440E+04 0.  0.
         25    2    3    3    0    0  0.20711514560E+02 -0.79636127750E+02 -0.23432213968E+03  0.27798478416E+03  0.12489113420E+03 0.  0.
         35    2    3    3    0    0 -0.20711514560E+02  0.79636127750E+02 -0.30768809704E+03  0.85984032285E+03  0.79867548858E+03 0.  0.
         22    1    5    5    0    0  0.23522227077E+03 -0.23479179375E+03  0.27936143019E+02  0.33352230985E+03  0.00000000000E+00 0.  1.
         22    1    5    5    0    0 -0.25593378533E+03  0.31442792150E+03 -0.33562424005E+03  0.52631801300E+03  0.00000000000E+00 0.  1.
          5    1    4    4  502    0  0.51511943849E+02  0.10642718644E+02 -0.66821474222E+02  0.85170107646E+02  0.47000000000E+01 0. -1.
         -5    1    4    4    0  502 -0.30800429289E+02 -0.90278846394E+02 -0.16750066546E+03  0.19281467652E+03  0.47000000000E+01 0. -1.
<mgrwt>
<rscale>  0 0.10004353E+04</rscale>
<asrwt>0</asrwt>
<pdfrwt beam="1">  1        2 0.12921810E+00 0.10004353E+04</pdfrwt>
<pdfrwt beam="2">  1       -2 0.45831913E-01 0.10004353E+04</pdfrwt>
<totfact> 0.17623670E+02</totfact>
</mgrwt>
</event>
<event>
 9    1  0.4307774E-036  0.9990786E+03  0.7818608E-02  0.8681916E-01
          2   -1    0    0  501    0  0.00000000000E+00  0.00000000000E+00  0.13814900244E+04  0.13814900244E+04  0.00000000000E+00 0. -1.
         -2   -1    0    0    0  501 -0.00000000000E+00 -0.00000000000E+00 -0.18063071783E+03  0.18063071783E+03  0.00000000000E+00 0. -1.
         36    2    1    2    0    0 -0.28421709430E-13 -0.28421709430E-13  0.12008593066E+04  0.15621207422E+04  0.99907864512E+03 0.  0.
         25    2    3    3    0    0 -0.24689700815E+02  0.11571803855E+03  0.35093111703E+03  0.39052991660E+03  0.12393837617E+03 0.  0.
         35    2    3    3    0    0  0.24689700815E+02 -0.11571803855E+03  0.84992818954E+03  0.11715908256E+04  0.79765085693E+03 0.  0.
         22    1    5    5    0    0  0.37982553259E+03  0.85099192124E+02  0.50319920506E+03  0.63617509200E+03  0.00000000000E+00 0. -1.
         22    1    5    5    0    0 -0.35513583178E+03 -0.20081723067E+03  0.34672898448E+03  0.53541573363E+03  0.00000000000E+00 0. -1.
          5    1    4    4  502    0 -0.69697047587E+02  0.92410022399E+02  0.28179413672E+03  0.30467575580E+03  0.47000000000E+01 0.  1.
         -5    1    4    4    0  502  0.45007346773E+02  0.23308016149E+02  0.69136980304E+02  0.85854160795E+02  0.47000000000E+01 0.  1.
<mgrwt>
<rscale>  0 0.99907865E+03</rscale>
<asrwt>0</asrwt>
<pdfrwt beam="1">  1        2 0.21253692E+00 0.99907865E+03</pdfrwt>
<pdfrwt beam="2">  1       -2 0.27789342E-01 0.99907865E+03</pdfrwt>
<totfact> 0.21012500E+02</totfact>
</mgrwt>
</event>
<event>
 9    1  0.4307774E-036  0.1002133E+04  0.7818608E-02  0.8679010E-01
          2   -1    0    0  501    0  0.00000000000E+00  0.00000000000E+00  0.31348870016E+03  0.31348870016E+03  0.00000000000E+00 0.  1.
         -2   -1    0    0    0  501 -0.00000000000E+00 -0.00000000000E+00 -0.80088228511E+03  0.80088228511E+03  0.00000000000E+00 0.  1.
         36    2    1    2    0    0  0.71054273576E-14  0.00000000000E+00 -0.48739358495E+03  0.11143709853E+04  0.10021328186E+04 0.  0.
         25    2    3    3    0    0 -0.39898639067E+02  0.90606532514E+02 -0.20649431441E+03  0.26070409386E+03  0.12460047165E+03 0.  0.
         35    2    3    3    0    0  0.39898639067E+02 -0.90606532514E+02 -0.28089927054E+03  0.85366689142E+03  0.80002582220E+03 0.  0.
         22    1    5    5    0    0 -0.17185976344E+03  0.86106085052E+01  0.23265549018E+03  0.28937604943E+03  0.00000000000E+00 0. -1.
         22    1    5    5    0    0  0.21175840251E+03 -0.99217141019E+02 -0.51355476072E+03  0.56429084200E+03  0.00000000000E+00 0. -1.
          5    1    4    4  502    0 -0.72842469500E+01  0.60700911498E+02 -0.13683619392E+02  0.62825093315E+02  0.47000000000E+01 0. -1.
         -5    1    4    4    0  502 -0.32614392117E+02  0.29905621015E+02 -0.19281069502E+03  0.19787900054E+03  0.47000000000E+01 0. -1.
<mgrwt>
<rscale>  0 0.10021328E+04</rscale>
<asrwt>0</asrwt>
<pdfrwt beam="1">  1        2 0.48229030E-01 0.10021328E+04</pdfrwt>
<pdfrwt beam="2">  1       -2 0.12321266E+00 0.10021328E+04</pdfrwt>
<totfact> 0.60391422E+01</totfact>
</mgrwt>
</event>
<event>
 9    1  0.4307774E-036  0.1000238E+04  0.7818608E-02  0.8680811E-01
          2   -1    0    0  501    0  0.00000000000E+00  0.00000000000E+00  0.16120862572E+04  0.16120862572E+04  0.00000000000E+00 0. -1.
         -2   -1    0    0    0  501 -0.00000000000E+00 -0.00000000000E+00 -0.15515234815E+03  0.15515234815E+03  0.00000000000E+00 0. -1.
         36    2    1    2    0    0  0.00000000000E+00 -0.71054273576E-14  0.14569339090E+04  0.17672386053E+04  0.10002379081E+04 0.  0.
         25    2    3    3    0    0 -0.71424668249E+02 -0.31963198971E+02  0.70047139604E+02  0.16452217361E+03  0.12664049321E+03 0.  0.
         35    2    3    3    0    0  0.71424668249E+02  0.31963198971E+02  0.13868867694E+04  0.16027164317E+04  0.79945101160E+03 0.  0.
         22    1    5    5    0    0 -0.35823451965E+03 -0.30665514710E+02  0.50723733301E+03  0.62174114940E+03  0.00000000000E+00 0.  1.
         22    1    5    5    0    0  0.42965918790E+03  0.62628713681E+02  0.87964943640E+03  0.98097528229E+03  0.00000000000E+00 0.  1.
          5    1    4    4  502    0  0.26006193503E+02  0.23475135265E+02  0.26464388172E+02  0.44157195535E+02  0.47000000000E+01 0.  1.
         -5    1    4    4    0  502 -0.97430861752E+02 -0.55438334236E+02  0.43582751432E+02  0.12036497807E+03  0.47000000000E+01 0.  1.
<mgrwt>
<rscale>  0 0.10002379E+04</rscale>
<asrwt>0</asrwt>
<pdfrwt beam="1">  1        2 0.24801326E+00 0.10002379E+04</pdfrwt>
<pdfrwt beam="2">  1       -2 0.23869593E-01 0.10002379E+04</pdfrwt>
<totfact> 0.20388432E+02</totfact>
</mgrwt>
</event>
<event>
 9    1  0.4307774E-036  0.9994919E+03  0.7818608E-02  0.8681522E-01
          1   -1    0    0  501    0  0.00000000000E+00  0.00000000000E+00  0.81774547296E+03  0.81774547296E+03  0.00000000000E+00 0. -1.
         -1   -1    0    0    0  501 -0.00000000000E+00 -0.00000000000E+00 -0.30540798178E+03  0.30540798178E+03  0.00000000000E+00 0. -1.
         36    2    1    2    0    0  0.28421709430E-13  0.35527136788E-14  0.51233749118E+03  0.11231534547E+04  0.99949185991E+03 0.  0.
         25    2    3    3    0    0 -0.64331341455E+02 -0.81387297120E+01  0.23523298619E+03  0.27372816782E+03  0.12404753788E+03 0.  0.
         35    2    3    3    0    0  0.64331341455E+02  0.81387297120E+01  0.27710450499E+03  0.84942528691E+03  0.80033221286E+03 0.  0.
         22    1    5    5    0    0  0.33730566436E+02  0.36519947801E+03 -0.42543569463E+02  0.36921317034E+03  0.00000000000E+00 0.  1.
         22    1    5    5    0    0  0.30600775019E+02 -0.35706074829E+03  0.31964807445E+03  0.48021211658E+03  0.00000000000E+00 0.  1.
          5    1    4    4  502    0 -0.80779229609E+02 -0.16140493538E+02  0.72301808699E+02  0.10970615757E+03  0.47000000000E+01 0. -1.
         -5    1    4    4    0  502  0.16447888154E+02  0.80017638263E+01  0.16293117749E+03  0.16402201025E+03  0.47000000000E+01 0. -1.
<mgrwt>
<rscale>  0 0.99949186E+03</rscale>
<asrwt>0</asrwt>
<pdfrwt beam="1">  1        1 0.12580700E+00 0.99949186E+03</pdfrwt>
<pdfrwt beam="2">  1       -1 0.46985844E-01 0.99949186E+03</pdfrwt>
<totfact> 0.10956124E+02</totfact>
</mgrwt>
</event>
<event>
 9    1  0.4307774E-036  0.9996433E+03  0.7818608E-02  0.8681378E-01
         -2   -1    0    0    0  501 -0.00000000000E+00  0.00000000000E+00  0.10454422697E+03  0.10454422697E+03  0.00000000000E+00 0. -1.
          2   -1    0    0  501    0  0.00000000000E+00 -0.00000000000E+00 -0.23896265909E+04  0.23896265909E+04  0.00000000000E+00 0. -1.
         36    2    1    2    0    0  0.00000000000E+00 -0.28421709430E-13 -0.22850823639E+04  0.24941708179E+04  0.99964326577E+03 0.  0.
         25    2    3    3    0    0  0.94067976894E+02  0.96265744831E+02 -0.52426448681E+03  0.55548643137E+03  0.12488412790E+03 0.  0.
         35    2    3    3    0    0 -0.94067976894E+02 -0.96265744831E+02 -0.17608178771E+04  0.19386843865E+04  0.79993854526E+03 0.  0.
         22    1    5    5    0    0 -0.26963545563E+03 -0.38188967683E+03 -0.88491023241E+03  0.10008042384E+04  0.00000000000E+00 0. -1.
         22    1    5    5    0    0  0.17556747874E+03  0.28562393200E+03 -0.87590764473E+03  0.93788014811E+03  0.00000000000E+00 0. -1.
          5    1    4    4  502    0  0.14788048877E+02  0.23817365374E+02 -0.34707489602E+03  0.34823702665E+03  0.47000000000E+01 0. -1.
         -5    1    4    4    0  502  0.79279928017E+02  0.72448379457E+02 -0.17718959079E+03  0.20724940472E+03  0.47000000000E+01 0. -1.
<mgrwt>
<rscale>  0 0.99964327E+03</rscale>
<asrwt>0</asrwt>
<pdfrwt beam="1">  1        2 0.36763489E+00 0.99964327E+03</pdfrwt>
<pdfrwt beam="2">  1       -2 0.16083726E-01 0.99964327E+03</pdfrwt>
<totfact> 0.14433733E+02</totfact>
</mgrwt>
</event>
<event>
 9    1  0.4307774E-036  0.1002580E+04  0.7818608E-02  0.8678585E-01
         -1   -1    0    0    0  501 -0.00000000000E+00  0.00000000000E+00  0.39581087322E+03  0.39581087322E+03  0.00000000000E+00 0. -1.
          1   -1    0    0  501    0  0.00000000000E+00 -0.00000000000E+00 -0.63487757136E+03  0.63487757136E+03  0.00000000000E+00 0. -1.
         36    2    1    2    0    0  0.14210854715E-13  0.00000000000E+00 -0.23906669813E+03  0.10306884446E+04  0.10025795647E+04 0.  0.
         25    2    3    3    0    0  0.26144229371E+02  0.85955861388E+02 -0.15808963180E+03  0.22097224457E+03  0.12555664201E+03 0.  0.
         35    2    3    3    0    0 -0.26144229371E+02 -0.85955861388E+02 -0.80977066332E+02  0.80971620000E+03  0.80063169338E+03 0.  0.
         22    1    5    5    0    0 -0.32734187981E+03  0.17624948106E+03  0.78046698527E+02  0.37987876093E+03  0.00000000000E+00 0. -1.
         22    1    5    5    0    0  0.30119765044E+03 -0.26220534245E+03 -0.15902376486E+03  0.42983743908E+03  0.00000000000E+00 0. -1.
          5    1    4    4  502    0  0.41005643609E+02  0.95922439360E+02 -0.58533147365E+02  0.11971130490E+03  0.47000000000E+01 0. -1.
         -5    1    4    4    0  502 -0.14861414239E+02 -0.99665779726E+01 -0.99556484438E+02  0.10126093967E+03  0.47000000000E+01 0. -1.
<mgrwt>
<rscale>  0 0.10025796E+04</rscale>
<asrwt>0</asrwt>
<pdfrwt beam="1">  1        1 0.97673471E-01 0.10025796E+04</pdfrwt>
<pdfrwt beam="2">  1       -1 0.60893981E-01 0.10025796E+04</pdfrwt>
<totfact> 0.99934259E+01</totfact>
</mgrwt>
</event>
<event>
 9    1  0.4307774E-036  0.9999703E+03  0.7818608E-02  0.8681066E-01
          2   -1    0    0  501    0  0.00000000000E+00  0.00000000000E+00  0.14548584442E+04  0.14548584442E+04  0.00000000000E+00 0. -1.
         -2   -1    0    0    0  501 -0.00000000000E+00 -0.00000000000E+00 -0.17182781390E+03  0.17182781390E+03  0.00000000000E+00 0. -1.
         36    2    1    2    0    0  0.00000000000E+00 -0.71054273576E-14  0.12830306303E+04  0.16266862581E+04  0.99997029157E+03 0.  0.
         25    2    3    3    0    0  0.77346595480E+02  0.22922253641E+02  0.56199869370E+02  0.15978421881E+03  0.12595493527E+03 0.  0.
         35    2    3    3    0    0 -0.77346595480E+02 -0.22922253641E+02  0.12268307609E+04  0.14669020393E+04  0.80011246170E+03 0.  0.
         22    1    5    5    0    0  0.28485634077E+03 -0.24448539173E+03  0.50148047588E+03  0.62641751998E+03  0.00000000000E+00 0.  1.
         22    1    5    5    0    0 -0.36220293625E+03  0.22156313809E+03  0.72535028506E+03  0.84048451933E+03  0.00000000000E+00 0.  1.
          5    1    4    4  502    0 -0.25753016945E+02  0.35913367571E+02  0.25908032221E+02  0.51442239314E+02  0.47000000000E+01 0.  1.
         -5    1    4    4    0  502  0.10309961242E+03 -0.12991113930E+02  0.30291837149E+02  0.10834197950E+03  0.47000000000E+01 0.  1.
<mgrwt>
<rscale>  0 0.99997029E+03</rscale>
<asrwt>0</asrwt>
<pdfrwt beam="1">  1        2 0.22382437E+00 0.99997029E+03</pdfrwt>
<pdfrwt beam="2">  1       -2 0.26435049E-01 0.99997029E+03</pdfrwt>
<totfact> 0.20872085E+02</totfact>
</mgrwt>
</event>
<event>
 9    1  0.4307774E-036  0.9988798E+03  0.7818608E-02  0.8682105E-01
          1   -1    0    0  501    0  0.00000000000E+00  0.00000000000E+00  0.90926661588E+03  0.90926661588E+03  0.00000000000E+00 0.  1.
         -1   -1    0    0    0  501 -0.00000000000E+00 -0.00000000000E+00 -0.27433120892E+03  0.27433120892E+03  0.00000000000E+00 0.  1.
         36    2    1    2    0    0  0.28421709430E-13  0.28421709430E-13  0.63493540696E+03  0.11835978248E+04  0.99887979250E+03 0.  0.
         25    2    3    3    0    0 -0.83861391557E+02 -0.80342620204E+02  0.20972679912E+03  0.27022727687E+03  0.12469876213E+03 0.  0.
         35    2    3    3    0    0  0.83861391557E+02  0.80342620204E+02  0.42520860783E+03  0.91337054793E+03  0.79997232955E+03 0.  0.
         22    1    5    5    0    0  0.38309335628E+03 -0.11288586570E+03  0.38530436469E+03  0.55494431410E+03  0.00000000000E+00 0.  1.
         22    1    5    5    0    0 -0.29923196473E+03  0.19322848590E+03  0.39904243139E+02  0.35842623383E+03  0.00000000000E+00 0.  1.
          5    1    4    4  502    0 -0.35538460375E+02  0.16454672938E+02  0.12972744969E+03  0.13559144379E+03  0.47000000000E+01 0. -1.
         -5    1    4    4    0  502 -0.48322931182E+02 -0.96797293142E+02  0.79999349434E+02  0.13463583307E+03  0.47000000000E+01 0. -1.
<mgrwt>
<rscale>  0 0.99887979E+03</rscale>
<asrwt>0</asrwt>
<pdfrwt beam="1">  1        1 0.13988717E+00 0.99887979E+03</pdfrwt>
<pdfrwt beam="2">  1       -1 0.42204802E-01 0.99887979E+03</pdfrwt>
<totfact> 0.11126117E+02</totfact>
</mgrwt>
</event>
<event>
 9    1  0.4307774E-036  0.1000119E+04  0.7818608E-02  0.8680924E-01
         -2   -1    0    0    0  501 -0.00000000000E+00  0.00000000000E+00  0.27636012049E+03  0.27636012049E+03  0.00000000000E+00 0.  1.
          2   -1    0    0  501    0  0.00000000000E+00 -0.00000000000E+00 -0.90483262531E+03  0.90483262531E+03  0.00000000000E+00 0.  1.
         36    2    1    2    0    0  0.42632564146E-13  0.00000000000E+00 -0.62847250482E+03  0.11811927458E+04  0.10001192996E+04 0.  0.
         25    2    3    3    0    0 -0.90608680246E+02 -0.42498549911E+02 -0.23494387042E+03  0.28403216252E+03  0.12433658922E+03 0.  0.
         35    2    3    3    0    0  0.90608680246E+02  0.42498549911E+02 -0.39352863440E+03  0.89716058328E+03  0.80001016645E+03 0.  0.
         22    1    5    5    0    0 -0.34754159300E+03  0.21692338428E+02 -0.27238182954E+03  0.44209453455E+03  0.00000000000E+00 0. -1.
         22    1    5    5    0    0  0.43815027325E+03  0.20806211483E+02 -0.12114680486E+03  0.45506604873E+03  0.00000000000E+00 0. -1.
          5    1    4    4  502    0 -0.19692710734E+02 -0.72547360072E+02 -0.74210137496E+02  0.10573626065E+03  0.47000000000E+01 0. -1.
         -5    1    4    4    0  502 -0.70915969512E+02  0.30048810161E+02 -0.16073373292E+03  0.17829590187E+03  0.47000000000E+01 0. -1.
<mgrwt>
<rscale>  0 0.10001193E+04</rscale>
<asrwt>0</asrwt>
<pdfrwt beam="1">  1        2 0.13920502E+00 0.10001193E+04</pdfrwt>
<pdfrwt beam="2">  1       -2 0.42516942E-01 0.10001193E+04</pdfrwt>
<totfact> 0.18461396E+02</totfact>
</mgrwt>
</event>
<event>
 9    1  0.4307774E-036  0.1001628E+04  0.7818608E-02  0.8679490E-01
          1   -1    0    0  501    0  0.00000000000E+00  0.00000000000E+00  0.53737647878E+03  0.53737647878E+03  0.00000000000E+00 0. -1.
         -1   -1    0    0    0  501 -0.00000000000E+00 -0.00000000000E+00 -0.46673884464E+03  0.46673884464E+03  0.00000000000E+00 0. -1.
         36    2    1    2    0    0  0.00000000000E+00  0.00000000000E+00  0.70637634140E+02  0.10041153234E+04  0.10016276291E+04 0.  0.
         25    2    3    3    0    0  0.13506582957E+03  0.36625826630E+02  0.28016270992E+02  0.18970500502E+03  0.12497538957E+03 0.  0.
         35    2    3    3    0    0 -0.13506582957E+03 -0.36625826630E+02  0.42621363147E+02  0.81441031840E+03  0.80116375144E+03 0.  0.
         22    1    5    5    0    0  0.30852918228E+03 -0.16712130132E+03  0.21132186467E+02  0.35152006341E+03  0.00000000000E+00 0. -1.
         22    1    5    5    0    0 -0.44359501185E+03  0.13049547469E+03  0.21489176680E+02  0.46289025499E+03  0.00000000000E+00 0. -1.
          5    1    4    4  502    0 -0.12393028069E+02 -0.19184103229E+02 -0.13035114227E+02  0.26713688706E+02  0.47000000000E+01 0. -1.
         -5    1    4    4    0  502  0.14745885764E+03  0.55809929859E+02  0.41051385219E+02  0.16299131632E+03  0.47000000000E+01 0. -1.
<mgrwt>
<rscale>  0 0.10016276E+04</rscale>
<asrwt>0</asrwt>
<pdfrwt beam="1">  1        1 0.82673304E-01 0.10016276E+04</pdfrwt>
<pdfrwt beam="2">  1       -1 0.71805976E-01 0.10016276E+04</pdfrwt>
<totfact> 0.92141814E+01</totfact>
</mgrwt>
</event>
<event>
 9    1  0.4307774E-036  0.1000195E+04  0.7818608E-02  0.8680853E-01
         -2   -1    0    0    0  501 -0.00000000000E+00  0.00000000000E+00  0.62869086521E+02  0.62869086521E+02  0.00000000000E+00 0.  1.
          2   -1    0    0  501    0  0.00000000000E+00 -0.00000000000E+00 -0.39780652309E+04  0.39780652309E+04  0.00000000000E+00 0.  1.
         36    2    1    2    0    0  0.28421709430E-13 -0.14210854715E-13 -0.39151961443E+04  0.40409343174E+04  0.10001946354E+04 0.  0.
         25    2    3    3    0    0  0.15334989116E+02  0.12310168886E+03 -0.10013271453E+04  0.10166316718E+04  0.12447777541E+03 0.  0.
         35    2    3    3    0    0 -0.15334989116E+02 -0.12310168886E+03 -0.29138689991E+04  0.30243026456E+04  0.80024043925E+03 0.  0.
         22    1    5    5    0    0  0.35989096340E+03 -0.29146774093E+02 -0.19937941858E+04  0.20262246409E+04  0.00000000000E+00 0.  1.
         22    1    5    5    0    0 -0.37522595251E+03 -0.93954914762E+02 -0.92007481326E+03  0.99807800469E+03  0.00000000000E+00 0.  1.
          5    1    4    4  502    0 -0.41365053551E+02  0.23420850903E+02 -0.50275466597E+03  0.50501876011E+03  0.47000000000E+01 0. -1.
         -5    1    4    4    0  502  0.56700042667E+02  0.99680837952E+02 -0.49857247929E+03  0.51161291168E+03  0.47000000000E+01 0. -1.
<mgrwt>
<rscale>  0 0.10001946E+04</rscale>
<asrwt>0</asrwt>
<pdfrwt beam="1">  1        2 0.61201008E+00 0.10001946E+04</pdfrwt>
<pdfrwt beam="2">  1       -2 0.96721664E-02 0.10001946E+04</pdfrwt>
<totfact> 0.25041207E+01</totfact>
</mgrwt>
</event>
<event>
 9    1  0.4307774E-036  0.1001735E+04  0.7818608E-02  0.8679387E-01
          2   -1    0    0  501    0  0.00000000000E+00  0.00000000000E+00  0.96922867438E+03  0.96922867438E+03  0.00000000000E+00 0. -1.
         -2   -1    0    0    0  501 -0.00000000000E+00 -0.00000000000E+00 -0.25883311057E+03  0.25883311057E+03  0.00000000000E+00 0. -1.
         36    2    1    2    0    0  0.00000000000E+00 -0.14210854715E-13  0.71039556381E+03  0.12280617849E+04  0.10017354394E+04 0.  0.
         25    2    3    3    0    0  0.41729457382E+02 -0.10531238565E+03  0.42688514102E+02  0.17913895895E+03  0.13204700372E+03 0.  0.
         35    2    3    3    0    0 -0.41729457382E+02  0.10531238565E+03  0.66770704971E+03  0.10489228260E+04  0.80098336093E+03 0.  0.
         22    1    5    5    0    0 -0.88684073586E+02 -0.25193532135E+03 -0.24847749930E+02  0.26824183441E+03  0.00000000000E+00 0. -1.
         22    1    5    5    0    0  0.46954616204E+02  0.35724770700E+03  0.69255479964E+03  0.78068099159E+03  0.00000000000E+00 0. -1.
          5    1    4    4  502    0 -0.95925205993E+01  0.55324440570E+01 -0.33163160866E+02  0.35277608016E+02  0.47000000000E+01 0. -1.
         -5    1    4    4    0  502  0.51321977981E+02 -0.11084482971E+03  0.75851674969E+02  0.14386135093E+03  0.47000000000E+01 0. -1.
<mgrwt>
<rscale>  0 0.10017354E+04</rscale>
<asrwt>0</asrwt>
<pdfrwt beam="1">  1        2 0.14911210E+00 0.10017354E+04</pdfrwt>
<pdfrwt beam="2">  1       -2 0.39820479E-01 0.10017354E+04</pdfrwt>
<totfact> 0.19027839E+02</totfact>
</mgrwt>
</event>
<event>
 9    1  0.4307774E-036  0.1000737E+04  0.7818608E-02  0.8680337E-01
         -2   -1    0    0    0  501 -0.00000000000E+00  0.00000000000E+00  0.24115716517E+03  0.24115716517E+03  0.00000000000E+00 0. -1.
          2   -1    0    0  501    0  0.00000000000E+00 -0.00000000000E+00 -0.10381967829E+04  0.10381967829E+04  0.00000000000E+00 0. -1.
         36    2    1    2    0    0 -0.14210854715E-13  0.00000000000E+00 -0.79703961774E+03  0.12793539481E+04  0.10007369146E+04 0.  0.
         25    2    3    3    0    0 -0.86917116671E+02  0.10239022008E+03 -0.20809406489E+03  0.27747052178E+03  0.12509359808E+03 0.  0.
         35    2    3    3    0    0  0.86917116671E+02 -0.10239022008E+03 -0.58894555285E+03  0.10018834263E+04  0.79929668667E+03 0.  0.
         22    1    5    5    0    0  0.37597521223E+03  0.69116514285E+02 -0.54091213398E+03  0.66235971303E+03  0.00000000000E+00 0.  1.
         22    1    5    5    0    0 -0.28905809556E+03 -0.17150673437E+03 -0.48033418873E+02  0.33952371326E+03  0.00000000000E+00 0.  1.
          5    1    4    4  502    0 -0.98282396508E+01 -0.90554125552E+01  0.12264298968E+02  0.18737604445E+02  0.47000000000E+01 0. -1.
         -5    1    4    4    0  502 -0.77088877021E+02  0.11144563264E+03 -0.22035836386E+03  0.25873291734E+03  0.47000000000E+01 0. -1.
<mgrwt>
<rscale>  0 0.10007369E+04</rscale>
<asrwt>0</asrwt>
<pdfrwt beam="1">  1        2 0.15972258E+00 0.10007369E+04</pdfrwt>
<pdfrwt beam="2">  1       -2 0.37101102E-01 0.10007369E+04</pdfrwt>
<totfact> 0.19700046E+02</totfact>
</mgrwt>
</event>
<event>
 9    1  0.4307774E-036  0.1001010E+04  0.7818608E-02  0.8680077E-01
          1   -1    0    0  501    0  0.00000000000E+00  0.00000000000E+00  0.15923165942E+03  0.15923165942E+03  0.00000000000E+00 0. -1.
         -1   -1    0    0    0  501 -0.00000000000E+00 -0.00000000000E+00 -0.15732125587E+04  0.15732125587E+04  0.00000000000E+00 0. -1.
         36    2    1    2    0    0  0.35527136788E-13 -0.28421709430E-13 -0.14139808993E+04  0.17324442181E+04  0.10010099826E+04 0.  0.
         25    2    3    3    0    0 -0.60426974556E+01 -0.74108079943E+02 -0.47566675461E+03  0.49714492962E+03  0.12395845233E+03 0.  0.
         35    2    3    3    0    0  0.60426974556E+01  0.74108079943E+02 -0.93831414466E+03  0.12352992885E+04  0.80000148522E+03 0.  0.
         22    1    5    5    0    0 -0.30803706090E+03  0.24737208154E+03 -0.70267942924E+03  0.80612539836E+03  0.00000000000E+00 0.  1.
         22    1    5    5    0    0  0.31407975835E+03 -0.17326400159E+03 -0.23563471542E+03  0.42917389013E+03  0.00000000000E+00 0.  1.
          5    1    4    4  502    0  0.51800906899E+02 -0.66312471808E+02 -0.31722071444E+03  0.32822515068E+03  0.47000000000E+01 0.  1.
         -5    1    4    4    0  502 -0.57843604355E+02 -0.77956081345E+01 -0.15844604017E+03  0.16891977894E+03  0.47000000000E+01 0.  1.
<mgrwt>
<rscale>  0 0.10010100E+04</rscale>
<asrwt>0</asrwt>
<pdfrwt beam="1">  1        1 0.24497178E-01 0.10010100E+04</pdfrwt>
<pdfrwt beam="2">  1       -1 0.24203270E+00 0.10010100E+04</pdfrwt>
<totfact> 0.13350940E+01</totfact>
</mgrwt>
</event>
<event>
 9    1  0.4307774E-036  0.1001094E+04  0.7818608E-02  0.8679997E-01
          1   -1    0    0  501    0  0.00000000000E+00  0.00000000000E+00  0.25943138487E+03  0.25943138487E+03  0.00000000000E+00 0.  1.
         -1   -1    0    0    0  501 -0.00000000000E+00 -0.00000000000E+00 -0.96575524090E+03  0.96575524090E+03  0.00000000000E+00 0.  1.
         36    2    1    2    0    0  0.00000000000E+00 -0.14210854715E-13 -0.70632385603E+03  0.12251866258E+04  0.10010938409E+04 0.  0.
         25    2    3    3    0    0 -0.98283224684E+02 -0.92468250899E+02 -0.19368118067E+03  0.26712388470E+03  0.12503119751E+03 0.  0.
         35    2    3    3    0    0  0.98283224684E+02  0.92468250899E+02 -0.51264267536E+03  0.95806274107E+03  0.79804243844E+03 0.  0.
         22    1    5    5    0    0  0.37608278785E+03  0.83033621846E+02 -0.11874102728E+02  0.38532303330E+03  0.00000000000E+00 0. -1.
         22    1    5    5    0    0 -0.27779956317E+03  0.94346290529E+01 -0.50076857263E+03  0.57273970777E+03  0.00000000000E+00 0. -1.
          5    1    4    4  502    0 -0.46303079671E+02 -0.87000983474E+02 -0.19051723947E+03  0.21455082113E+03  0.47000000000E+01 0.  1.
         -5    1    4    4    0  502 -0.51980145013E+02 -0.54672674247E+01 -0.31639411983E+01  0.52573063565E+02  0.47000000000E+01 0.  1.
<mgrwt>
<rscale>  0 0.10010938E+04</rscale>
<asrwt>0</asrwt>
<pdfrwt beam="1">  1        1 0.39912521E-01 0.10010938E+04</pdfrwt>
<pdfrwt beam="2">  1       -1 0.14857773E+00 0.10010938E+04</pdfrwt>
<totfact> 0.44639195E+01</totfact>
</mgrwt>
</event>
<event>
 9    1  0.4307774E-036  0.9998935E+03  0.7818608E-02  0.8681139E-01
         -2   -1    0    0    0  501 -0.00000000000E+00  0.00000000000E+00  0.28392076122E+03  0.28392076122E+03  0.00000000000E+00 0. -1.
          2   -1    0    0  501    0  0.00000000000E+00 -0.00000000000E+00 -0.88033980602E+03  0.88033980602E+03  0.00000000000E+00 0. -1.
         36    2    1    2    0    0  0.00000000000E+00  0.28421709430E-13 -0.59641904479E+03  0.11642605672E+04  0.99989349005E+03 0.  0.
         25    2    3    3    0    0 -0.10253698028E+03  0.35611077895E+02 -0.21505855631E+03  0.27130384089E+03  0.12479427170E+03 0.  0.
         35    2    3    3    0    0  0.10253698028E+03 -0.35611077895E+02 -0.38136048849E+03  0.89295672635E+03  0.80009618907E+03 0.  0.
         22    1    5    5    0    0 -0.19863624721E+03 -0.31742840022E+03 -0.28180516121E+03  0.46864837230E+03  0.00000000000E+00 0.  1.
         22    1    5    5    0    0  0.30117322749E+03  0.28181732233E+03 -0.99555327276E+02  0.42430835405E+03  0.00000000000E+00 0.  1.
          5    1    4    4  502    0 -0.40041762444E+02 -0.44060632569E+02 -0.51399849303E+02  0.78795409703E+02  0.47000000000E+01 0.  1.
         -5    1    4    4    0  502 -0.62495217836E+02  0.79671710464E+02 -0.16365870700E+03  0.19250843119E+03  0.47000000000E+01 0.  1.
<mgrwt>
<rscale>  0 0.99989349E+03</rscale>
<asrwt>0</asrwt>
<pdfrwt beam="1">  1        2 0.13543689E+00 0.99989349E+03</pdfrwt>
<pdfrwt beam="2">  1       -2 0.43680118E-01 0.99989349E+03</pdfrwt>
<totfact> 0.18184742E+02</totfact>
</mgrwt>
</event>
<event>
 9    1  0.4307774E-036  0.1002161E+04  0.7818608E-02  0.8678982E-01
         -1   -1    0    0    0  501 -0.00000000000E+00  0.00000000000E+00  0.85135430303E+03  0.85135430303E+03  0.00000000000E+00 0.  1.
          1   -1    0    0  501    0  0.00000000000E+00 -0.00000000000E+00 -0.29492051355E+03  0.29492051355E+03  0.00000000000E+00 0.  1.
         36    2    1    2    0    0  0.00000000000E+00  0.28421709430E-13  0.55643378948E+03  0.11462748166E+04  0.10021613608E+04 0.  0.
         25    2    3    3    0    0 -0.94727564126E+02 -0.97486058245E+02  0.56065904724E+02  0.19306927906E+03  0.12512201200E+03 0.  0.
         35    2    3    3    0    0  0.94727564126E+02  0.97486058245E+02  0.50036788476E+03  0.95320553752E+03  0.79984744402E+03 0.  0.
         22    1    5    5    0    0 -0.31473463582E+03  0.15287300451E+03  0.39320431341E+03  0.52634368865E+03  0.00000000000E+00 0. -1.
         22    1    5    5    0    0  0.40946219994E+03 -0.55386946267E+02  0.10716357135E+03  0.42686184887E+03  0.00000000000E+00 0. -1.
          5    1    4    4  502    0  0.24449056156E+02 -0.67068002231E+01 -0.12013945179E+02  0.28445779914E+02  0.47000000000E+01 0. -1.
         -5    1    4    4    0  502 -0.11917662028E+03 -0.90779258022E+02  0.68079849903E+02  0.16462349915E+03  0.47000000000E+01 0. -1.
<mgrwt>
<rscale>  0 0.10021614E+04</rscale>
<asrwt>0</asrwt>
<pdfrwt beam="1">  1        1 0.45372387E-01 0.10021614E+04</pdfrwt>
<pdfrwt beam="2">  1       -1 0.13097758E+00 0.10021614E+04</pdfrwt>
<totfact> 0.53379634E+01</totfact>
</mgrwt>
</event>
<event>
 9    1  0.4307774E-036  0.9986368E+03  0.7818608E-02  0.8682337E-01
         -2   -1    0    0    0  501 -0.00000000000E+00  0.00000000000E+00  0.23838184919E+03  0.23838184919E+03  0.00000000000E+00 0. -1.
          2   -1    0    0  501    0  0.00000000000E+00 -0.00000000000E+00 -0.10458802750E+04  0.10458802750E+04  0.00000000000E+00 0. -1.
         36    2    1    2    0    0  0.42632564146E-13 -0.28421709430E-13 -0.80749842585E+03  0.12842621242E+04  0.99863681885E+03 0.  0.
         25    2    3    3    0    0  0.80763702151E+02  0.82633395790E+02 -0.52916515836E+02  0.17846821446E+03  0.12529841276E+03 0.  0.
         35    2    3    3    0    0 -0.80763702151E+02 -0.82633395790E+02 -0.75458191001E+03  0.11057939098E+04  0.80002203611E+03 0.  0.
         22    1    5    5    0    0  0.19906895066E+03  0.25193070517E+03 -0.51841305158E+03  0.60979473544E+03  0.00000000000E+00 0. -1.
         22    1    5    5    0    0 -0.27983265281E+03 -0.33456410096E+03 -0.23616885843E+03  0.49599917432E+03  0.00000000000E+00 0. -1.
          5    1    4    4  502    0  0.73530177015E+02  0.10802967313E+03 -0.68322736602E+02  0.14753705821E+03  0.47000000000E+01 0. -1.
         -5    1    4    4    0  502  0.72335251363E+01 -0.25396277340E+02  0.15406220766E+02  0.30931156249E+02  0.47000000000E+01 0. -1.
<mgrwt>
<rscale>  0 0.99863682E+03</rscale>
<asrwt>0</asrwt>
<pdfrwt beam="1">  1        2 0.16090466E+00 0.99863682E+03</pdfrwt>
<pdfrwt beam="2">  1       -2 0.36674130E-01 0.99863682E+03</pdfrwt>
<totfact> 0.19915636E+02</totfact>
</mgrwt>
</event>
<event>
 9    1  0.4307774E-036  0.1002617E+04  0.7818608E-02  0.8678550E-01
          2   -1    0    0  501    0  0.00000000000E+00  0.00000000000E+00  0.12794955478E+04  0.12794955478E+04  0.00000000000E+00 0. -1.
         -2   -1    0    0    0  501 -0.00000000000E+00 -0.00000000000E+00 -0.19641349233E+03  0.19641349233E+03  0.00000000000E+00 0. -1.
         36    2    1    2    0    0  0.00000000000E+00 -0.28421709430E-13  0.10830820555E+04  0.14759090401E+04  0.10026169537E+04 0.  0.
         25    2    3    3    0    0  0.72700069266E+02  0.83237032660E+02  0.71164291652E+02  0.18195343114E+03  0.12581331814E+03 0.  0.
         35    2    3    3    0    0 -0.72700069266E+02 -0.83237032660E+02  0.10119177638E+04  0.12939556090E+04  0.79883030340E+03 0.  0.
         22    1    5    5    0    0  0.40074098609E+02  0.12920515309E+03 -0.92352468330E+02  0.16379524832E+03  0.00000000000E+00 0. -1.
         22    1    5    5    0    0 -0.11277416788E+03 -0.21244218575E+03  0.11042702322E+04  0.11301603607E+04  0.00000000000E+00 0. -1.
          5    1    4    4  502    0  0.69165795802E+02  0.11376013870E+02  0.83158760478E+02  0.10886133586E+03  0.47000000000E+01 0. -1.
         -5    1    4    4    0  502  0.35342734638E+01  0.71861018789E+02 -0.11994468827E+02  0.73092095283E+02  0.47000000000E+01 0. -1.
<mgrwt>
<rscale>  0 0.10026170E+04</rscale>
<asrwt>0</asrwt>
<pdfrwt beam="1">  1        2 0.19684546E+00 0.10026170E+04</pdfrwt>
<pdfrwt beam="2">  1       -2 0.30217461E-01 0.10026170E+04</pdfrwt>
<totfact> 0.20671414E+02</totfact>
</mgrwt>
</event>
<event>
 9    1  0.4307774E-036  0.9998841E+03  0.7818608E-02  0.8681148E-01
         -2   -1    0    0    0  501 -0.00000000000E+00  0.00000000000E+00  0.26920843364E+03  0.26920843364E+03  0.00000000000E+00 0. -1.
          2   -1    0    0  501    0  0.00000000000E+00 -0.00000000000E+00 -0.92843323077E+03  0.92843323077E+03  0.00000000000E+00 0. -1.
         36    2    1    2    0    0  0.00000000000E+00  0.71054273576E-14 -0.65922479713E+03  0.11976416644E+04  0.99988410486E+03 0.  0.
         25    2    3    3    0    0 -0.13226381295E+03  0.37225613735E+02 -0.10236185821E+03  0.21252712196E+03  0.12573927397E+03 0.  0.
         35    2    3    3    0    0  0.13226381295E+03 -0.37225613735E+02 -0.55686293892E+03  0.98511454244E+03  0.80092126108E+03 0.  0.
         22    1    5    5    0    0  0.55174504506E+02 -0.41872692354E+03 -0.26459934928E+03  0.49838667526E+03  0.00000000000E+00 0. -1.
         22    1    5    5    0    0  0.77089308443E+02  0.38150130980E+03 -0.29226358964E+03  0.48672786718E+03  0.00000000000E+00 0. -1.
          5    1    4    4  502    0 -0.45723659853E+00  0.10354942458E+02  0.24845304901E+02  0.27327880896E+02  0.47000000000E+01 0. -1.
         -5    1    4    4    0  502 -0.13180657635E+03  0.26870671277E+02 -0.12720716311E+03  0.18519924107E+03  0.47000000000E+01 0. -1.
<mgrwt>
<rscale>  0 0.99988410E+03</rscale>
<asrwt>0</asrwt>
<pdfrwt beam="1">  1        2 0.14283588E+00 0.99988410E+03</pdfrwt>
<pdfrwt beam="2">  1       -2 0.41416682E-01 0.99988410E+03</pdfrwt>
<totfact> 0.18743464E+02</totfact>
</mgrwt>
</event>
<event>
 9    1  0.4307774E-036  0.9987144E+03  0.7818608E-02  0.8682263E-01
         -2   -1    0    0    0  501 -0.00000000000E+00  0.00000000000E+00  0.11793526110E+03  0.11793526110E+03  0.00000000000E+00 0. -1.
          2   -1    0    0  501    0  0.00000000000E+00 -0.00000000000E+00 -0.21143600603E+04  0.21143600603E+04  0.00000000000E+00 0. -1.
         36    2    1    2    0    0 -0.14210854715E-13 -0.14210854715E-13 -0.19964247992E+04  0.22322953214E+04  0.99871438515E+03 0.  0.
         25    2    3    3    0    0 -0.59693199659E+02 -0.44444248697E+02 -0.11189532801E+03  0.18344840413E+03  0.12487667204E+03 0.  0.
         35    2    3    3    0    0  0.59693199659E+02  0.44444248697E+02 -0.18845294712E+04  0.20488469173E+04  0.80048972092E+03 0.  0.
         22    1    5    5    0    0  0.37638366348E+03  0.15753666008E+03 -0.63444901348E+03  0.75432619742E+03  0.00000000000E+00 0. -1.
         22    1    5    5    0    0 -0.31669046382E+03 -0.11309241138E+03 -0.12500804577E+04  0.12945207198E+04  0.00000000000E+00 0. -1.
          5    1    4    4  502    0  0.46566836276E+00  0.38340488163E+02 -0.12222477641E+02  0.40517759554E+02  0.47000000000E+01 0.  1.
         -5    1    4    4    0  502 -0.60158868022E+02 -0.82784736859E+02 -0.99672850364E+02  0.14293064457E+03  0.47000000000E+01 0.  1.
<mgrwt>
<rscale>  0 0.99871439E+03</rscale>
<asrwt>0</asrwt>
<pdfrwt beam="1">  1        2 0.32528614E+00 0.99871439E+03</pdfrwt>
<pdfrwt beam="2">  1       -2 0.18143888E-01 0.99871439E+03</pdfrwt>
<totfact> 0.17048549E+02</totfact>
</mgrwt>
</event>
<event>
 9    1  0.4307774E-036  0.1000450E+04  0.7818608E-02  0.8680609E-01
          1   -1    0    0  501    0  0.00000000000E+00  0.00000000000E+00  0.12305708638E+04  0.12305708638E+04  0.00000000000E+00 0. -1.
         -1   -1    0    0    0  501 -0.00000000000E+00 -0.00000000000E+00 -0.20334067201E+03  0.20334067201E+03  0.00000000000E+00 0. -1.
         36    2    1    2    0    0  0.28421709430E-13 -0.14210854715E-13  0.10272301918E+04  0.14339115359E+04  0.10004501115E+04 0.  0.
         25    2    3    3    0    0  0.74967037229E+02  0.43265894332E+02  0.35562813343E+03  0.38700970974E+03  0.12575035532E+03 0.  0.
         35    2    3    3    0    0 -0.74967037229E+02 -0.43265894332E+02  0.67160205840E+03  0.10469018261E+04  0.79841224590E+03 0.  0.
         22    1    5    5    0    0  0.22274067707E+03 -0.29835702065E+03  0.16744435131E+03  0.40824983990E+03  0.00000000000E+00 0.  1.
         22    1    5    5    0    0 -0.29770771430E+03  0.25509112632E+03  0.50415770708E+03  0.63865198621E+03  0.00000000000E+00 0.  1.
          5    1    4    4  502    0  0.83327667993E+02  0.38851708002E+02  0.12048705326E+03  0.15163170998E+03  0.47000000000E+01 0. -1.
         -5    1    4    4    0  502 -0.83606307633E+01  0.44141863300E+01  0.23514108018E+03  0.23537799977E+03  0.47000000000E+01 0. -1.
<mgrwt>
<rscale>  0 0.10004501E+04</rscale>
<asrwt>0</asrwt>
<pdfrwt beam="1">  1        1 0.18931859E+00 0.10004501E+04</pdfrwt>
<pdfrwt beam="2">  1       -1 0.31283181E-01 0.10004501E+04</pdfrwt>
<totfact> 0.10581671E+02</totfact>
</mgrwt>
</event>
<event>
 9    1  0.4307774E-036  0.9994086E+03  0.7818608E-02  0.8681601E-01
          3   -1    0    0  501    0  0.00000000000E+00  0.00000000000E+00  0.11831470750E+04  0.11831470750E+04  0.00000000000E+00 0. -1.
         -3   -1    0    0    0  501 -0.00000000000E+00 -0.00000000000E+00 -0.21105101047E+03  0.21105101047E+03  0.00000000000E+00 0. -1.
         36    2    1    2    0    0  0.00000000000E+00  0.28421709430E-13  0.97209606455E+03  0.13941980855E+04  0.99940859654E+03 0.  0.
         25    2    3    3    0    0  0.96375758518E+02  0.54341120974E+02  0.60365575781E+02  0.17719420623E+03  0.12454934655E+03 0.  0.
         35    2    3    3    0    0 -0.96375758518E+02 -0.54341120974E+02  0.91173048877E+03  0.12170038793E+04  0.79850154270E+03 0.  0.
         22    1    5    5    0    0  0.93736899598E+02  0.31978033876E+03  0.62644167870E+03  0.70955989756E+03  0.00000000000E+00 0. -1.
         22    1    5    5    0    0 -0.19011265812E+03 -0.37412145973E+03  0.28528881007E+03  0.50744398169E+03  0.00000000000E+00 0. -1.
          5    1    4    4  502    0  0.33651339157E+02  0.62660938868E+02 -0.20724218498E+02  0.74231995253E+02  0.47000000000E+01 0. -1.
         -5    1    4    4    0  502  0.62724419361E+02 -0.83198178943E+01  0.81089794279E+02  0.10296221098E+03  0.47000000000E+01 0. -1.
<mgrwt>
<rscale>  0 0.99940860E+03</rscale>
<asrwt>0</asrwt>
<pdfrwt beam="1">  1        3 0.18202262E+00 0.99940860E+03</pdfrwt>
<pdfrwt beam="2">  1       -3 0.32469387E-01 0.99940860E+03</pdfrwt>
<totfact> 0.72953085E+00</totfact>
</mgrwt>
</event>
<event>
 9    1  0.4307774E-036  0.9993517E+03  0.7818608E-02  0.8681656E-01
          1   -1    0    0  501    0  0.00000000000E+00  0.00000000000E+00  0.61793625815E+03  0.61793625815E+03  0.00000000000E+00 0. -1.
         -1   -1    0    0    0  501 -0.00000000000E+00 -0.00000000000E+00 -0.40404805383E+03  0.40404805383E+03  0.00000000000E+00 0. -1.
         36    2    1    2    0    0 -0.28421709430E-13 -0.71054273576E-14  0.21388820432E+03  0.10219843120E+04  0.99935167483E+03 0.  0.
         25    2    3    3    0    0 -0.54696278320E+02  0.31000149774E+02 -0.87561911785E+02  0.16497590630E+03  0.12488902720E+03 0.  0.
         35    2    3    3    0    0  0.54696278320E+02 -0.31000149774E+02  0.30145011611E+03  0.85700840568E+03  0.79977405731E+03 0.  0.
         22    1    5    5    0    0  0.31782710516E+03 -0.25741742112E+03  0.30443415373E+03  0.50986071768E+03  0.00000000000E+00 0.  1.
         22    1    5    5    0    0 -0.26313082684E+03  0.22641727135E+03 -0.29840376282E+01  0.34714768800E+03  0.00000000000E+00 0.  1.
          5    1    4    4  502    0 -0.12160136384E+02 -0.45442605017E+02 -0.52405321246E+02  0.70578374609E+02  0.47000000000E+01 0.  1.
         -5    1    4    4    0  502 -0.42536141936E+02  0.76442754790E+02 -0.35156590540E+02  0.94397531690E+02  0.47000000000E+01 0.  1.
<mgrwt>
<rscale>  0 0.99935167E+03</rscale>
<asrwt>0</asrwt>
<pdfrwt beam="1">  1        1 0.95067117E-01 0.99935167E+03</pdfrwt>
<pdfrwt beam="2">  1       -1 0.62161239E-01 0.99935167E+03</pdfrwt>
<totfact> 0.99997151E+01</totfact>
</mgrwt>
</event>
<event>
 9    1  0.4307774E-036  0.1001137E+04  0.7818608E-02  0.8679956E-01
          1   -1    0    0  501    0  0.00000000000E+00  0.00000000000E+00  0.44223251852E+03  0.44223251852E+03  0.00000000000E+00 0.  1.
         -1   -1    0    0    0  501 -0.00000000000E+00 -0.00000000000E+00 -0.56659974199E+03  0.56659974199E+03  0.00000000000E+00 0.  1.
         36    2    1    2    0    0 -0.28421709430E-13  0.17763568394E-14 -0.12436722347E+03  0.10088322605E+04  0.10011370154E+04 0.  0.
         25    2    3    3    0    0  0.13304429897E+03  0.10798634934E+02  0.24813936826E+02  0.18456165021E+03  0.12501949953E+03 0.  0.
         35    2    3    3    0    0 -0.13304429897E+03 -0.10798634934E+02 -0.14918116030E+03  0.82427061030E+03  0.79959341193E+03 0.  0.
         22    1    5    5    0    0  0.12249966754E+03 -0.35708510016E+03 -0.10375584381E+03  0.39151144610E+03  0.00000000000E+00 0. -1.
         22    1    5    5    0    0 -0.25554396651E+03  0.34628646522E+03 -0.45425316488E+02  0.43275916420E+03  0.00000000000E+00 0. -1.
          5    1    4    4  502    0 -0.18711586924E+02  0.16124115337E+02 -0.12565689488E+02  0.28108666509E+02  0.47000000000E+01 0.  1.
         -5    1    4    4    0  502  0.15175588589E+03 -0.53254804037E+01  0.37379626314E+02  0.15645298370E+03  0.47000000000E+01 0.  1.
<mgrwt>
<rscale>  0 0.10011370E+04</rscale>
<asrwt>0</asrwt>
<pdfrwt beam="1">  1        1 0.68035772E-01 0.10011370E+04</pdfrwt>
<pdfrwt beam="2">  1       -1 0.87169192E-01 0.10011370E+04</pdfrwt>
<totfact> 0.80687393E+01</totfact>
</mgrwt>
</event>
<event>
 9    1  0.4307774E-036  0.9998598E+03  0.7818608E-02  0.8681171E-01
         -4   -1    0    0    0  501 -0.00000000000E+00  0.00000000000E+00  0.25252131173E+03  0.25252131173E+03  0.00000000000E+00 0. -1.
          4   -1    0    0  501    0  0.00000000000E+00 -0.00000000000E+00 -0.98973786315E+03  0.98973786315E+03  0.00000000000E+00 0. -1.
         36    2    1    2    0    0  0.28421709430E-13  0.00000000000E+00 -0.73721655143E+03  0.12422591749E+04  0.99985979711E+03 0.  0.
         25    2    3    3    0    0  0.11635899831E+03  0.76345696169E+02 -0.21683105572E+03  0.28504500424E+03  0.12192975808E+03 0.  0.
         35    2    3    3    0    0 -0.11635899831E+03 -0.76345696169E+02 -0.52038549571E+03  0.95721417064E+03  0.79125837912E+03 0.  0.
         22    1    5    5    0    0  0.19556341946E+03 -0.84229157346E+02  0.12031725288E+03  0.24457277715E+03  0.00000000000E+00 0. -1.
         22    1    5    5    0    0 -0.31192241777E+03  0.78834611762E+01 -0.64070274859E+03  0.71264139350E+03  0.00000000000E+00 0. -1.
          5    1    4    4  502    0  0.41069896666E+02  0.96308292866E+02 -0.10228692041E+03  0.14644701354E+03  0.47000000000E+01 0. -1.
         -5    1    4    4    0  502  0.75289101640E+02 -0.19962596696E+02 -0.11454413531E+03  0.13859799070E+03  0.47000000000E+01 0. -1.
<mgrwt>
<rscale>  0 0.99985980E+03</rscale>
<asrwt>0</asrwt>
<pdfrwt beam="1">  1        4 0.15226736E+00 0.99985980E+03</pdfrwt>
<pdfrwt beam="2">  1       -4 0.38849432E-01 0.99985980E+03</pdfrwt>
<totfact> 0.36719885E+00</totfact>
</mgrwt>
</event>
<event>
 9    1  0.4307774E-036  0.9995087E+03  0.7818608E-02  0.8681506E-01
          4   -1    0    0  501    0  0.00000000000E+00  0.00000000000E+00  0.42513465400E+03  0.42513465400E+03  0.00000000000E+00 0. -1.
         -4   -1    0    0    0  501 -0.00000000000E+00 -0.00000000000E+00 -0.58747130727E+03  0.58747130727E+03  0.00000000000E+00 0. -1.
         36    2    1    2    0    0  0.14210854715E-13 -0.21316282073E-13 -0.16233665328E+03  0.10126059613E+04  0.99950870121E+03 0.  0.
         25    2    3    3    0    0 -0.77061635567E+02 -0.88251108123E+00  0.88430550330E+02  0.17139539243E+03  0.12496857130E+03 0.  0.
         35    2    3    3    0    0  0.77061635567E+02  0.88251108123E+00 -0.25076720361E+03  0.84121056884E+03  0.79925700261E+03 0.  0.
         22    1    5    5    0    0 -0.33937690807E+02 -0.34030754897E+03 -0.32837493129E+03  0.47412138767E+03  0.00000000000E+00 0. -1.
         22    1    5    5    0    0  0.11099932637E+03  0.34119006005E+03  0.77607727685E+02  0.36708918117E+03  0.00000000000E+00 0. -1.
          5    1    4    4  502    0  0.95842036826E+01 -0.28248839634E+02 -0.14934708594E+02  0.33689604060E+02  0.47000000000E+01 0. -1.
         -5    1    4    4    0  502 -0.86645839249E+02  0.27366328553E+02  0.10336525892E+03  0.13770578837E+03  0.47000000000E+01 0. -1.
<mgrwt>
<rscale>  0 0.99950870E+03</rscale>
<asrwt>0</asrwt>
<pdfrwt beam="1">  1        4 0.65405332E-01 0.99950870E+03</pdfrwt>
<pdfrwt beam="2">  1       -4 0.90380201E-01 0.99950870E+03</pdfrwt>
<totfact> 0.51814999E+00</totfact>
</mgrwt>
</event>
<event>
 9    1  0.4307774E-036  0.1000005E+04  0.7818608E-02  0.8681034E-01
          2   -1    0    0  501    0  0.00000000000E+00  0.00000000000E+00  0.80593601213E+03  0.80593601213E+03  0.00000000000E+00 0.  1.
         -2   -1    0    0    0  501 -0.00000000000E+00 -0.00000000000E+00 -0.31020120640E+03  0.31020120640E+03  0.00000000000E+00 0.  1.
         36    2    1    2    0    0 -0.21316282073E-13  0.71054273576E-14  0.49573480573E+03  0.11161372185E+04  0.10000046465E+04 0.  0.
         25    2    3    3    0    0 -0.21911308084E+02  0.57912086542E+02  0.23645644931E+03  0.27648862846E+03  0.12923000449E+03 0.  0.
         35    2    3    3    0    0  0.21911308084E+02 -0.57912086542E+02  0.25927835642E+03  0.83964859007E+03  0.79621013150E+03 0.  0.
         22    1    5    5    0    0  0.22762299923E+03 -0.34324860997E+03  0.16407727435E+02  0.41219055247E+03  0.00000000000E+00 0. -1.
         22    1    5    5    0    0 -0.20571169115E+03  0.28533652343E+03  0.24287062899E+03  0.42745803759E+03  0.00000000000E+00 0. -1.
          5    1    4    4  502    0  0.77525041941E+01  0.43541852753E+02  0.23899424596E+03  0.24309737527E+03  0.47000000000E+01 0. -1.
         -5    1    4    4    0  502 -0.29663812278E+02  0.14370233789E+02 -0.25377966473E+01  0.33391253193E+02  0.47000000000E+01 0. -1.
<mgrwt>
<rscale>  0 0.10000046E+04</rscale>
<asrwt>0</asrwt>
<pdfrwt beam="1">  1        2 0.12399016E+00 0.10000046E+04</pdfrwt>
<pdfrwt beam="2">  1       -2 0.47723263E-01 0.10000046E+04</pdfrwt>
<totfact> 0.17174927E+02</totfact>
</mgrwt>
</event>
<event>
 9    1  0.4307774E-036  0.9965686E+03  0.7818608E-02  0.8684313E-01
         -2   -1    0    0    0  501 -0.00000000000E+00  0.00000000000E+00  0.48505165311E+03  0.48505165311E+03  0.00000000000E+00 0. -1.
          2   -1    0    0  501    0  0.00000000000E+00 -0.00000000000E+00 -0.51187789758E+03  0.51187789758E+03  0.00000000000E+00 0. -1.
         36    2    1    2    0    0  0.00000000000E+00 -0.71054273576E-14 -0.26826244475E+02  0.99692955069E+03  0.99656855341E+03 0.  0.
         25    2    3    3    0    0 -0.11346772713E+03 -0.61923240188E+02  0.32569535503E+01  0.17988426522E+03  0.12505330205E+03 0.  0.
         35    2    3    3    0    0  0.11346772713E+03  0.61923240188E+02 -0.30083198025E+02  0.81704528547E+03  0.80619388917E+03 0.  0.
         22    1    5    5    0    0 -0.63078791257E+02  0.38893370650E+02 -0.39984370088E+03  0.40665293964E+03  0.00000000000E+00 0.  1.
         22    1    5    5    0    0  0.17654651838E+03  0.23029869538E+02  0.36976050285E+03  0.41039234583E+03  0.00000000000E+00 0.  1.
          5    1    4    4  502    0 -0.51438504006E+02 -0.80362360907E+02  0.41955288026E+02  0.10433774455E+03  0.47000000000E+01 0.  1.
         -5    1    4    4    0  502 -0.62029223119E+02  0.18439120719E+02 -0.38698334476E+02  0.75546520667E+02  0.47000000000E+01 0.  1.
<mgrwt>
<rscale>  0 0.99656855E+03</rscale>
<asrwt>0</asrwt>
<pdfrwt beam="1">  1        2 0.78750446E-01 0.99656855E+03</pdfrwt>
<pdfrwt beam="2">  1       -2 0.74623331E-01 0.99656855E+03</pdfrwt>
<totfact> 0.11689196E+02</totfact>
</mgrwt>
</event>
<event>
 9    1  0.4307774E-036  0.1000002E+04  0.7818608E-02  0.8681036E-01
          2   -1    0    0  501    0  0.00000000000E+00  0.00000000000E+00  0.18745270016E+04  0.18745270016E+04  0.00000000000E+00 0.  1.
         -2   -1    0    0    0  501 -0.00000000000E+00 -0.00000000000E+00 -0.13336743715E+03  0.13336743715E+03  0.00000000000E+00 0.  1.
         36    2    1    2    0    0  0.00000000000E+00 -0.14210854715E-13  0.17411595645E+04  0.20078944388E+04  0.10000017241E+04 0.  0.
         25    2    3    3    0    0 -0.12811634333E+03 -0.17023913068E+02  0.25054337851E+03  0.30838371119E+03  0.12499967108E+03 0.  0.
         35    2    3    3    0    0  0.12811634333E+03  0.17023913068E+02  0.14906161860E+04  0.16995107276E+04  0.80603752284E+03 0.  0.
         22    1    5    5    0    0  0.25086042533E+02 -0.21726491731E+03  0.14161732149E+04  0.14329619424E+04  0.00000000000E+00 0. -1.
         22    1    5    5    0    0  0.10303030080E+03  0.23428883038E+03  0.74442971059E+02  0.26654878515E+03  0.00000000000E+00 0. -1.
          5    1    4    4  502    0 -0.19210439731E+02  0.40608970175E+02  0.12277388363E+03  0.13081913451E+03  0.47000000000E+01 0. -1.
         -5    1    4    4    0  502 -0.10890590360E+03 -0.57632883243E+02  0.12776949488E+03  0.17756457668E+03  0.47000000000E+01 0. -1.
<mgrwt>
<rscale>  0 0.10000017E+04</rscale>
<asrwt>0</asrwt>
<pdfrwt beam="1">  1        2 0.28838875E+00 0.10000017E+04</pdfrwt>
<pdfrwt beam="2">  1       -2 0.20518069E-01 0.10000017E+04</pdfrwt>
<totfact> 0.18894539E+02</totfact>
</mgrwt>
</event>
<event>
 9    1  0.4307774E-036  0.1000563E+04  0.7818608E-02  0.8680502E-01
         -2   -1    0    0    0  501 -0.00000000000E+00  0.00000000000E+00  0.22946432557E+03  0.22946432557E+03  0.00000000000E+00 0.  1.
          2   -1    0    0  501    0  0.00000000000E+00 -0.00000000000E+00 -0.10907204952E+04  0.10907204952E+04  0.00000000000E+00 0.  1.
         36    2    1    2    0    0  0.00000000000E+00 -0.14210854715E-13 -0.86125616965E+03  0.13201848208E+04  0.10005627273E+04 0.  0.
         25    2    3    3    0    0  0.10466224632E+03  0.94469647700E+02 -0.17864674847E+03  0.25881454826E+03  0.12325424743E+03 0.  0.
         35    2    3    3    0    0 -0.10466224632E+03 -0.94469647700E+02 -0.68260942118E+03  0.10613702725E+04  0.80042022300E+03 0.  0.
         22    1    5    5    0    0 -0.12758053160E+03  0.14381835926E+03  0.11810915553E+03  0.22563307631E+03  0.00000000000E+00 0.  1.
         22    1    5    5    0    0  0.22918285276E+02 -0.23828800696E+03 -0.80071857671E+03  0.83573719622E+03  0.00000000000E+00 0.  1.
          5    1    4    4  502    0  0.38832395645E+02  0.11007463479E+03 -0.13324639920E+03  0.17720347930E+03  0.47000000000E+01 0. -1.
         -5    1    4    4    0  502  0.65829850679E+02 -0.15604987092E+02 -0.45400349268E+02  0.81611068956E+02  0.47000000000E+01 0. -1.
<mgrwt>
<rscale>  0 0.10005627E+04</rscale>
<asrwt>0</asrwt>
<pdfrwt beam="1">  1        2 0.16780315E+00 0.10005627E+04</pdfrwt>
<pdfrwt beam="2">  1       -2 0.35302205E-01 0.10005627E+04</pdfrwt>
<totfact> 0.20079692E+02</totfact>
</mgrwt>
</event>
<event>
 9    1  0.4307774E-036  0.1014714E+04  0.7818608E-02  0.8667151E-01
          2   -1    0    0  501    0  0.00000000000E+00  0.00000000000E+00  0.32069363084E+04  0.32069363084E+04  0.00000000000E+00 0.  1.
         -2   -1    0    0    0  501 -0.00000000000E+00 -0.00000000000E+00 -0.80266967941E+02  0.80266967941E+02  0.00000000000E+00 0.  1.
         36    2    1    2    0    0  0.00000000000E+00  0.00000000000E+00  0.31266693405E+04  0.32872032763E+04  0.10147138589E+04 0.  0.
         25    2    3    3    0    0 -0.84130655680E+02  0.11618913503E+03  0.77614129629E+03  0.79904419895E+03  0.12449272162E+03 0.  0.
         35    2    3    3    0    0  0.84130655680E+02 -0.11618913503E+03  0.23505280442E+04  0.24881590774E+04  0.80335274051E+03 0.  0.
         22    1    5    5    0    0 -0.14217708752E+03 -0.29125209720E+03  0.39103809943E+03  0.50789064132E+03  0.00000000000E+00 0.  1.
         22    1    5    5    0    0  0.22630774320E+03  0.17506296217E+03  0.19594899447E+04  0.19802684361E+04  0.00000000000E+00 0.  1.
          5    1    4    4  502    0 -0.84243950011E+02  0.13648768968E+03  0.57960959379E+03  0.60141109381E+03  0.47000000000E+01 0. -1.
         -5    1    4    4    0  502  0.11329433076E+00 -0.20298554650E+02  0.19653170250E+03  0.19763310513E+03  0.47000000000E+01 0. -1.
<mgrwt>
<rscale>  0 0.10147139E+04</rscale>
<asrwt>0</asrwt>
<pdfrwt beam="1">  1        2 0.49337472E+00 0.10147139E+04</pdfrwt>
<pdfrwt beam="2">  1       -2 0.12348767E-01 0.10147139E+04</pdfrwt>
<totfact> 0.66715981E+01</totfact>
</mgrwt>
</event>
<event>
 9    1  0.4307774E-036  0.1001347E+04  0.7818608E-02  0.8679756E-01
         -1   -1    0    0    0  501 -0.00000000000E+00  0.00000000000E+00  0.18790550318E+03  0.18790550318E+03  0.00000000000E+00 0. -1.
          1   -1    0    0  501    0  0.00000000000E+00 -0.00000000000E+00 -0.13340429957E+04  0.13340429957E+04  0.00000000000E+00 0. -1.
         36    2    1    2    0    0 -0.14210854715E-13 -0.14210854715E-13 -0.11461374925E+04  0.15219484989E+04  0.10013471334E+04 0.  0.
         25    2    3    3    0    0 -0.69940851161E+02 -0.73028326606E+02 -0.36098839465E+03  0.39658381305E+03  0.12938794593E+03 0.  0.
         35    2    3    3    0    0  0.69940851161E+02  0.73028326606E+02 -0.78514909790E+03  0.11253646859E+04  0.79985105559E+03 0.  0.
         22    1    5    5    0    0  0.40376924286E+03  0.76411271500E+02 -0.64170583930E+03  0.76200700003E+03  0.00000000000E+00 0. -1.
         22    1    5    5    0    0 -0.33382839170E+03 -0.33829448939E+01 -0.14344325859E+03  0.36335768584E+03  0.00000000000E+00 0. -1.
          5    1    4    4  502    0 -0.87037133498E+02 -0.50860842277E+02 -0.13360574452E+03  0.16743617547E+03  0.47000000000E+01 0.  1.
         -5    1    4    4    0  502  0.17096282338E+02 -0.22167484329E+02 -0.22738265013E+03  0.22914763759E+03  0.47000000000E+01 0.  1.
<mgrwt>
<rscale>  0 0.10013471E+04</rscale>
<asrwt>0</asrwt>
<pdfrwt beam="1">  1        1 0.20523737E+00 0.10013471E+04</pdfrwt>
<pdfrwt beam="2">  1       -1 0.28908540E-01 0.10013471E+04</pdfrwt>
<totfact> 0.10170143E+02</totfact>
</mgrwt>
</event>
<event>
 9    1  0.4307774E-036  0.9992913E+03  0.7818608E-02  0.8681713E-01
          2   -1    0    0  501    0  0.00000000000E+00  0.00000000000E+00  0.33029788200E+04  0.33029788200E+04  0.00000000000E+00 0. -1.
         -2   -1    0    0    0  501 -0.00000000000E+00 -0.00000000000E+00 -0.75582010306E+02  0.75582010306E+02  0.00000000000E+00 0. -1.
         36    2    1    2    0    0 -0.21316282073E-13 -0.28421709430E-13  0.32273968097E+04  0.33785608303E+04  0.99929130731E+03 0.  0.
         25    2    3    3    0    0  0.27018483399E+02 -0.10837165563E+03  0.88646318863E+03  0.90204847629E+03  0.12409695642E+03 0.  0.
         35    2    3    3    0    0 -0.27018483399E+02  0.10837165563E+03  0.23409336211E+04  0.24765123540E+04  0.80041789534E+03 0.  0.
         22    1    5    5    0    0 -0.35634896957E+03  0.20329686648E+03  0.81348221243E+03  0.91108041026E+03  0.00000000000E+00 0.  1.
         22    1    5    5    0    0  0.32933048617E+03 -0.94925210847E+02  0.15274514087E+04  0.15654319438E+04  0.00000000000E+00 0.  1.
          5    1    4    4  502    0 -0.44327917469E+02 -0.12410614494E+02  0.29415408705E+03  0.29777122854E+03  0.47000000000E+01 0.  1.
         -5    1    4    4    0  502  0.71346400868E+02 -0.95961041135E+02  0.59230910159E+03  0.60427724776E+03  0.47000000000E+01 0.  1.
<mgrwt>
<rscale>  0 0.99929131E+03</rscale>
<asrwt>0</asrwt>
<pdfrwt beam="1">  1        2 0.50815047E+00 0.99929131E+03</pdfrwt>
<pdfrwt beam="2">  1       -2 0.11628004E-01 0.99929131E+03</pdfrwt>
<totfact> 0.63013382E+01</totfact>
</mgrwt>
</event>
<event>
 9    1  0.4307774E-036  0.1000758E+04  0.7818608E-02  0.8680316E-01
         -1   -1    0    0    0  501 -0.00000000000E+00  0.00000000000E+00  0.61881928756E+03  0.61881928756E+03  0.00000000000E+00 0. -1.
          1   -1    0    0  501    0  0.00000000000E+00 -0.00000000000E+00 -0.40460787369E+03  0.40460787369E+03  0.00000000000E+00 0. -1.
         36    2    1    2    0    0 -0.28421709430E-13  0.71054273576E-14  0.21421141387E+03  0.10234271613E+04  0.10007580250E+04 0.  0.
         25    2    3    3    0    0  0.11773666281E+03  0.23939805692E+02  0.11531220737E+03  0.20861695844E+03  0.12565466212E+03 0.  0.
         35    2    3    3    0    0 -0.11773666281E+03 -0.23939805692E+02  0.98899206491E+02  0.81481020281E+03  0.79981221390E+03 0.  0.
         22    1    5    5    0    0 -0.44628604953E+03 -0.82142970698E+02 -0.35334356917E+02  0.45515626154E+03  0.00000000000E+00 0. -1.
         22    1    5    5    0    0  0.32854938672E+03  0.58203165006E+02  0.13423356341E+03  0.35965394127E+03  0.00000000000E+00 0. -1.
          5    1    4    4  502    0 -0.19451754920E+02 -0.16679734100E+02  0.37564344662E+02  0.45713830391E+02  0.47000000000E+01 0. -1.
         -5    1    4    4    0  502  0.13718841773E+03  0.40619539792E+02  0.77747862713E+02  0.16290312805E+03  0.47000000000E+01 0. -1.
<mgrwt>
<rscale>  0 0.10007580E+04</rscale>
<asrwt>0</asrwt>
<pdfrwt beam="1">  1        1 0.62247365E-01 0.10007580E+04</pdfrwt>
<pdfrwt beam="2">  1       -1 0.95202967E-01 0.10007580E+04</pdfrwt>
<totfact> 0.75215248E+01</totfact>
</mgrwt>
</event>
<event>
 9    1  0.4307774E-036  0.9999416E+03  0.7818608E-02  0.8681094E-01
          2   -1    0    0  501    0  0.00000000000E+00  0.00000000000E+00  0.25583367407E+04  0.25583367407E+04  0.00000000000E+00 0. -1.
         -2   -1    0    0    0  501 -0.00000000000E+00 -0.00000000000E+00 -0.97708329880E+02  0.97708329880E+02  0.00000000000E+00 0. -1.
         36    2    1    2    0    0  0.00000000000E+00 -0.14210854715E-13  0.24606284108E+04  0.26560450705E+04  0.99994161870E+03 0.  0.
         25    2    3    3    0    0  0.12247920281E+03  0.87923486362E+01  0.63833930499E+03  0.66234424095E+03  0.12706047660E+03 0.  0.
         35    2    3    3    0    0 -0.12247920281E+03 -0.87923486362E+01  0.18222891058E+04  0.19937008296E+04  0.79939161386E+03 0.  0.
         22    1    5    5    0    0  0.12628789297E+03  0.32698104452E+03  0.11489326313E+04  0.12012124819E+04  0.00000000000E+00 0.  1.
         22    1    5    5    0    0 -0.24876709578E+03 -0.33577339316E+03  0.67335647451E+03  0.79248834771E+03  0.00000000000E+00 0.  1.
          5    1    4    4  502    0  0.42111294293E+02  0.64607103556E+02  0.23967364283E+03  0.25181934796E+03  0.47000000000E+01 0.  1.
         -5    1    4    4    0  502  0.80367908514E+02 -0.55814754920E+02  0.39866566216E+03  0.41052489300E+03  0.47000000000E+01 0.  1.
<mgrwt>
<rscale>  0 0.99994162E+03</rscale>
<asrwt>0</asrwt>
<pdfrwt beam="1">  1        2 0.39359022E+00 0.99994162E+03</pdfrwt>
<pdfrwt beam="2">  1       -2 0.15032053E-01 0.99994162E+03</pdfrwt>
<totfact> 0.12781672E+02</totfact>
</mgrwt>
</event>
<event>
 9    1  0.4307774E-036  0.1000122E+04  0.7818608E-02  0.8680922E-01
          2   -1    0    0  501    0  0.00000000000E+00  0.00000000000E+00  0.21681774984E+03  0.21681774984E+03  0.00000000000E+00 0.  1.
         -2   -1    0    0    0  501 -0.00000000000E+00 -0.00000000000E+00 -0.11533226251E+04  0.11533226251E+04  0.00000000000E+00 0.  1.
         36    2    1    2    0    0 -0.14210854715E-13  0.28421709430E-13 -0.93650487522E+03  0.13701403749E+04  0.10001216254E+04 0.  0.
         25    2    3    3    0    0 -0.10177879226E+03 -0.53844146829E+02 -0.65807507115E+02  0.18157363831E+03  0.12401710944E+03 0.  0.
         35    2    3    3    0    0  0.10177879226E+03  0.53844146829E+02 -0.87069736810E+03  0.11885667366E+04  0.80082386690E+03 0.  0.
         22    1    5    5    0    0  0.19454021730E+03  0.40243041715E+03 -0.51589113044E+03  0.68259782835E+03  0.00000000000E+00 0. -1.
         22    1    5    5    0    0 -0.92761425035E+02 -0.34858627032E+03 -0.35480623766E+03  0.50596890824E+03  0.00000000000E+00 0. -1.
          5    1    4    4  502    0 -0.12175464379E+02 -0.75444427178E+02 -0.23847541368E+02  0.80192884686E+02  0.47000000000E+01 0.  1.
         -5    1    4    4    0  502 -0.89603327885E+02  0.21600280349E+02 -0.41959965747E+02  0.10138075362E+03  0.47000000000E+01 0.  1.
<mgrwt>
<rscale>  0 0.10001216E+04</rscale>
<asrwt>0</asrwt>
<pdfrwt beam="1">  1        2 0.33356577E-01 0.10001216E+04</pdfrwt>
<pdfrwt beam="2">  1       -2 0.17743425E+00 0.10001216E+04</pdfrwt>
<totfact> 0.32993741E+01</totfact>
</mgrwt>
</event>
<event>
 9    1  0.4307774E-036  0.9982465E+03  0.7818608E-02  0.8682710E-01
          3   -1    0    0  501    0  0.00000000000E+00  0.00000000000E+00  0.18026879739E+03  0.18026879739E+03  0.00000000000E+00 0.  1.
         -3   -1    0    0    0  501 -0.00000000000E+00 -0.00000000000E+00 -0.13819586143E+04  0.13819586143E+04  0.00000000000E+00 0.  1.
         36    2    1    2    0    0  0.00000000000E+00  0.00000000000E+00 -0.12016898169E+04  0.15622274117E+04  0.99824649750E+03 0.  0.
         25    2    3    3    0    0  0.86314248483E+02 -0.10648367870E+03 -0.19319317944E+03  0.26803344746E+03  0.12541690896E+03 0.  0.
         35    2    3    3    0    0 -0.86314248483E+02  0.10648367870E+03 -0.10084966375E+04  0.12941939643E+04  0.79942706106E+03 0.  0.
         22    1    5    5    0    0 -0.42848177567E+03  0.10620224415E+03 -0.39812620432E+03  0.59445775570E+03  0.00000000000E+00 0.  1.
         22    1    5    5    0    0  0.34216752719E+03  0.28143454605E+00 -0.61037043317E+03  0.69973620855E+03  0.00000000000E+00 0.  1.
          5    1    4    4  502    0  0.14809449660E+02 -0.11166958699E+03 -0.10289385368E+03  0.15263895828E+03  0.47000000000E+01 0.  1.
         -5    1    4    4    0  502  0.71504798823E+02  0.51859082981E+01 -0.90299325765E+02  0.11539448918E+03  0.47000000000E+01 0.  1.
<mgrwt>
<rscale>  0 0.99824650E+03</rscale>
<asrwt>0</asrwt>
<pdfrwt beam="1">  1        3 0.27733663E-01 0.99824650E+03</pdfrwt>
<pdfrwt beam="2">  1       -3 0.21260901E+00 0.99824650E+03</pdfrwt>
<totfact> 0.40634707E+00</totfact>
</mgrwt>
</event>
<event>
 9    1  0.4307774E-036  0.9974697E+03  0.7818608E-02  0.8683451E-01
          1   -1    0    0  501    0  0.00000000000E+00  0.00000000000E+00  0.31396895687E+03  0.31396895687E+03  0.00000000000E+00 0. -1.
         -1   -1    0    0    0  501 -0.00000000000E+00 -0.00000000000E+00 -0.79223264087E+03  0.79223264087E+03  0.00000000000E+00 0. -1.
         36    2    1    2    0    0 -0.14210854715E-13 -0.14210854715E-13 -0.47826368400E+03  0.11062015977E+04  0.99746971053E+03 0.  0.
         25    2    3    3    0    0 -0.53918622951E+02  0.12608643710E+03 -0.74566418125E+02  0.19987137228E+03  0.12483351803E+03 0.  0.
         35    2    3    3    0    0  0.53918622951E+02 -0.12608643710E+03 -0.40369726587E+03  0.90633022547E+03  0.79978621368E+03 0.  0.
         22    1    5    5    0    0 -0.11613564795E+03  0.25938057988E+03  0.48475981539E+02  0.28829792703E+03  0.00000000000E+00 0.  1.
         22    1    5    5    0    0  0.17005427090E+03 -0.38546701698E+03 -0.45217324741E+03  0.61803229844E+03  0.00000000000E+00 0.  1.
          5    1    4    4  502    0 -0.76234561119E+02  0.69944279530E+02  0.28368976028E+00  0.10356679501E+03  0.47000000000E+01 0. -1.
         -5    1    4    4    0  502  0.22315938168E+02  0.56142157573E+02 -0.74850107885E+02  0.96304577273E+02  0.47000000000E+01 0. -1.
<mgrwt>
<rscale>  0 0.99746971E+03</rscale>
<asrwt>0</asrwt>
<pdfrwt beam="1">  1        1 0.48302916E-01 0.99746971E+03</pdfrwt>
<pdfrwt beam="2">  1       -1 0.12188195E+00 0.99746971E+03</pdfrwt>
<totfact> 0.59152091E+01</totfact>
</mgrwt>
</event>
<event>
 9    1  0.4307774E-036  0.1000293E+04  0.7818608E-02  0.8680759E-01
          1   -1    0    0  501    0  0.00000000000E+00  0.00000000000E+00  0.11625189076E+04  0.11625189076E+04  0.00000000000E+00 0. -1.
         -1   -1    0    0    0  501 -0.00000000000E+00 -0.00000000000E+00 -0.21517623825E+03  0.21517623825E+03  0.00000000000E+00 0. -1.
         36    2    1    2    0    0  0.00000000000E+00  0.00000000000E+00  0.94734266934E+03  0.13776951458E+04  0.10002928480E+04 0.  0.
         25    2    3    3    0    0 -0.90536759192E+02 -0.87323492989E+02  0.89216093563E+02  0.19867906455E+03  0.12526596564E+03 0.  0.
         35    2    3    3    0    0  0.90536759192E+02  0.87323492989E+02  0.85812657578E+03  0.11790160813E+04  0.79867102281E+03 0.  0.
         22    1    5    5    0    0 -0.15815469421E+03  0.26268297147E+03  0.81613538053E+03  0.87183267326E+03  0.00000000000E+00 0.  1.
         22    1    5    5    0    0  0.24869145340E+03 -0.17535947848E+03  0.41991195248E+02  0.30718340803E+03  0.00000000000E+00 0.  1.
          5    1    4    4  502    0 -0.71379523966E+02 -0.10517780489E+03  0.25635491273E+02  0.12975621564E+03  0.47000000000E+01 0. -1.
         -5    1    4    4    0  502 -0.19157235227E+02  0.17854311903E+02  0.63580602290E+02  0.68922848915E+02  0.47000000000E+01 0. -1.
<mgrwt>
<rscale>  0 0.10002928E+04</rscale>
<asrwt>0</asrwt>
<pdfrwt beam="1">  1        1 0.17884906E+00 0.10002928E+04</pdfrwt>
<pdfrwt beam="2">  1       -1 0.33104038E-01 0.10002928E+04</pdfrwt>
<totfact> 0.10790671E+02</totfact>
</mgrwt>
</event>
<event>
 9    1  0.4307774E-036  0.1000286E+04  0.7818608E-02  0.8680766E-01
          1   -1    0    0  501    0  0.00000000000E+00  0.00000000000E+00  0.13229364114E+04  0.13229364114E+04  0.00000000000E+00 0.  1.
         -1   -1    0    0    0  501 -0.00000000000E+00 -0.00000000000E+00 -0.18908165968E+03  0.18908165968E+03  0.00000000000E+00 0.  1.
         36    2    1    2    0    0 -0.39079850467E-13 -0.35527136788E-13  0.11338547517E+04  0.15120180710E+04  0.10002859837E+04 0.  0.
         25    2    3    3    0    0 -0.15891371281E+02 -0.22141356553E+02  0.52117564314E+01  0.12864780246E+03  0.12561974097E+03 0.  0.
         35    2    3    3    0    0  0.15891371281E+02  0.22141356553E+02  0.11286429953E+04  0.13833702686E+04  0.79945951362E+03 0.  0.
         22    1    5    5    0    0  0.30161387646E+03  0.26316870592E+03  0.40813750745E+03  0.57166854316E+03  0.00000000000E+00 0.  1.
         22    1    5    5    0    0 -0.28572250518E+03 -0.24102734936E+03  0.72050548780E+03  0.81170172542E+03  0.00000000000E+00 0.  1.
          5    1    4    4  502    0 -0.20954381229E+02 -0.47868864428E+02 -0.46739375859E+02  0.70265023518E+02  0.47000000000E+01 0.  1.
         -5    1    4    4    0  502  0.50630099476E+01  0.25727507875E+02  0.51951132290E+02  0.58382778946E+02  0.47000000000E+01 0.  1.
<mgrwt>
<rscale>  0 0.10002860E+04</rscale>
<asrwt>0</asrwt>
<pdfrwt beam="1">  1        1 0.20352867E+00 0.10002860E+04</pdfrwt>
<pdfrwt beam="2">  1       -1 0.29089487E-01 0.10002860E+04</pdfrwt>
<totfact> 0.10252363E+02</totfact>
</mgrwt>
</event>
<event>
 9    1  0.4307774E-036  0.9998092E+03  0.7818608E-02  0.8681220E-01
          2   -1    0    0  501    0  0.00000000000E+00  0.00000000000E+00  0.83769424313E+03  0.83769424313E+03  0.00000000000E+00 0. -1.
         -2   -1    0    0    0  501 -0.00000000000E+00 -0.00000000000E+00 -0.29832439124E+03  0.29832439124E+03  0.00000000000E+00 0. -1.
         36    2    1    2    0    0  0.28421709430E-13  0.00000000000E+00  0.53936985189E+03  0.11360186344E+04  0.99980923207E+03 0.  0.
         25    2    3    3    0    0 -0.66909662418E+02 -0.88161254332E+02  0.24935689430E+01  0.16660401666E+03  0.12450450109E+03 0.  0.
         35    2    3    3    0    0  0.66909662418E+02  0.88161254332E+02  0.53687628295E+03  0.96941461772E+03  0.79954940320E+03 0.  0.
         22    1    5    5    0    0 -0.18908458833E+03 -0.15313788558E+03  0.56633298774E+03  0.61639049843E+03  0.00000000000E+00 0.  1.
         22    1    5    5    0    0  0.25599425075E+03  0.24129913991E+03 -0.29456704797E+02  0.35302411929E+03  0.00000000000E+00 0.  1.
          5    1    4    4  502    0  0.35745133711E+02 -0.28070804182E+02 -0.10415626125E+02  0.46864271028E+02  0.47000000000E+01 0.  1.
         -5    1    4    4    0  502 -0.10265479613E+03 -0.60090450150E+02  0.12909195068E+02  0.11973974563E+03  0.47000000000E+01 0.  1.
<mgrwt>
<rscale>  0 0.99980923E+03</rscale>
<asrwt>0</asrwt>
<pdfrwt beam="1">  1        2 0.12887604E+00 0.99980923E+03</pdfrwt>
<pdfrwt beam="2">  1       -2 0.45896061E-01 0.99980923E+03</pdfrwt>
<totfact> 0.17637031E+02</totfact>
</mgrwt>
</event>
<event>
 9    1  0.4307774E-036  0.1000228E+04  0.7818608E-02  0.8680821E-01
         -2   -1    0    0    0  501 -0.00000000000E+00  0.00000000000E+00  0.17598921256E+03  0.17598921256E+03  0.00000000000E+00 0.  1.
          2   -1    0    0  501    0  0.00000000000E+00 -0.00000000000E+00 -0.14211885681E+04  0.14211885681E+04  0.00000000000E+00 0.  1.
         36    2    1    2    0    0  0.56843418861E-13 -0.17763568394E-13 -0.12451993556E+04  0.15971777807E+04  0.10002276881E+04 0.  0.
         25    2    3    3    0    0  0.14189538484E+03  0.97022508116E+01 -0.23106402237E+03  0.29806375100E+03  0.12338145452E+03 0.  0.
         35    2    3    3    0    0 -0.14189538484E+03 -0.97022508116E+01 -0.10141353332E+04  0.12991140297E+04  0.79937372622E+03 0.  0.
         22    1    5    5    0    0  0.22824476717E+03 -0.27059776511E+03 -0.51771161500E+03  0.62717153996E+03  0.00000000000E+00 0. -1.
         22    1    5    5    0    0 -0.37014015202E+03  0.26089551430E+03 -0.49642371819E+03  0.67194248973E+03  0.00000000000E+00 0. -1.
          5    1    4    4  502    0  0.14684833376E+03 -0.95830587193E+01 -0.13471203899E+03  0.19956375320E+03  0.47000000000E+01 0.  1.
         -5    1    4    4    0  502 -0.49529489148E+01  0.19285309531E+02 -0.96351983379E+02  0.98499997806E+02  0.47000000000E+01 0.  1.
<mgrwt>
<rscale>  0 0.10002277E+04</rscale>
<asrwt>0</asrwt>
<pdfrwt beam="1">  1        2 0.21864438E+00 0.10002277E+04</pdfrwt>
<pdfrwt beam="2">  1       -2 0.27075265E-01 0.10002277E+04</pdfrwt>
<totfact> 0.20898699E+02</totfact>
</mgrwt>
</event>
<event>
 9    1  0.4307774E-036  0.9998055E+03  0.7818608E-02  0.8681223E-01
         -1   -1    0    0    0  501 -0.00000000000E+00  0.00000000000E+00  0.32545674446E+03  0.32545674446E+03  0.00000000000E+00 0.  1.
          1   -1    0    0  501    0  0.00000000000E+00 -0.00000000000E+00 -0.76785252043E+03  0.76785252043E+03  0.00000000000E+00 0.  1.
         36    2    1    2    0    0  0.28421709430E-13 -0.28421709430E-13 -0.44239577596E+03  0.10933092649E+04  0.99980554415E+03 0.  0.
         25    2    3    3    0    0  0.77854106300E+02  0.99996331311E+02 -0.16989127383E+02  0.17845119895E+03  0.12448161235E+03 0.  0.
         35    2    3    3    0    0 -0.77854106300E+02 -0.99996331311E+02 -0.42540664858E+03  0.91485806594E+03  0.79995870895E+03 0.  0.
         22    1    5    5    0    0  0.20258511123E+03  0.26381544478E+03 -0.27476803399E+03  0.43143572951E+03  0.00000000000E+00 0. -1.
         22    1    5    5    0    0 -0.28043921753E+03 -0.36381177609E+03 -0.15063861459E+03  0.48342233643E+03  0.00000000000E+00 0. -1.
          5    1    4    4  502    0  0.75793453864E+02  0.12814928918E+03 -0.16010451531E+02  0.14981759751E+03  0.47000000000E+01 0.  1.
         -5    1    4    4    0  502  0.20606524369E+01 -0.28152957865E+02 -0.97867585121E+00  0.28633601440E+02  0.47000000000E+01 0.  1.
<mgrwt>
<rscale>  0 0.99980554E+03</rscale>
<asrwt>0</asrwt>
<pdfrwt beam="1">  1        1 0.11813116E+00 0.99980554E+03</pdfrwt>
<pdfrwt beam="2">  1       -1 0.50070269E-01 0.99980554E+03</pdfrwt>
<totfact> 0.10793906E+02</totfact>
</mgrwt>
</event>
<event>
 9    1  0.4307774E-036  0.1004748E+04  0.7818608E-02  0.8676530E-01
          2   -1    0    0  501    0  0.00000000000E+00  0.00000000000E+00  0.39866258363E+03  0.39866258363E+03  0.00000000000E+00 0.  1.
         -2   -1    0    0    0  501 -0.00000000000E+00 -0.00000000000E+00 -0.63306548464E+03  0.63306548464E+03  0.00000000000E+00 0.  1.
         36    2    1    2    0    0 -0.35527136788E-14  0.00000000000E+00 -0.23440290101E+03  0.10317280683E+04  0.10047477728E+04 0.  0.
         25    2    3    3    0    0  0.30512619822E+02  0.12913221294E+03  0.22267488590E+02  0.18396526750E+03  0.12546405945E+03 0.  0.
         35    2    3    3    0    0 -0.30512619822E+02 -0.12913221294E+03 -0.25667038960E+03  0.84776280077E+03  0.79700434697E+03 0.  0.
         22    1    5    5    0    0 -0.75716622451E+02 -0.46287719584E+03 -0.11877945639E+03  0.48383557600E+03  0.00000000000E+00 0. -1.
         22    1    5    5    0    0  0.45204002629E+02  0.33374498290E+03 -0.13789093320E+03  0.36392722477E+03  0.00000000000E+00 0. -1.
          5    1    4    4  502    0 -0.23754049475E+02  0.12386030595E+03  0.39857823410E+01  0.12626799561E+03  0.47000000000E+01 0.  1.
         -5    1    4    4    0  502  0.54266669297E+02  0.52719069911E+01  0.18281706249E+02  0.57697271888E+02  0.47000000000E+01 0.  1.
<mgrwt>
<rscale>  0 0.10047478E+04</rscale>
<asrwt>0</asrwt>
<pdfrwt beam="1">  1        2 0.61332705E-01 0.10047478E+04</pdfrwt>
<pdfrwt beam="2">  1       -2 0.97394690E-01 0.10047478E+04</pdfrwt>
<totfact> 0.83496304E+01</totfact>
</mgrwt>
</event>
<event>
 9    1  0.4307774E-036  0.1000485E+04  0.7818608E-02  0.8680576E-01
          1   -1    0    0  501    0  0.00000000000E+00  0.00000000000E+00  0.18521225168E+04  0.18521225168E+04  0.00000000000E+00 0.  1.
         -1   -1    0    0    0  501 -0.00000000000E+00 -0.00000000000E+00 -0.13511117943E+03  0.13511117943E+03  0.00000000000E+00 0.  1.
         36    2    1    2    0    0 -0.21316282073E-13  0.00000000000E+00  0.17170113374E+04  0.19872336962E+04  0.10004847979E+04 0.  0.
         25    2    3    3    0    0  0.14199281271E+02  0.12107118801E+03  0.19694922257E+03  0.26345033804E+03  0.12552781440E+03 0.  0.
         35    2    3    3    0    0 -0.14199281271E+02 -0.12107118801E+03  0.15200621148E+04  0.17237833582E+04  0.80372904697E+03 0.  0.
         22    1    5    5    0    0  0.34569229720E+03 -0.25352669105E+03  0.83881411696E+03  0.94201277604E+03  0.00000000000E+00 0. -1.
         22    1    5    5    0    0 -0.35989157847E+03  0.13245550305E+03  0.68124799786E+03  0.78177058216E+03  0.00000000000E+00 0. -1.
          5    1    4    4  502    0 -0.12247265733E+02  0.14001978770E+03  0.17204631596E+03  0.22221062373E+03  0.47000000000E+01 0. -1.
         -5    1    4    4    0  502  0.26446547004E+02 -0.18948599689E+02  0.24902906617E+02  0.41239714313E+02  0.47000000000E+01 0. -1.
<mgrwt>
<rscale>  0 0.10004848E+04</rscale>
<asrwt>0</asrwt>
<pdfrwt beam="1">  1        1 0.28494191E+00 0.10004848E+04</pdfrwt>
<pdfrwt beam="2">  1       -1 0.20786337E-01 0.10004848E+04</pdfrwt>
<totfact> 0.75867452E+01</totfact>
</mgrwt>
</event>
<event>
 9    1  0.4307774E-036  0.9995521E+03  0.7818608E-02  0.8681465E-01
          1   -1    0    0  501    0  0.00000000000E+00  0.00000000000E+00  0.49889493230E+03  0.49889493230E+03  0.00000000000E+00 0. -1.
         -1   -1    0    0    0  501 -0.00000000000E+00 -0.00000000000E+00 -0.50065873532E+03  0.50065873532E+03  0.00000000000E+00 0. -1.
         36    2    1    2    0    0  0.00000000000E+00 -0.10658141036E-13 -0.17638030183E+01  0.99955366763E+03  0.99955211143E+03 0.  0.
         25    2    3    3    0    0 -0.71223139027E+02 -0.14308260782E+00  0.11929430827E+03  0.18703013593E+03  0.12520536632E+03 0.  0.
         35    2    3    3    0    0  0.71223139027E+02  0.14308260782E+00 -0.12105811129E+03  0.81252353169E+03  0.80029161388E+03 0.  0.
         22    1    5    5    0    0 -0.19302727065E+03  0.10880580360E+03 -0.37151147448E+03  0.43257254395E+03  0.00000000000E+00 0. -1.
         22    1    5    5    0    0  0.26425040968E+03 -0.10866272099E+03  0.25045336319E+03  0.37995098774E+03  0.00000000000E+00 0. -1.
          5    1    4    4  502    0 -0.88675651713E+02 -0.23492416553E+02  0.36001348405E+02  0.98658258292E+02  0.47000000000E+01 0. -1.
         -5    1    4    4    0  502  0.17452512686E+02  0.23349333945E+02  0.83292959866E+02  0.88371877641E+02  0.47000000000E+01 0. -1.
<mgrwt>
<rscale>  0 0.99955211E+03</rscale>
<asrwt>0</asrwt>
<pdfrwt beam="1">  1        1 0.76753067E-01 0.99955211E+03</pdfrwt>
<pdfrwt beam="2">  1       -1 0.77024421E-01 0.99955211E+03</pdfrwt>
<totfact> 0.88719559E+01</totfact>
</mgrwt>
</event>
<event>
 9    1  0.4307774E-036  0.9999959E+03  0.7818608E-02  0.8681042E-01
         -2   -1    0    0    0  501 -0.00000000000E+00  0.00000000000E+00  0.15852350244E+04  0.15852350244E+04  0.00000000000E+00 0.  1.
          2   -1    0    0  501    0  0.00000000000E+00 -0.00000000000E+00 -0.15770403414E+03  0.15770403414E+03  0.00000000000E+00 0.  1.
         36    2    1    2    0    0 -0.14210854715E-13 -0.14210854715E-13  0.14275309902E+04  0.17429390585E+04  0.99999591679E+03 0.  0.
         25    2    3    3    0    0  0.89523381313E+02 -0.76164937685E+02  0.14557406771E+03  0.22498810609E+03  0.12494921031E+03 0.  0.
         35    2    3    3    0    0 -0.89523381313E+02  0.76164937685E+02  0.12819569225E+04  0.15179509524E+04  0.80432954019E+03 0.  0.
         22    1    5    5    0    0  0.63959795082E+02 -0.32790188532E+03  0.31669786830E+03  0.46033470602E+03  0.00000000000E+00 0. -1.
         22    1    5    5    0    0 -0.15348317640E+03  0.40406682300E+03  0.96525905423E+03  0.10576162464E+04  0.00000000000E+00 0. -1.
          5    1    4    4  502    0  0.50484702532E+02 -0.30098947325E+02 -0.83732470812E+01  0.59555462273E+02  0.47000000000E+01 0.  1.
         -5    1    4    4    0  502  0.39038678781E+02 -0.46065990359E+02  0.15394731479E+03  0.16543264381E+03  0.47000000000E+01 0.  1.
<mgrwt>
<rscale>  0 0.99999592E+03</rscale>
<asrwt>0</asrwt>
<pdfrwt beam="1">  1        2 0.24262160E-01 0.99999592E+03</pdfrwt>
<pdfrwt beam="2">  1       -2 0.24388230E+00 0.99999592E+03</pdfrwt>
<totfact> 0.17055621E+01</totfact>
</mgrwt>
</event>
<event>
 9    1  0.4307774E-036  0.1000450E+04  0.7818608E-02  0.8680610E-01
          2   -1    0    0  501    0  0.00000000000E+00  0.00000000000E+00  0.21360356159E+04  0.21360356159E+04  0.00000000000E+00 0.  1.
         -2   -1    0    0    0  501 -0.00000000000E+00 -0.00000000000E+00 -0.11714451734E+03  0.11714451734E+03  0.00000000000E+00 0.  1.
         36    2    1    2    0    0  0.42632564146E-13 -0.14210854715E-13  0.20188910986E+04  0.22531801333E+04  0.10004496214E+04 0.  0.
         25    2    3    3    0    0 -0.27283074630E+02 -0.10576374116E+03  0.18128925303E+03  0.24579519272E+03  0.12497659139E+03 0.  0.
         35    2    3    3    0    0  0.27283074630E+02  0.10576374116E+03  0.18376018456E+04  0.20073849405E+04  0.80055194812E+03 0.  0.
         22    1    5    5    0    0  0.39954810478E+03 -0.34105221476E+02  0.10743370387E+04  0.11467353343E+04  0.00000000000E+00 0. -1.
         22    1    5    5    0    0 -0.37226503015E+03  0.13986896264E+03  0.76326480683E+03  0.86064960624E+03  0.00000000000E+00 0. -1.
          5    1    4    4  502    0  0.48797569010E+02 -0.57678037730E+02  0.77433833360E+02  0.10828687513E+03  0.47000000000E+01 0. -1.
         -5    1    4    4    0  502 -0.76080643641E+02 -0.48085703431E+02  0.10385541967E+03  0.13750831759E+03  0.47000000000E+01 0. -1.
<mgrwt>
<rscale>  0 0.10004496E+04</rscale>
<asrwt>0</asrwt>
<pdfrwt beam="1">  1        2 0.32862084E+00 0.10004496E+04</pdfrwt>
<pdfrwt beam="2">  1       -2 0.18022235E-01 0.10004496E+04</pdfrwt>
<totfact> 0.16756376E+02</totfact>
</mgrwt>
</event>
<event>
 9    1  0.4307774E-036  0.9992822E+03  0.7818608E-02  0.8681722E-01
          2   -1    0    0  501    0  0.00000000000E+00  0.00000000000E+00  0.22797802611E+04  0.22797802611E+04  0.00000000000E+00 0. -1.
         -2   -1    0    0    0  501 -0.00000000000E+00 -0.00000000000E+00 -0.10950231978E+03  0.10950231978E+03  0.00000000000E+00 0. -1.
         36    2    1    2    0    0  0.00000000000E+00  0.71054273576E-14  0.21702779413E+04  0.23892825809E+04  0.99928219672E+03 0.  0.
         25    2    3    3    0    0  0.89660645366E+02 -0.48038092948E+02  0.17849229853E+03  0.24046224731E+03  0.12496360289E+03 0.  0.
         35    2    3    3    0    0 -0.89660645366E+02  0.48038092948E+02  0.19917856428E+04  0.21488203336E+04  0.79992005187E+03 0.  0.
         22    1    5    5    0    0  0.23556714360E+03  0.16914653815E+03  0.15972738268E+04  0.16233872330E+04  0.00000000000E+00 0. -1.
         22    1    5    5    0    0 -0.32522778896E+03 -0.12110844521E+03  0.39451181606E+03  0.52543310062E+03  0.00000000000E+00 0. -1.
          5    1    4    4  502    0 -0.54815805668E+01  0.29193698620E+02  0.92569484625E+01  0.31465868167E+02  0.47000000000E+01 0. -1.
         -5    1    4    4    0  502  0.95142225932E+02 -0.77231791568E+02  0.16923535007E+03  0.20899637915E+03  0.47000000000E+01 0. -1.
<mgrwt>
<rscale>  0 0.99928220E+03</rscale>
<asrwt>0</asrwt>
<pdfrwt beam="1">  1        2 0.35073539E+00 0.99928220E+03</pdfrwt>
<pdfrwt beam="2">  1       -2 0.16846512E-01 0.99928220E+03</pdfrwt>
<totfact> 0.15502330E+02</totfact>
</mgrwt>
</event>
<event>
 9    1  0.4307774E-036  0.9989044E+03  0.7818608E-02  0.8682082E-01
         -2   -1    0    0    0  501 -0.00000000000E+00  0.00000000000E+00  0.40208156164E+03  0.40208156164E+03  0.00000000000E+00 0. -1.
          2   -1    0    0  501    0  0.00000000000E+00 -0.00000000000E+00 -0.62040277192E+03  0.62040277192E+03  0.00000000000E+00 0. -1.
         36    2    1    2    0    0  0.71054273576E-14  0.28421709430E-13 -0.21832121029E+03  0.10224843336E+04  0.99890443062E+03 0.  0.
         25    2    3    3    0    0 -0.14850217664E+02 -0.98678212822E+02  0.56390307314E+02  0.16964126135E+03  0.12506147345E+03 0.  0.
         35    2    3    3    0    0  0.14850217664E+02  0.98678212822E+02 -0.27471151760E+03  0.85284307222E+03  0.80119720998E+03 0.  0.
         22    1    5    5    0    0 -0.42098519866E+02 -0.33031678898E+03 -0.25539751063E+03  0.41965385128E+03  0.00000000000E+00 0.  1.
         22    1    5    5    0    0  0.56948737530E+02  0.42899500180E+03 -0.19314006973E+02  0.43318922094E+03  0.00000000000E+00 0.  1.
          5    1    4    4  502    0 -0.55054161064E+02 -0.61619475518E+01  0.37080345598E+02  0.66827930372E+02  0.47000000000E+01 0. -1.
         -5    1    4    4    0  502  0.40203943400E+02 -0.92516265270E+02  0.19309961717E+02  0.10281333097E+03  0.47000000000E+01 0. -1.
<mgrwt>
<rscale>  0 0.99890443E+03</rscale>
<asrwt>0</asrwt>
<pdfrwt beam="1">  1        2 0.95446579E-01 0.99890443E+03</pdfrwt>
<pdfrwt beam="2">  1       -2 0.61858703E-01 0.99890443E+03</pdfrwt>
<totfact> 0.13985192E+02</totfact>
</mgrwt>
</event>
<event>
 9    1  0.4307774E-036  0.1001726E+04  0.7818608E-02  0.8679396E-01
         -2   -1    0    0    0  501 -0.00000000000E+00  0.00000000000E+00  0.17732065372E+03  0.17732065372E+03  0.00000000000E+00 0.  1.
          2   -1    0    0  501    0  0.00000000000E+00 -0.00000000000E+00 -0.14147456045E+04  0.14147456045E+04  0.00000000000E+00 0.  1.
         36    2    1    2    0    0 -0.28421709430E-13  0.28421709430E-13 -0.12374249508E+04  0.15920662583E+04  0.10017257418E+04 0.  0.
         25    2    3    3    0    0  0.10394381993E+03 -0.86264845496E+02 -0.30296375274E+03  0.35449427436E+03  0.12503285092E+03 0.  0.
         35    2    3    3    0    0 -0.10394381993E+03  0.86264845496E+02 -0.93446119808E+03  0.12375719839E+04  0.80007546103E+03 0.  0.
         22    1    5    5    0    0 -0.13687448741E+03  0.30157201837E+03 -0.60225627330E+02  0.33661169581E+03  0.00000000000E+00 0. -1.
         22    1    5    5    0    0  0.32930667484E+02 -0.21530717287E+03 -0.87423557075E+03  0.90096028809E+03  0.00000000000E+00 0. -1.
          5    1    4    4  502    0  0.57549525495E+02  0.23596401110E+02 -0.13196913578E+03  0.14596808154E+03  0.47000000000E+01 0.  1.
         -5    1    4    4    0  502  0.46394294435E+02 -0.10986124661E+03 -0.17099461696E+03  0.20852619282E+03  0.47000000000E+01 0.  1.
<mgrwt>
<rscale>  0 0.10017257E+04</rscale>
<asrwt>0</asrwt>
<pdfrwt beam="1">  1        2 0.21765317E+00 0.10017257E+04</pdfrwt>
<pdfrwt beam="2">  1       -2 0.27280101E-01 0.10017257E+04</pdfrwt>
<totfact> 0.20792793E+02</totfact>
</mgrwt>
</event>
<event>
 9    1  0.4307774E-036  0.9999177E+03  0.7818608E-02  0.8681116E-01
         -2   -1    0    0    0  501 -0.00000000000E+00  0.00000000000E+00  0.18588694489E+03  0.18588694489E+03  0.00000000000E+00 0. -1.
          2   -1    0    0  501    0  0.00000000000E+00 -0.00000000000E+00 -0.13446820179E+04  0.13446820179E+04  0.00000000000E+00 0. -1.
         36    2    1    2    0    0  0.00000000000E+00  0.00000000000E+00 -0.11587950730E+04  0.15305689628E+04  0.99991766094E+03 0.  0.
         25    2    3    3    0    0  0.33967044542E+02 -0.68270363908E+02 -0.39690300735E+03  0.42364251070E+03  0.12698967251E+03 0.  0.
         35    2    3    3    0    0 -0.33967044542E+02  0.68270363908E+02 -0.76189206568E+03  0.11069264521E+04  0.79936978174E+03 0.  0.
         22    1    5    5    0    0  0.28181566456E+03  0.16422377861E+03 -0.69843214255E+03  0.77084173213E+03  0.00000000000E+00 0.  1.
         22    1    5    5    0    0 -0.31578270911E+03 -0.95953414706E+02 -0.63459923130E+02  0.33608471999E+03  0.00000000000E+00 0.  1.
          5    1    4    4  502    0  0.20607811385E+02 -0.10035209297E+03 -0.35219138982E+03  0.36681887835E+03  0.47000000000E+01 0.  1.
         -5    1    4    4    0  502  0.13359233157E+02  0.32081729066E+02 -0.44711617534E+02  0.56823632346E+02  0.47000000000E+01 0.  1.
<mgrwt>
<rscale>  0 0.99991766E+03</rscale>
<asrwt>0</asrwt>
<pdfrwt beam="1">  1        2 0.20687416E+00 0.99991766E+03</pdfrwt>
<pdfrwt beam="2">  1       -2 0.28597991E-01 0.99991766E+03</pdfrwt>
<totfact> 0.20946082E+02</totfact>
</mgrwt>
</event>
<event>
 9    1  0.4307774E-036  0.9970864E+03  0.7818608E-02  0.8683818E-01
         -1   -1    0    0    0  501 -0.00000000000E+00  0.00000000000E+00  0.34818705772E+03  0.34818705772E+03  0.00000000000E+00 0.  1.
          1   -1    0    0  501    0  0.00000000000E+00 -0.00000000000E+00 -0.71382698940E+03  0.71382698940E+03  0.00000000000E+00 0.  1.
         36    2    1    2    0    0  0.00000000000E+00  0.14210854715E-13 -0.36563993168E+03  0.10620140471E+04  0.99708639377E+03 0.  0.
         25    2    3    3    0    0  0.11297242274E+02  0.12373850337E+03 -0.15841266627E+02  0.17629292353E+03  0.12405403766E+03 0.  0.
         35    2    3    3    0    0 -0.11297242274E+02 -0.12373850337E+03 -0.34979866505E+03  0.88572112359E+03  0.80417905830E+03 0.  0.
         22    1    5    5    0    0 -0.61113411533E+01  0.34316656550E+03 -0.18936315129E+03  0.39199367754E+03  0.00000000000E+00 0.  1.
         22    1    5    5    0    0 -0.51859011203E+01 -0.46690506887E+03 -0.16043551376E+03  0.49372744605E+03  0.00000000000E+00 0.  1.
          5    1    4    4  502    0 -0.22481796823E+02  0.96538235567E+02  0.38647631264E+02  0.10649315244E+03  0.47000000000E+01 0.  1.
         -5    1    4    4    0  502  0.33779039096E+02  0.27200267804E+02 -0.54488897891E+02  0.69799771090E+02  0.47000000000E+01 0.  1.
<mgrwt>
<rscale>  0 0.99708639E+03</rscale>
<asrwt>0</asrwt>
<pdfrwt beam="1">  1        1 0.10981954E+00 0.99708639E+03</pdfrwt>
<pdfrwt beam="2">  1       -1 0.53567240E-01 0.99708639E+03</pdfrwt>
<totfact> 0.10678713E+02</totfact>
</mgrwt>
</event>
<event>
 9    1  0.4307774E-036  0.9984389E+03  0.7818608E-02  0.8682526E-01
          2   -1    0    0  501    0  0.00000000000E+00  0.00000000000E+00  0.13212996384E+04  0.13212996384E+04  0.00000000000E+00 0. -1.
         -2   -1    0    0    0  501 -0.00000000000E+00 -0.00000000000E+00 -0.18861737691E+03  0.18861737691E+03  0.00000000000E+00 0. -1.
         36    2    1    2    0    0 -0.14210854715E-13  0.28421709430E-13  0.11326822615E+04  0.15099170153E+04  0.99843892534E+03 0.  0.
         25    2    3    3    0    0  0.89082027200E+02  0.10446916864E+03  0.23324332562E+03  0.29821490769E+03  0.12522087468E+03 0.  0.
         35    2    3    3    0    0 -0.89082027200E+02 -0.10446916864E+03  0.89943893589E+03  0.12117021076E+04  0.80023882903E+03 0.  0.
         22    1    5    5    0    0  0.22832043349E+03  0.21835562681E+03  0.57035893547E+03  0.65201128470E+03  0.00000000000E+00 0.  1.
         22    1    5    5    0    0 -0.31740246069E+03 -0.32282479544E+03  0.32908000042E+03  0.55969082294E+03  0.00000000000E+00 0.  1.
          5    1    4    4  502    0  0.11178162175E+03  0.43656561351E+02  0.13917898180E+03  0.18383118692E+03  0.47000000000E+01 0. -1.
         -5    1    4    4    0  502 -0.22699594555E+02  0.60812607287E+02  0.94064343825E+02  0.11438372077E+03  0.47000000000E+01 0. -1.
<mgrwt>
<rscale>  0 0.99843893E+03</rscale>
<asrwt>0</asrwt>
<pdfrwt beam="1">  1        2 0.20327686E+00 0.99843893E+03</pdfrwt>
<pdfrwt beam="2">  1       -2 0.29018059E-01 0.99843893E+03</pdfrwt>
<totfact> 0.21043615E+02</totfact>
</mgrwt>
</event>
<event>
 9    1  0.4307774E-036  0.1000273E+04  0.7818608E-02  0.8680778E-01
         -2   -1    0    0    0  501 -0.00000000000E+00  0.00000000000E+00  0.10778680040E+04  0.10778680040E+04  0.00000000000E+00 0.  1.
          2   -1    0    0  501    0  0.00000000000E+00 -0.00000000000E+00 -0.23206596647E+03  0.23206596647E+03  0.00000000000E+00 0.  1.
         36    2    1    2    0    0  0.35527136788E-14  0.28421709430E-13  0.84580203753E+03  0.13099339705E+04  0.10002729229E+04 0.  0.
         25    2    3    3    0    0  0.21797050519E+02  0.11843753728E+03  0.68396899419E+02  0.18669047192E+03  0.12519039422E+03 0.  0.
         35    2    3    3    0    0 -0.21797050519E+02 -0.11843753728E+03  0.77740513811E+03  0.11232434986E+04  0.80175722425E+03 0.  0.
         22    1    5    5    0    0 -0.69276936463E+02  0.34050313397E+03  0.29635263995E+03  0.45669088602E+03  0.00000000000E+00 0. -1.
         22    1    5    5    0    0  0.47479885944E+02 -0.45894067125E+03  0.48105249817E+03  0.66655261254E+03  0.00000000000E+00 0. -1.
          5    1    4    4  502    0 -0.78812123658E+01  0.12119010440E+03  0.88577327965E+02  0.15039011916E+03  0.47000000000E+01 0. -1.
         -5    1    4    4    0  502  0.29678262885E+02 -0.27525671192E+01 -0.20180428546E+02  0.36300352752E+02  0.47000000000E+01 0. -1.
<mgrwt>
<rscale>  0 0.10002729E+04</rscale>
<asrwt>0</asrwt>
<pdfrwt beam="1">  1        2 0.35702457E-01 0.10002729E+04</pdfrwt>
<pdfrwt beam="2">  1       -2 0.16582584E+00 0.10002729E+04</pdfrwt>
<totfact> 0.37301875E+01</totfact>
</mgrwt>
</event>
<event>
 9    1  0.4307774E-036  0.1001746E+04  0.7818608E-02  0.8679377E-01
         -2   -1    0    0    0  501 -0.00000000000E+00  0.00000000000E+00  0.26315146605E+03  0.26315146605E+03  0.00000000000E+00 0.  1.
          2   -1    0    0  501    0  0.00000000000E+00 -0.00000000000E+00 -0.95334371199E+03  0.95334371199E+03  0.00000000000E+00 0.  1.
         36    2    1    2    0    0  0.00000000000E+00  0.71054273576E-14 -0.69019224594E+03  0.12164951780E+04  0.10017460665E+04 0.  0.
         25    2    3    3    0    0  0.17123446914E+02  0.89127275733E+01 -0.30886967409E+03  0.33319629470E+03  0.12347730999E+03 0.  0.
         35    2    3    3    0    0 -0.17123446914E+02 -0.89127275733E+01 -0.38132257185E+03  0.88329888334E+03  0.79651576530E+03 0.  0.
         22    1    5    5    0    0  0.61056810252E+02  0.19873156545E+03  0.18297362330E+03  0.27695038546E+03  0.00000000000E+00 0. -1.
         22    1    5    5    0    0 -0.78180257166E+02 -0.20764429302E+03 -0.56429619515E+03  0.60634849789E+03  0.00000000000E+00 0. -1.
          5    1    4    4  502    0  0.11654349731E+02  0.98863957540E+01  0.68485871512E+01  0.17394189680E+02  0.47000000000E+01 0. -1.
         -5    1    4    4    0  502  0.54690971824E+01 -0.97366818074E+00 -0.31571826124E+03  0.31580210502E+03  0.47000000000E+01 0. -1.
<mgrwt>
<rscale>  0 0.10017461E+04</rscale>
<asrwt>0</asrwt>
<pdfrwt beam="1">  1        2 0.14666827E+00 0.10017461E+04</pdfrwt>
<pdfrwt beam="2">  1       -2 0.40484840E-01 0.10017461E+04</pdfrwt>
<totfact> 0.18870028E+02</totfact>
</mgrwt>
</event>
<event>
 9    1  0.4307774E-036  0.9984640E+03  0.7818608E-02  0.8682502E-01
         -2   -1    0    0    0  501 -0.00000000000E+00  0.00000000000E+00  0.70233070244E+03  0.70233070244E+03  0.00000000000E+00 0.  1.
          2   -1    0    0  501    0  0.00000000000E+00 -0.00000000000E+00 -0.35486500993E+03  0.35486500993E+03  0.00000000000E+00 0.  1.
         36    2    1    2    0    0 -0.14210854715E-13 -0.14210854715E-13  0.34746569251E+03  0.10571957124E+04  0.99846400374E+03 0.  0.
         25    2    3    3    0    0  0.11723402474E+03 -0.57071659822E+02  0.10181735294E+03  0.21020834408E+03  0.12969110859E+03 0.  0.
         35    2    3    3    0    0 -0.11723402474E+03  0.57071659822E+02  0.24564833957E+03  0.84698736829E+03  0.80002718978E+03 0.  0.
         22    1    5    5    0    0  0.33484883819E+03 -0.36980642968E+02  0.17572269366E+03  0.37996023142E+03  0.00000000000E+00 0. -1.
         22    1    5    5    0    0 -0.45208286293E+03  0.94052302791E+02  0.69925645909E+02  0.46702713687E+03  0.00000000000E+00 0. -1.
          5    1    4    4  502    0 -0.15314846431E+02 -0.20069763656E+02  0.61631489796E+02  0.66767285918E+02  0.47000000000E+01 0. -1.
         -5    1    4    4    0  502  0.13254887117E+03 -0.37001896166E+02  0.40185863144E+02  0.14344105816E+03  0.47000000000E+01 0. -1.
<mgrwt>
<rscale>  0 0.99846400E+03</rscale>
<asrwt>0</asrwt>
<pdfrwt beam="1">  1        2 0.54594617E-01 0.99846400E+03</pdfrwt>
<pdfrwt beam="2">  1       -2 0.10805088E+00 0.99846400E+03</pdfrwt>
<totfact> 0.73704130E+01</totfact>
</mgrwt>
</event>
<event>
 9    1  0.4307774E-036  0.1000610E+04  0.7818608E-02  0.8680457E-01
         -2   -1    0    0    0  501 -0.00000000000E+00  0.00000000000E+00  0.15839134757E+03  0.15839134757E+03  0.00000000000E+00 0.  1.
          2   -1    0    0  501    0  0.00000000000E+00 -0.00000000000E+00 -0.15802952094E+04  0.15802952094E+04  0.00000000000E+00 0.  1.
         36    2    1    2    0    0  0.14210854715E-13  0.00000000000E+00 -0.14219038618E+04  0.17386865570E+04  0.10006099895E+04 0.  0.
         25    2    3    3    0    0 -0.39913628707E+02 -0.12454428120E+03 -0.18150767688E+03  0.25693148649E+03  0.12635021268E+03 0.  0.
         35    2    3    3    0    0  0.39913628707E+02  0.12454428120E+03 -0.12403961849E+04  0.14817550705E+04  0.79994438405E+03 0.  0.
         22    1    5    5    0    0  0.12291746539E+03 -0.14982999244E+03 -0.11708558053E+04  0.11867860156E+04  0.00000000000E+00 0.  1.
         22    1    5    5    0    0 -0.83003836688E+02  0.27437427365E+03 -0.69540379598E+02  0.29496905488E+03  0.00000000000E+00 0.  1.
          5    1    4    4  502    0  0.16243327483E+02  0.17876381213E+02 -0.89026042434E+01  0.26167863025E+02  0.47000000000E+01 0. -1.
         -5    1    4    4    0  502 -0.56156956189E+02 -0.14242066242E+03 -0.17260507264E+03  0.23076362346E+03  0.47000000000E+01 0. -1.
<mgrwt>
<rscale>  0 0.10006100E+04</rscale>
<asrwt>0</asrwt>
<pdfrwt beam="1">  1        2 0.24312234E+00 0.10006100E+04</pdfrwt>
<pdfrwt beam="2">  1       -2 0.24367899E-01 0.10006100E+04</pdfrwt>
<totfact> 0.20485702E+02</totfact>
</mgrwt>
</event>
<event>
 9    1  0.4307774E-036  0.9999397E+03  0.7818608E-02  0.8681095E-01
          1   -1    0    0  501    0  0.00000000000E+00  0.00000000000E+00  0.56099908898E+03  0.56099908898E+03  0.00000000000E+00 0. -1.
         -1   -1    0    0    0  501 -0.00000000000E+00 -0.00000000000E+00 -0.44557974014E+03  0.44557974014E+03  0.00000000000E+00 0. -1.
         36    2    1    2    0    0  0.71054273576E-14  0.21316282073E-13  0.11541934883E+03  0.10065788291E+04  0.99993965475E+03 0.  0.
         25    2    3    3    0    0 -0.29334453291E+02 -0.22037202011E+01 -0.11337471915E+03  0.17134401459E+03  0.12505829785E+03 0.  0.
         35    2    3    3    0    0  0.29334453291E+02  0.22037202011E+01  0.22879406798E+03  0.83523481453E+03  0.80274846828E+03 0.  0.
         22    1    5    5    0    0  0.25862362706E+03  0.31334212415E+03  0.18446640931E+03  0.44620323105E+03  0.00000000000E+00 0. -1.
         22    1    5    5    0    0 -0.22928917377E+03 -0.31113840395E+03  0.44327658676E+02  0.38903158348E+03  0.00000000000E+00 0. -1.
          5    1    4    4  502    0 -0.18166743977E+02 -0.48738433059E+02 -0.46165499021E+01  0.52429647880E+02  0.47000000000E+01 0. -1.
         -5    1    4    4    0  502 -0.11167709314E+02  0.46534712858E+02 -0.10875816925E+03  0.11891436671E+03  0.47000000000E+01 0. -1.
<mgrwt>
<rscale>  0 0.99993965E+03</rscale>
<asrwt>0</asrwt>
<pdfrwt beam="1">  1        1 0.86307552E-01 0.99993965E+03</pdfrwt>
<pdfrwt beam="2">  1       -1 0.68550729E-01 0.99993965E+03</pdfrwt>
<totfact> 0.95059840E+01</totfact>
</mgrwt>
</event>
<event>
 9    1  0.4307774E-036  0.1000034E+04  0.7818608E-02  0.8681006E-01
          1   -1    0    0  501    0  0.00000000000E+00  0.00000000000E+00  0.81221666302E+03  0.81221666302E+03  0.00000000000E+00 0. -1.
         -1   -1    0    0    0  501 -0.00000000000E+00 -0.00000000000E+00 -0.30782040390E+03  0.30782040390E+03  0.00000000000E+00 0. -1.
         36    2    1    2    0    0  0.21316282073E-13  0.28421709430E-13  0.50439625912E+03  0.11200370669E+04  0.10000337220E+04 0.  0.
         25    2    3    3    0    0 -0.86480111003E+01  0.13986224521E+03  0.81562316499E+02  0.20449866337E+03  0.12462365793E+03 0.  0.
         35    2    3    3    0    0  0.86480111003E+01 -0.13986224521E+03  0.42283394262E+03  0.91553840354E+03  0.79986610729E+03 0.  0.
         22    1    5    5    0    0 -0.23428026678E+03 -0.31065790113E+03  0.47501180487E+03  0.61402914402E+03  0.00000000000E+00 0.  1.
         22    1    5    5    0    0  0.24292827788E+03  0.17079565592E+03 -0.52177862249E+02  0.30150925953E+03  0.00000000000E+00 0.  1.
          5    1    4    4  502    0 -0.41262228769E+02  0.14734456552E+03  0.60048893072E+02  0.16444133322E+03  0.47000000000E+01 0. -1.
         -5    1    4    4    0  502  0.32614217668E+02 -0.74823203093E+01  0.21513423426E+02  0.40057330151E+02  0.47000000000E+01 0. -1.
<mgrwt>
<rscale>  0 0.10000337E+04</rscale>
<asrwt>0</asrwt>
<pdfrwt beam="1">  1        1 0.12495641E+00 0.10000337E+04</pdfrwt>
<pdfrwt beam="2">  1       -1 0.47356985E-01 0.10000337E+04</pdfrwt>
<totfact> 0.10920025E+02</totfact>
</mgrwt>
</event>
<event>
 9    1  0.4307774E-036  0.1000476E+04  0.7818608E-02  0.8680585E-01
         -2   -1    0    0    0  501 -0.00000000000E+00  0.00000000000E+00  0.59993708533E+02  0.59993708533E+02  0.00000000000E+00 0. -1.
          2   -1    0    0  501    0  0.00000000000E+00 -0.00000000000E+00 -0.41710728777E+04  0.41710728777E+04  0.00000000000E+00 0. -1.
         36    2    1    2    0    0  0.00000000000E+00 -0.14210854715E-13 -0.41110791691E+04  0.42310665862E+04  0.10004761476E+04 0.  0.
         25    2    3    3    0    0 -0.77346135595E+02 -0.10144810060E+03 -0.10749919356E+04  0.10896708108E+04  0.12450169705E+03 0.  0.
         35    2    3    3    0    0  0.77346135595E+02  0.10144810060E+03 -0.30360872335E+04  0.31413957753E+04  0.79640918256E+03 0.  0.
         22    1    5    5    0    0  0.78667345754E+02 -0.55514781480E+02 -0.29692161015E+04  0.29707767839E+04  0.00000000000E+00 0. -1.
         22    1    5    5    0    0 -0.13212101589E+01  0.15696288208E+03 -0.66871131989E+02  0.17061899144E+03  0.00000000000E+00 0. -1.
          5    1    4    4  502    0 -0.59608621613E+01  0.18106840151E+02 -0.32949553870E+02  0.38355607650E+02  0.47000000000E+01 0. -1.
         -5    1    4    4    0  502 -0.71385273434E+02 -0.11955494075E+03 -0.10420423817E+04  0.10513152032E+04  0.47000000000E+01 0. -1.
<mgrwt>
<rscale>  0 0.10004761E+04</rscale>
<asrwt>0</asrwt>
<pdfrwt beam="1">  1        2 0.64170378E+00 0.10004761E+04</pdfrwt>
<pdfrwt beam="2">  1       -2 0.92297975E-02 0.10004761E+04</pdfrwt>
<totfact> 0.18190871E+01</totfact>
</mgrwt>
</event>
<event>
 9    1  0.4307774E-036  0.9993954E+03  0.7818608E-02  0.8681614E-01
          1   -1    0    0  501    0  0.00000000000E+00  0.00000000000E+00  0.14768602458E+04  0.14768602458E+04  0.00000000000E+00 0.  1.
         -1   -1    0    0    0  501 -0.00000000000E+00 -0.00000000000E+00 -0.16907340986E+03  0.16907340986E+03  0.00000000000E+00 0.  1.
         36    2    1    2    0    0 -0.35527136788E-14  0.00000000000E+00  0.13077868360E+04  0.16459336557E+04  0.99939541252E+03 0.  0.
         25    2    3    3    0    0  0.92218804571E+01 -0.97015732173E+02  0.39478563593E+03  0.42806949393E+03  0.13375611362E+03 0.  0.
         35    2    3    3    0    0 -0.92218804571E+01  0.97015732173E+02  0.91300120005E+03  0.12178641618E+04  0.80007801484E+03 0.  0.
         22    1    5    5    0    0  0.19451925447E+03  0.20981886331E+03  0.11045142109E+02  0.28632794297E+03  0.00000000000E+00 0.  1.
         22    1    5    5    0    0 -0.20374113493E+03 -0.11280313114E+03  0.90195605794E+03  0.93153621878E+03  0.00000000000E+00 0.  1.
          5    1    4    4  502    0 -0.17438138263E+02 -0.25559582779E+02  0.60258747812E+01  0.31871336727E+02  0.47000000000E+01 0. -1.
         -5    1    4    4    0  502  0.26660018720E+02 -0.71456149394E+02  0.38875976115E+03  0.39619815720E+03  0.47000000000E+01 0. -1.
<mgrwt>
<rscale>  0 0.99939541E+03</rscale>
<asrwt>0</asrwt>
<pdfrwt beam="1">  1        1 0.22720926E+00 0.99939541E+03</pdfrwt>
<pdfrwt beam="2">  1       -1 0.26011295E-01 0.99939541E+03</pdfrwt>
<totfact> 0.96033601E+01</totfact>
</mgrwt>
</event>
<event>
 9    1  0.4307774E-036  0.1000174E+04  0.7818608E-02  0.8680872E-01
         -2   -1    0    0    0  501 -0.00000000000E+00  0.00000000000E+00  0.19853153652E+03  0.19853153652E+03  0.00000000000E+00 0.  1.
          2   -1    0    0  501    0  0.00000000000E+00 -0.00000000000E+00 -0.12596849137E+04  0.12596849137E+04  0.00000000000E+00 0.  1.
         36    2    1    2    0    0 -0.14210854715E-13  0.00000000000E+00 -0.10611533772E+04  0.14582164502E+04  0.10001743477E+04 0.  0.
         25    2    3    3    0    0  0.10381811795E+03 -0.57647883696E+02 -0.30868191223E+03  0.35368726396E+03  0.12533426364E+03 0.  0.
         35    2    3    3    0    0 -0.10381811795E+03  0.57647883696E+02 -0.75247146496E+03  0.11045291863E+04  0.79979368442E+03 0.  0.
         22    1    5    5    0    0 -0.15081238503E+03 -0.30716537465E+02 -0.90724945668E+03  0.92021163750E+03  0.00000000000E+00 0. -1.
         22    1    5    5    0    0  0.46994267080E+02  0.88364421161E+02  0.15477799172E+03  0.18431754877E+03  0.00000000000E+00 0. -1.
          5    1    4    4  502    0  0.92735082118E+01  0.81177094346E+01  0.88485282935E+01  0.15883375396E+02  0.47000000000E+01 0. -1.
         -5    1    4    4    0  502  0.94544609736E+02 -0.65765593131E+02 -0.31753044052E+03  0.33780388857E+03  0.47000000000E+01 0. -1.
<mgrwt>
<rscale>  0 0.10001743E+04</rscale>
<asrwt>0</asrwt>
<pdfrwt beam="1">  1        2 0.19379768E+00 0.10001743E+04</pdfrwt>
<pdfrwt beam="2">  1       -2 0.30543314E-01 0.10001743E+04</pdfrwt>
<totfact> 0.20816873E+02</totfact>
</mgrwt>
</event>
<event>
 9    1  0.4307774E-036  0.1000489E+04  0.7818608E-02  0.8680573E-01
          2   -1    0    0  501    0  0.00000000000E+00  0.00000000000E+00  0.18719736248E+03  0.18719736248E+03  0.00000000000E+00 0. -1.
         -2   -1    0    0    0  501 -0.00000000000E+00 -0.00000000000E+00 -0.13367950237E+04  0.13367950237E+04  0.00000000000E+00 0. -1.
         36    2    1    2    0    0  0.00000000000E+00 -0.10658141036E-13 -0.11495976612E+04  0.15239923862E+04  0.10004888857E+04 0.  0.
         25    2    3    3    0    0  0.13128316007E+03  0.23136690738E+02 -0.14372083020E+03  0.23203807550E+03  0.12415883726E+03 0.  0.
         35    2    3    3    0    0 -0.13128316007E+03 -0.23136690738E+02 -0.10058768310E+04  0.12919543107E+04  0.79974193784E+03 0.  0.
         22    1    5    5    0    0  0.25783529755E+03 -0.93743026419E+02 -0.80075933091E+03  0.84645277583E+03  0.00000000000E+00 0.  1.
         22    1    5    5    0    0 -0.38911845762E+03  0.70606335682E+02 -0.20511750009E+03  0.44550153484E+03  0.00000000000E+00 0.  1.
          5    1    4    4  502    0  0.15302070741E+03  0.22518337762E+02 -0.10378119339E+03  0.18631972127E+03  0.47000000000E+01 0.  1.
         -5    1    4    4    0  502 -0.21737547342E+02  0.61835297521E+00 -0.39939636805E+02  0.45718354224E+02  0.47000000000E+01 0.  1.
<mgrwt>
<rscale>  0 0.10004889E+04</rscale>
<asrwt>0</asrwt>
<pdfrwt beam="1">  1        2 0.28799594E-01 0.10004889E+04</pdfrwt>
<pdfrwt beam="2">  1       -2 0.20566078E+00 0.10004889E+04</pdfrwt>
<totfact> 0.24738997E+01</totfact>
</mgrwt>
</event>
<event>
 9    1  0.4307774E-036  0.9906123E+03  0.7818608E-02  0.8690030E-01
         -2   -1    0    0    0  501 -0.00000000000E+00  0.00000000000E+00  0.95530055837E+02  0.95530055837E+02  0.00000000000E+00 0. -1.
          2   -1    0    0  501    0  0.00000000000E+00 -0.00000000000E+00 -0.25680730328E+04  0.25680730328E+04  0.00000000000E+00 0. -1.
         36    2    1    2    0    0 -0.28421709430E-13 -0.14210854715E-13 -0.24725429769E+04  0.26636030886E+04  0.99061225555E+03 0.  0.
         25    2    3    3    0    0 -0.11483599952E+03 -0.56477906132E+02 -0.50367025041E+03  0.53453270263E+03  0.12515761409E+03 0.  0.
         35    2    3    3    0    0  0.11483599952E+03  0.56477906132E+02 -0.19688727265E+04  0.21290703860E+04  0.80006489395E+03 0.  0.
         22    1    5    5    0    0  0.34898787456E+03  0.13825104641E+03 -0.43195129540E+03  0.57226550658E+03  0.00000000000E+00 0.  1.
         22    1    5    5    0    0 -0.23415187505E+03 -0.81773140279E+02 -0.15369214311E+04  0.15568048794E+04  0.00000000000E+00 0.  1.
          5    1    4    4  502    0 -0.11627198108E+03 -0.86595538248E+02 -0.44991925340E+03  0.47272337091E+03  0.47000000000E+01 0. -1.
         -5    1    4    4    0  502  0.14359815623E+01  0.30117632116E+02 -0.53750997010E+02  0.61809331714E+02  0.47000000000E+01 0. -1.
<mgrwt>
<rscale>  0 0.99061226E+03</rscale>
<asrwt>0</asrwt>
<pdfrwt beam="1">  1        2 0.39508815E+00 0.99061226E+03</pdfrwt>
<pdfrwt beam="2">  1       -2 0.14696932E-01 0.99061226E+03</pdfrwt>
<totfact> 0.13094843E+02</totfact>
</mgrwt>
</event>
<event>
 9    1  0.4307774E-036  0.1000003E+04  0.7818608E-02  0.8681035E-01
          1   -1    0    0  501    0  0.00000000000E+00  0.00000000000E+00  0.79137186062E+03  0.79137186062E+03  0.00000000000E+00 0.  1.
         -1   -1    0    0    0  501 -0.00000000000E+00 -0.00000000000E+00 -0.31590900336E+03  0.31590900336E+03  0.00000000000E+00 0.  1.
         36    2    1    2    0    0  0.00000000000E+00 -0.28421709430E-13  0.47546285726E+03  0.11072808640E+04  0.10000029915E+04 0.  0.
         25    2    3    3    0    0 -0.13592831141E+03 -0.33561950046E+02  0.74078503727E+02  0.20177547926E+03  0.12499123562E+03 0.  0.
         35    2    3    3    0    0  0.13592831141E+03  0.33561950046E+02  0.40138435354E+03  0.90550538471E+03  0.79951716188E+03 0.  0.
         22    1    5    5    0    0  0.31092114149E+03 -0.30140192715E+03  0.23351189537E+03  0.49197853937E+03  0.00000000000E+00 0.  1.
         22    1    5    5    0    0 -0.17499283008E+03  0.33496387720E+03  0.16787245816E+03  0.41352684534E+03  0.00000000000E+00 0.  1.
          5    1    4    4  502    0 -0.13547367456E+03 -0.23623485470E+02  0.11323750484E+02  0.13806340170E+03  0.47000000000E+01 0.  1.
         -5    1    4    4    0  502 -0.45463685633E+00 -0.99384645762E+01  0.62754753243E+02  0.63712077563E+02  0.47000000000E+01 0.  1.
<mgrwt>
<rscale>  0 0.10000030E+04</rscale>
<asrwt>0</asrwt>
<pdfrwt beam="1">  1        1 0.12174952E+00 0.10000030E+04</pdfrwt>
<pdfrwt beam="2">  1       -1 0.48601385E-01 0.10000030E+04</pdfrwt>
<totfact> 0.10863094E+02</totfact>
</mgrwt>
</event>
<event>
 9    1  0.4307774E-036  0.9991109E+03  0.7818608E-02  0.8681885E-01
          2   -1    0    0  501    0  0.00000000000E+00  0.00000000000E+00  0.25114362971E+04  0.25114362971E+04  0.00000000000E+00 0.  1.
         -2   -1    0    0    0  501 -0.00000000000E+00 -0.00000000000E+00 -0.99367697909E+02  0.99367697909E+02  0.00000000000E+00 0.  1.
         36    2    1    2    0    0 -0.88817841970E-14 -0.14210854715E-13  0.24120685991E+04  0.26108039950E+04  0.99911089131E+03 0.  0.
         25    2    3    3    0    0  0.89597226357E+01 -0.99440970188E+02  0.70444020472E+03  0.72235958355E+03  0.12489428623E+03 0.  0.
         35    2    3    3    0    0 -0.89597226357E+01  0.99440970188E+02  0.17076283944E+04  0.18884444114E+04  0.80016172014E+03 0.  0.
         22    1    5    5    0    0 -0.21931341631E+03 -0.27451344929E+03  0.10106839747E+04  0.10700178060E+04  0.00000000000E+00 0.  1.
         22    1    5    5    0    0  0.21035369367E+03  0.37395441948E+03  0.69694441971E+03  0.81842660542E+03  0.00000000000E+00 0.  1.
          5    1    4    4  502    0  0.88005645238E+01  0.28124165833E+02  0.90638119492E+02  0.95424196852E+02  0.47000000000E+01 0.  1.
         -5    1    4    4    0  502  0.15915811190E+00 -0.12756513602E+03  0.61380208523E+03  0.62693538669E+03  0.47000000000E+01 0.  1.
<mgrwt>
<rscale>  0 0.99911089E+03</rscale>
<asrwt>0</asrwt>
<pdfrwt beam="1">  1        2 0.38637477E+00 0.99911089E+03</pdfrwt>
<pdfrwt beam="2">  1       -2 0.15287340E-01 0.99911089E+03</pdfrwt>
<totfact> 0.13274679E+02</totfact>
</mgrwt>
</event>
<event>
 9    1  0.4307774E-036  0.9996319E+03  0.7818608E-02  0.8681389E-01
          1   -1    0    0  501    0  0.00000000000E+00  0.00000000000E+00  0.26269494301E+03  0.26269494301E+03  0.00000000000E+00 0.  1.
         -1   -1    0    0    0  501 -0.00000000000E+00 -0.00000000000E+00 -0.95097369627E+03  0.95097369627E+03  0.00000000000E+00 0.  1.
         36    2    1    2    0    0 -0.21316282073E-13  0.00000000000E+00 -0.68827875326E+03  0.12136686393E+04  0.99963189414E+03 0.  0.
         25    2    3    3    0    0  0.29135901567E+02  0.13162816651E+03 -0.80341782273E+02  0.20071827653E+03  0.12513252806E+03 0.  0.
         35    2    3    3    0    0 -0.29135901567E+02 -0.13162816651E+03 -0.60793697099E+03  0.10129503627E+04  0.79894067471E+03 0.  0.
         22    1    5    5    0    0  0.12441621569E+03  0.30701906158E+03 -0.16159752487E+03  0.36858358475E+03  0.00000000000E+00 0. -1.
         22    1    5    5    0    0 -0.15355211725E+03 -0.43864722809E+03 -0.44633944612E+03  0.64436677800E+03  0.00000000000E+00 0. -1.
          5    1    4    4  502    0  0.61236407493E+02  0.47782275425E+02  0.33533018753E+01  0.77886957065E+02  0.47000000000E+01 0. -1.
         -5    1    4    4    0  502 -0.32100505926E+02  0.83845891082E+02 -0.83695084148E+02  0.12283131947E+03  0.47000000000E+01 0. -1.
<mgrwt>
<rscale>  0 0.99963189E+03</rscale>
<asrwt>0</asrwt>
<pdfrwt beam="1">  1        1 0.40414606E-01 0.99963189E+03</pdfrwt>
<pdfrwt beam="2">  1       -1 0.14630365E+00 0.99963189E+03</pdfrwt>
<totfact> 0.45909608E+01</totfact>
</mgrwt>
</event>
<event>
 9    1  0.4307774E-036  0.9993712E+03  0.7818608E-02  0.8681637E-01
         -2   -1    0    0    0  501 -0.00000000000E+00  0.00000000000E+00  0.11655573993E+03  0.11655573993E+03  0.00000000000E+00 0. -1.
          2   -1    0    0  501    0  0.00000000000E+00 -0.00000000000E+00 -0.21421997381E+04  0.21421997381E+04  0.00000000000E+00 0. -1.
         36    2    1    2    0    0 -0.21316282073E-13  0.00000000000E+00 -0.20256439981E+04  0.22587554780E+04  0.99937115335E+03 0.  0.
         25    2    3    3    0    0 -0.14387310471E+02  0.13275777876E+03 -0.47307652885E+03  0.50710581465E+03  0.12459246601E+03 0.  0.
         35    2    3    3    0    0  0.14387310471E+02 -0.13275777876E+03 -0.15525674693E+04  0.17516496633E+04  0.79998698354E+03 0.  0.
         22    1    5    5    0    0  0.28763766726E+03  0.11049982495E+03 -0.12163676402E+04  0.12547891755E+04  0.00000000000E+00 0. -1.
         22    1    5    5    0    0 -0.27325035679E+03 -0.24325760371E+03 -0.33619982911E+03  0.49686048781E+03  0.00000000000E+00 0. -1.
          5    1    4    4  502    0 -0.15618807301E+02  0.13591691589E+03 -0.47938033661E+03  0.49854282895E+03  0.47000000000E+01 0.  1.
         -5    1    4    4    0  502  0.12314968298E+01 -0.31591371227E+01  0.63038077675E+01  0.85629857043E+01  0.47000000000E+01 0.  1.
<mgrwt>
<rscale>  0 0.99937115E+03</rscale>
<asrwt>0</asrwt>
<pdfrwt beam="1">  1        2 0.32956915E+00 0.99937115E+03</pdfrwt>
<pdfrwt beam="2">  1       -2 0.17931654E-01 0.99937115E+03</pdfrwt>
<totfact> 0.16763518E+02</totfact>
</mgrwt>
</event>
<event>
 9    1  0.4307774E-036  0.9986838E+03  0.7818608E-02  0.8682292E-01
         -2   -1    0    0    0  501 -0.00000000000E+00  0.00000000000E+00  0.55627648438E+03  0.55627648438E+03  0.00000000000E+00 0. -1.
          2   -1    0    0  501    0  0.00000000000E+00 -0.00000000000E+00 -0.44823456259E+03  0.44823456259E+03  0.00000000000E+00 0. -1.
         36    2    1    2    0    0 -0.71054273576E-14 -0.14210854715E-13  0.10804192179E+03  0.10045110470E+04  0.99868382715E+03 0.  0.
         25    2    3    3    0    0 -0.48349743386E+02  0.10599147386E+03 -0.56574322479E+02  0.17971745019E+03  0.12460263931E+03 0.  0.
         35    2    3    3    0    0  0.48349743386E+02 -0.10599147386E+03  0.16461624427E+03  0.82479359678E+03  0.79975876312E+03 0.  0.
         22    1    5    5    0    0 -0.25221014556E+03  0.21570227313E+03 -0.48973756091E+02  0.33546364474E+03  0.00000000000E+00 0. -1.
         22    1    5    5    0    0  0.30055988895E+03 -0.32169374700E+03  0.21359000036E+03  0.48932995203E+03  0.00000000000E+00 0. -1.
          5    1    4    4  502    0 -0.49660659745E+02  0.63634202473E+02 -0.93288213891E+02  0.12345150344E+03  0.47000000000E+01 0.  1.
         -5    1    4    4    0  502  0.13109163590E+01  0.42357271391E+02  0.36713891412E+02  0.56265946753E+02  0.47000000000E+01 0.  1.
<mgrwt>
<rscale>  0 0.99868383E+03</rscale>
<asrwt>0</asrwt>
<pdfrwt beam="1">  1        2 0.68959164E-01 0.99868383E+03</pdfrwt>
<pdfrwt beam="2">  1       -2 0.85580997E-01 0.99868383E+03</pdfrwt>
<totfact> 0.99355072E+01</totfact>
</mgrwt>
</event>
<event>
 9    1  0.4307774E-036  0.9973899E+03  0.7818608E-02  0.8683528E-01
          2   -1    0    0  501    0  0.00000000000E+00  0.00000000000E+00  0.77765253100E+03  0.77765253100E+03  0.00000000000E+00 0.  1.
         -2   -1    0    0    0  501 -0.00000000000E+00 -0.00000000000E+00 -0.31980431992E+03  0.31980431992E+03  0.00000000000E+00 0.  1.
         36    2    1    2    0    0  0.17763568394E-14  0.00000000000E+00  0.45784821108E+03  0.10974568509E+04  0.99738987124E+03 0.  0.
         25    2    3    3    0    0 -0.13459279786E+02  0.13718414334E+03  0.94408954057E+02  0.20833528097E+03  0.12445841592E+03 0.  0.
         35    2    3    3    0    0  0.13459279786E+02 -0.13718414334E+03  0.36343925703E+03  0.88912156996E+03  0.79965519520E+03 0.  0.
         22    1    5    5    0    0 -0.20517618105E+03 -0.38991378876E+03  0.33546784904E+03  0.55377676520E+03  0.00000000000E+00 0. -1.
         22    1    5    5    0    0  0.21863546083E+03  0.25272964542E+03  0.27971407983E+02  0.33534480475E+03  0.00000000000E+00 0. -1.
          5    1    4    4  502    0  0.27298798640E+01  0.59206003360E+02  0.11185134909E+03  0.12667129656E+03  0.47000000000E+01 0.  1.
         -5    1    4    4    0  502 -0.16189159650E+02  0.77978139979E+02 -0.17442395038E+02  0.81663984409E+02  0.47000000000E+01 0.  1.
<mgrwt>
<rscale>  0 0.99738987E+03</rscale>
<asrwt>0</asrwt>
<pdfrwt beam="1">  1        2 0.11963885E+00 0.99738987E+03</pdfrwt>
<pdfrwt beam="2">  1       -2 0.49200665E-01 0.99738987E+03</pdfrwt>
<totfact> 0.16926110E+02</totfact>
</mgrwt>
</event>
<event>
 9    1  0.4307774E-036  0.9929412E+03  0.7818608E-02  0.8687789E-01
         -2   -1    0    0    0  501 -0.00000000000E+00  0.00000000000E+00  0.16385199455E+03  0.16385199455E+03  0.00000000000E+00 0. -1.
          2   -1    0    0  501    0  0.00000000000E+00 -0.00000000000E+00 -0.15043032090E+04  0.15043032090E+04  0.00000000000E+00 0. -1.
         36    2    1    2    0    0  0.14210854715E-13 -0.14210854715E-13 -0.13404512145E+04  0.16681552036E+04  0.99294124943E+03 0.  0.
         25    2    3    3    0    0 -0.29993362116E+02 -0.47378528339E+02 -0.44592892770E+03  0.46650295811E+03  0.12501229800E+03 0.  0.
         35    2    3    3    0    0  0.29993362116E+02  0.47378528339E+02 -0.89452228678E+03  0.12016522455E+04  0.80040843996E+03 0.  0.
         22    1    5    5    0    0  0.17797991941E+03 -0.29888832241E+03 -0.17467191474E+03  0.38925744538E+03  0.00000000000E+00 0. -1.
         22    1    5    5    0    0 -0.14798655729E+03  0.34626685075E+03 -0.71985037204E+03  0.81239480008E+03  0.00000000000E+00 0. -1.
          5    1    4    4  502    0 -0.62081846047E+02 -0.10551893166E+02 -0.37484354713E+03  0.38012533839E+03  0.47000000000E+01 0. -1.
         -5    1    4    4    0  502  0.32088483932E+02 -0.36826635173E+02 -0.71085380567E+02  0.86377619726E+02  0.47000000000E+01 0. -1.
<mgrwt>
<rscale>  0 0.99294125E+03</rscale>
<asrwt>0</asrwt>
<pdfrwt beam="1">  1        2 0.23143126E+00 0.99294125E+03</pdfrwt>
<pdfrwt beam="2">  1       -2 0.25208000E-01 0.99294125E+03</pdfrwt>
<totfact> 0.21297546E+02</totfact>
</mgrwt>
</event>
<event>
 9    1  0.4307774E-036  0.1001392E+04  0.7818608E-02  0.8679713E-01
         -2   -1    0    0    0  501 -0.00000000000E+00  0.00000000000E+00  0.12918585863E+04  0.12918585863E+04  0.00000000000E+00 0. -1.
          2   -1    0    0  501    0  0.00000000000E+00 -0.00000000000E+00 -0.19405895845E+03  0.19405895845E+03  0.00000000000E+00 0. -1.
         36    2    1    2    0    0 -0.28421709430E-13  0.00000000000E+00  0.10977996279E+04  0.14859175448E+04  0.10013924939E+04 0.  0.
         25    2    3    3    0    0 -0.11306748194E+03  0.82020892087E+02  0.17475392336E+03  0.25622477898E+03  0.12490204732E+03 0.  0.
         35    2    3    3    0    0  0.11306748194E+03 -0.82020892087E+02  0.92304570453E+03  0.12296927658E+04  0.80038693356E+03 0.  0.
         22    1    5    5    0    0 -0.19244054325E+03  0.11741030100E+03  0.82022749742E+03  0.85064192760E+03  0.00000000000E+00 0.  1.
         22    1    5    5    0    0  0.30550802519E+03 -0.19943119309E+03  0.10281820711E+03  0.37905083821E+03  0.00000000000E+00 0.  1.
          5    1    4    4  502    0 -0.10035581518E+03  0.10637197313E+03  0.10212247149E+03  0.17843030990E+03  0.47000000000E+01 0.  1.
         -5    1    4    4    0  502 -0.12711666754E+02 -0.24351081039E+02  0.72631451867E+02  0.77794469082E+02  0.47000000000E+01 0.  1.
<mgrwt>
<rscale>  0 0.10013925E+04</rscale>
<asrwt>0</asrwt>
<pdfrwt beam="1">  1        2 0.29855225E-01 0.10013925E+04</pdfrwt>
<pdfrwt beam="2">  1       -2 0.19874747E+00 0.10013925E+04</pdfrwt>
<totfact> 0.26448427E+01</totfact>
</mgrwt>
</event>
<event>
 9    1  0.4307774E-036  0.1000381E+04  0.7818608E-02  0.8680675E-01
         -1   -1    0    0    0  501 -0.00000000000E+00  0.00000000000E+00  0.12738269132E+04  0.12738269132E+04  0.00000000000E+00 0. -1.
          1   -1    0    0  501    0  0.00000000000E+00 -0.00000000000E+00 -0.19640863304E+03  0.19640863304E+03  0.00000000000E+00 0. -1.
         36    2    1    2    0    0  0.00000000000E+00 -0.71054273576E-14  0.10774182801E+04  0.14702355462E+04  0.10003811329E+04 0.  0.
         25    2    3    3    0    0  0.12966158545E+03  0.55878828408E+02  0.18875391863E+03  0.26683811559E+03  0.12505985738E+03 0.  0.
         35    2    3    3    0    0 -0.12966158545E+03 -0.55878828408E+02  0.88866436150E+03  0.12033974306E+04  0.79906599127E+03 0.  0.
         22    1    5    5    0    0  0.46437338912E+02 -0.39754393901E+03  0.29934762514E+03  0.49980657315E+03  0.00000000000E+00 0.  1.
         22    1    5    5    0    0 -0.17609892436E+03  0.34166511060E+03  0.58931673636E+03  0.70359085747E+03  0.00000000000E+00 0.  1.
          5    1    4    4  502    0 -0.16405028908E+02  0.13511357220E+02 -0.30825681398E+01  0.21983493211E+02  0.47000000000E+01 0.  1.
         -5    1    4    4    0  502  0.14606661436E+03  0.42367471187E+02  0.19183648677E+03  0.24485462238E+03  0.47000000000E+01 0.  1.
<mgrwt>
<rscale>  0 0.10003811E+04</rscale>
<asrwt>0</asrwt>
<pdfrwt beam="1">  1        1 0.30216714E-01 0.10003811E+04</pdfrwt>
<pdfrwt beam="2">  1       -1 0.19597337E+00 0.10003811E+04</pdfrwt>
<totfact> 0.25657070E+01</totfact>
</mgrwt>
</event>
<event>
 9    1  0.4307774E-036  0.1002900E+04  0.7818608E-02  0.8678281E-01
          2   -1    0    0  501    0  0.00000000000E+00  0.00000000000E+00  0.85498409286E+03  0.85498409286E+03  0.00000000000E+00 0. -1.
         -2   -1    0    0    0  501 -0.00000000000E+00 -0.00000000000E+00 -0.29410172340E+03  0.29410172340E+03  0.00000000000E+00 0. -1.
         36    2    1    2    0    0  0.14210854715E-13  0.00000000000E+00  0.56088236946E+03  0.11490858163E+04  0.10029003843E+04 0.  0.
         25    2    3    3    0    0 -0.23068089642E+02  0.12730022590E+03  0.42127888472E+02  0.18670765803E+03  0.12785736705E+03 0.  0.
         35    2    3    3    0    0  0.23068089642E+02 -0.12730022590E+03  0.51875448099E+03  0.96237815823E+03  0.80020498850E+03 0.  0.
         22    1    5    5    0    0 -0.29122286981E+03  0.18537787810E+03  0.11820452591E+03  0.36489454303E+03  0.00000000000E+00 0.  1.
         22    1    5    5    0    0  0.31429095945E+03 -0.31267810400E+03  0.40054995507E+03  0.59748361519E+03  0.00000000000E+00 0.  1.
          5    1    4    4  502    0  0.10184678894E+02  0.51185276014E+02 -0.42920927821E+02  0.67734453639E+02  0.47000000000E+01 0.  1.
         -5    1    4    4    0  502 -0.33252768536E+02  0.76114949884E+02  0.85048816292E+02  0.11897320439E+03  0.47000000000E+01 0.  1.
<mgrwt>
<rscale>  0 0.10029004E+04</rscale>
<asrwt>0</asrwt>
<pdfrwt beam="1">  1        2 0.13153601E+00 0.10029004E+04</pdfrwt>
<pdfrwt beam="2">  1       -2 0.45246419E-01 0.10029004E+04</pdfrwt>
<totfact> 0.17652505E+02</totfact>
</mgrwt>
</event>
<event>
 9    1  0.4307774E-036  0.1000076E+04  0.7818608E-02  0.8680965E-01
         -1   -1    0    0    0  501 -0.00000000000E+00  0.00000000000E+00  0.32355962606E+03  0.32355962606E+03  0.00000000000E+00 0. -1.
          1   -1    0    0  501    0  0.00000000000E+00 -0.00000000000E+00 -0.77277295898E+03  0.77277295898E+03  0.00000000000E+00 0. -1.
         36    2    1    2    0    0  0.00000000000E+00  0.14210854715E-13 -0.44921333293E+03  0.10963325850E+04  0.10000762564E+04 0.  0.
         25    2    3    3    0    0  0.84872951029E+02  0.11507350006E+03 -0.86953027373E+02  0.20918028288E+03  0.12549993443E+03 0.  0.
         35    2    3    3    0    0 -0.84872951029E+02 -0.11507350006E+03 -0.36226030555E+03  0.88715230216E+03  0.79709557145E+03 0.  0.
         22    1    5    5    0    0  0.34125416709E+03 -0.16211768753E+03 -0.12987701573E+03  0.39950543223E+03  0.00000000000E+00 0.  1.
         22    1    5    5    0    0 -0.42612711811E+03  0.47044187477E+02 -0.23238328983E+03  0.48764686994E+03  0.00000000000E+00 0.  1.
          5    1    4    4  502    0  0.40907068320E+02 -0.10375062031E+02 -0.59932167915E+02  0.73450560936E+02  0.47000000000E+01 0. -1.
         -5    1    4    4    0  502  0.43965882709E+02  0.12544856209E+03 -0.27020859458E+02  0.13572972194E+03  0.47000000000E+01 0. -1.
<mgrwt>
<rscale>  0 0.10000763E+04</rscale>
<asrwt>0</asrwt>
<pdfrwt beam="1">  1        1 0.11888815E+00 0.10000763E+04</pdfrwt>
<pdfrwt beam="2">  1       -1 0.49778405E-01 0.10000763E+04</pdfrwt>
<totfact> 0.10800061E+02</totfact>
</mgrwt>
</event>
<event>
 9    1  0.4307774E-036  0.1000950E+04  0.7818608E-02  0.8680134E-01
         -1   -1    0    0    0  501 -0.00000000000E+00  0.00000000000E+00  0.16320641756E+03  0.16320641756E+03  0.00000000000E+00 0.  1.
          1   -1    0    0  501    0  0.00000000000E+00 -0.00000000000E+00 -0.15347136290E+04  0.15347136290E+04  0.00000000000E+00 0.  1.
         36    2    1    2    0    0  0.56843418861E-13  0.00000000000E+00 -0.13715072114E+04  0.16979200465E+04  0.10009497757E+04 0.  0.
         25    2    3    3    0    0 -0.13027638642E+03  0.36466125220E+02 -0.18574966032E+03  0.26107427632E+03  0.12391580328E+03 0.  0.
         35    2    3    3    0    0  0.13027638642E+03 -0.36466125220E+02 -0.11857575511E+04  0.14368457702E+04  0.80012691632E+03 0.  0.
         22    1    5    5    0    0  0.22925793368E+03 -0.48740329731E+02 -0.12790066769E+04  0.13003049255E+04  0.00000000000E+00 0.  1.
         22    1    5    5    0    0 -0.98981547262E+02  0.12274204511E+02  0.93249125796E+02  0.13654084465E+03  0.00000000000E+00 0.  1.
          5    1    4    4  502    0  0.22789441139E+02  0.17509951672E+02 -0.31236479598E+02  0.42705558101E+02  0.47000000000E+01 0. -1.
         -5    1    4    4    0  502 -0.15306582756E+03  0.18956173549E+02 -0.15451318072E+03  0.21836871822E+03  0.47000000000E+01 0. -1.
<mgrwt>
<rscale>  0 0.10009498E+04</rscale>
<asrwt>0</asrwt>
<pdfrwt beam="1">  1        1 0.23610978E+00 0.10009498E+04</pdfrwt>
<pdfrwt beam="2">  1       -1 0.25108680E-01 0.10009498E+04</pdfrwt>
<totfact> 0.92683299E+01</totfact>
</mgrwt>
</event>
<event>
 9    1  0.4307774E-036  0.1000706E+04  0.7818608E-02  0.8680366E-01
          1   -1    0    0  501    0  0.00000000000E+00  0.00000000000E+00  0.33818350786E+03  0.33818350786E+03  0.00000000000E+00 0. -1.
         -1   -1    0    0    0  501 -0.00000000000E+00 -0.00000000000E+00 -0.74028819177E+03  0.74028819177E+03  0.00000000000E+00 0. -1.
         36    2    1    2    0    0  0.00000000000E+00 -0.28421709430E-13 -0.40210468391E+03  0.10784716996E+04  0.10007062656E+04 0.  0.
         25    2    3    3    0    0 -0.15057652316E+01 -0.13910030560E+03 -0.12172906202E+03  0.22294190867E+03  0.12463533911E+03 0.  0.
         35    2    3    3    0    0  0.15057652316E+01  0.13910030560E+03 -0.28037562188E+03  0.85552979096E+03  0.79622206169E+03 0.  0.
         22    1    5    5    0    0 -0.32215258907E+03  0.17343430891E+03  0.75162855067E+02  0.37351198767E+03  0.00000000000E+00 0.  1.
         22    1    5    5    0    0  0.32365835430E+03 -0.34334003314E+02 -0.35553847695E+03  0.48201780329E+03  0.00000000000E+00 0.  1.
          5    1    4    4  502    0 -0.31656116533E+02  0.39224420352E+01  0.65179370333E+00  0.32249187595E+02  0.47000000000E+01 0. -1.
         -5    1    4    4    0  502  0.30150351302E+02 -0.14302274763E+03 -0.12238085573E+03  0.19069272108E+03  0.47000000000E+01 0. -1.
<mgrwt>
<rscale>  0 0.10007063E+04</rscale>
<asrwt>0</asrwt>
<pdfrwt beam="1">  1        1 0.52028233E-01 0.10007063E+04</pdfrwt>
<pdfrwt beam="2">  1       -1 0.11389049E+00 0.10007063E+04</pdfrwt>
<totfact> 0.63327955E+01</totfact>
</mgrwt>
</event>
<event>
 9    1  0.4307774E-036  0.1000181E+04  0.7818608E-02  0.8680866E-01
          1   -1    0    0  501    0  0.00000000000E+00  0.00000000000E+00  0.94707310066E+03  0.94707310066E+03  0.00000000000E+00 0.  1.
         -1   -1    0    0    0  501 -0.00000000000E+00 -0.00000000000E+00 -0.26406660257E+03  0.26406660257E+03  0.00000000000E+00 0.  1.
         36    2    1    2    0    0  0.00000000000E+00  0.14210854715E-13  0.68300649809E+03  0.12111397032E+04  0.10001807358E+04 0.  0.
         25    2    3    3    0    0  0.59277358796E+02  0.58682061665E+02  0.25359041299E+03  0.29928697719E+03  0.13530412974E+03 0.  0.
         35    2    3    3    0    0 -0.59277358796E+02 -0.58682061665E+02  0.42941608510E+03  0.91185272604E+03  0.80007489039E+03 0.  0.
         22    1    5    5    0    0  0.38554373179E+02 -0.35425390721E+03 -0.29200029599E+02  0.35754008473E+03  0.00000000000E+00 0. -1.
         22    1    5    5    0    0 -0.97831731975E+02  0.29557184554E+03  0.45861611470E+03  0.55431264131E+03  0.00000000000E+00 0. -1.
          5    1    4    4  502    0  0.79859431400E+02 -0.43764600838E+01  0.79235287607E+02  0.11268097882E+03  0.47000000000E+01 0. -1.
         -5    1    4    4    0  502 -0.20582072604E+02  0.63058521749E+02  0.17435512538E+03  0.18660599836E+03  0.47000000000E+01 0. -1.
<mgrwt>
<rscale>  0 0.10001807E+04</rscale>
<asrwt>0</asrwt>
<pdfrwt beam="1">  1        1 0.14570355E+00 0.10001807E+04</pdfrwt>
<pdfrwt beam="2">  1       -1 0.40625632E-01 0.10001807E+04</pdfrwt>
<totfact> 0.11089221E+02</totfact>
</mgrwt>
</event>
<event>
 9    1  0.4307774E-036  0.9968898E+03  0.7818608E-02  0.8684005E-01
         -2   -1    0    0    0  501 -0.00000000000E+00  0.00000000000E+00  0.25222659873E+03  0.25222659873E+03  0.00000000000E+00 0.  1.
          2   -1    0    0  501    0  0.00000000000E+00 -0.00000000000E+00 -0.98501633426E+03  0.98501633426E+03  0.00000000000E+00 0.  1.
         36    2    1    2    0    0  0.21316282073E-13 -0.14210854715E-13 -0.73278973553E+03  0.12372429330E+04  0.99688980270E+03 0.  0.
         25    2    3    3    0    0  0.57311528845E+02 -0.45093376136E+02 -0.28184525328E+03  0.31596962325E+03  0.12280892520E+03 0.  0.
         35    2    3    3    0    0 -0.57311528845E+02  0.45093376136E+02 -0.45094448225E+03  0.92127330974E+03  0.80004722439E+03 0.  0.
         22    1    5    5    0    0 -0.28899115039E+03 -0.60368048127E+02 -0.56872856535E+03  0.64079042384E+03  0.00000000000E+00 0.  1.
         22    1    5    5    0    0  0.23167962155E+03  0.10546142426E+03  0.11778408310E+03  0.28048288590E+03  0.00000000000E+00 0.  1.
          5    1    4    4  502    0 -0.65184040536E+01 -0.72172981359E+02 -0.15976267495E+03  0.17549253869E+03  0.47000000000E+01 0. -1.
         -5    1    4    4    0  502  0.63829932899E+02  0.27079605223E+02 -0.12208257833E+03  0.14047708455E+03  0.47000000000E+01 0. -1.
<mgrwt>
<rscale>  0 0.99688980E+03</rscale>
<asrwt>0</asrwt>
<pdfrwt beam="1">  1        2 0.15154098E+00 0.99688980E+03</pdfrwt>
<pdfrwt beam="2">  1       -2 0.38804092E-01 0.99688980E+03</pdfrwt>
<totfact> 0.19535203E+02</totfact>
</mgrwt>
</event>
<event>
 9    1  0.4307774E-036  0.1000250E+04  0.7818608E-02  0.8680800E-01
          1   -1    0    0  501    0  0.00000000000E+00  0.00000000000E+00  0.59729758383E+03  0.59729758383E+03  0.00000000000E+00 0.  1.
         -1   -1    0    0    0  501 -0.00000000000E+00 -0.00000000000E+00 -0.41876080038E+03  0.41876080038E+03  0.00000000000E+00 0.  1.
         36    2    1    2    0    0 -0.14210854715E-13  0.35527136788E-14  0.17853678345E+03  0.10160583842E+04  0.10002495974E+04 0.  0.
         25    2    3    3    0    0 -0.74463115758E+02  0.28125045529E+02 -0.84338462395E+02  0.17100494479E+03  0.12567394762E+03 0.  0.
         35    2    3    3    0    0  0.74463115758E+02 -0.28125045529E+02  0.26287524584E+03  0.84505343941E+03  0.79917216343E+03 0.  0.
         22    1    5    5    0    0  0.34456830174E+03 -0.12407795683E+03 -0.10283801623E+03  0.38039231264E+03  0.00000000000E+00 0.  1.
         22    1    5    5    0    0 -0.27010518598E+03  0.95952911296E+02  0.36571326208E+03  0.46466112678E+03  0.00000000000E+00 0.  1.
          5    1    4    4  502    0 -0.52074476111E+02  0.51728571628E+02  0.70472438767E+01  0.73887413212E+02  0.47000000000E+01 0. -1.
         -5    1    4    4    0  502 -0.22388639646E+02 -0.23603526099E+02 -0.91385706272E+02  0.97117531581E+02  0.47000000000E+01 0. -1.
<mgrwt>
<rscale>  0 0.10002496E+04</rscale>
<asrwt>0</asrwt>
<pdfrwt beam="1">  1        1 0.91891936E-01 0.10002496E+04</pdfrwt>
<pdfrwt beam="2">  1       -1 0.64424739E-01 0.10002496E+04</pdfrwt>
<totfact> 0.98057005E+01</totfact>
</mgrwt>
</event>
<event>
 9    1  0.4307774E-036  0.1000522E+04  0.7818608E-02  0.8680541E-01
          1   -1    0    0  501    0  0.00000000000E+00  0.00000000000E+00  0.60794774386E+03  0.60794774386E+03  0.00000000000E+00 0. -1.
         -1   -1    0    0    0  501 -0.00000000000E+00 -0.00000000000E+00 -0.41164934191E+03  0.41164934191E+03  0.00000000000E+00 0. -1.
         36    2    1    2    0    0  0.28421709430E-13  0.00000000000E+00  0.19629840195E+03  0.10195970858E+04  0.10005224409E+04 0.  0.
         25    2    3    3    0    0 -0.10084642559E+03  0.78517659568E+02  0.10355470188E+03  0.20664044458E+03  0.12506667277E+03 0.  0.
         35    2    3    3    0    0  0.10084642559E+03 -0.78517659568E+02  0.92743700076E+02  0.81295664119E+03  0.79747230807E+03 0.  0.
         22    1    5    5    0    0  0.43765084004E+03 -0.10666928574E+03 -0.34585665810E+02  0.45178840467E+03  0.00000000000E+00 0. -1.
         22    1    5    5    0    0 -0.33680441446E+03  0.28151626172E+02  0.12732936589E+03  0.36116823652E+03  0.00000000000E+00 0. -1.
          5    1    4    4  502    0 -0.92126727524E+02  0.83574766534E+01  0.99096463569E+02  0.13564431589E+03  0.47000000000E+01 0. -1.
         -5    1    4    4    0  502 -0.87196980616E+01  0.70160182915E+02  0.44582383067E+01  0.70996128695E+02  0.47000000000E+01 0. -1.
<mgrwt>
<rscale>  0 0.10005224E+04</rscale>
<asrwt>0</asrwt>
<pdfrwt beam="1">  1        1 0.93530423E-01 0.10005224E+04</pdfrwt>
<pdfrwt beam="2">  1       -1 0.63330668E-01 0.10005224E+04</pdfrwt>
<totfact> 0.98784362E+01</totfact>
</mgrwt>
</event>
<event>
 9    1  0.4307774E-036  0.1000117E+04  0.7818608E-02  0.8680926E-01
         -2   -1    0    0    0  501 -0.00000000000E+00  0.00000000000E+00  0.17397951408E+03  0.17397951408E+03  0.00000000000E+00 0.  1.
          2   -1    0    0  501    0  0.00000000000E+00 -0.00000000000E+00 -0.14372874672E+04  0.14372874672E+04  0.00000000000E+00 0.  1.
         36    2    1    2    0    0  0.00000000000E+00  0.00000000000E+00 -0.12633079531E+04  0.16112669813E+04  0.10001171434E+04 0.  0.
         25    2    3    3    0    0 -0.58485521601E+02 -0.95240977691E+02 -0.37507385758E+03  0.41033774167E+03  0.12330962463E+03 0.  0.
         35    2    3    3    0    0  0.58485521601E+02  0.95240977691E+02 -0.88823409555E+03  0.12009292396E+04  0.80048724537E+03 0.  0.
         22    1    5    5    0    0 -0.28872266393E+03  0.24355540940E+03 -0.65799212684E+03  0.75870524784E+03  0.00000000000E+00 0.  1.
         22    1    5    5    0    0  0.34720818553E+03 -0.14831443171E+03 -0.23024196872E+03  0.44222399178E+03  0.00000000000E+00 0.  1.
          5    1    4    4  502    0  0.35171141736E+02 -0.50403851531E+01 -0.94279477166E+02  0.10086190811E+03  0.47000000000E+01 0.  1.
         -5    1    4    4    0  502 -0.93656663336E+02 -0.90200592538E+02 -0.28079438042E+03  0.30947583356E+03  0.47000000000E+01 0.  1.
<mgrwt>
<rscale>  0 0.10001171E+04</rscale>
<asrwt>0</asrwt>
<pdfrwt beam="1">  1        2 0.22112115E+00 0.10001171E+04</pdfrwt>
<pdfrwt beam="2">  1       -2 0.26766079E-01 0.10001171E+04</pdfrwt>
<totfact> 0.20887602E+02</totfact>
</mgrwt>
</event>
<event>
 9    1  0.4307774E-036  0.9991534E+03  0.7818608E-02  0.8681845E-01
          2   -1    0    0  501    0  0.00000000000E+00  0.00000000000E+00  0.36465342873E+03  0.36465342873E+03  0.00000000000E+00 0.  1.
         -2   -1    0    0    0  501 -0.00000000000E+00 -0.00000000000E+00 -0.68442212073E+03  0.68442212073E+03  0.00000000000E+00 0.  1.
         36    2    1    2    0    0  0.28421709430E-13  0.00000000000E+00 -0.31976869200E+03  0.10490755495E+04  0.99915338767E+03 0.  0.
         25    2    3    3    0    0 -0.12657602891E+03 -0.31522513694E+02 -0.11043512892E+03  0.21219733190E+03  0.12576418410E+03 0.  0.
         35    2    3    3    0    0  0.12657602891E+03  0.31522513694E+02 -0.20933356308E+03  0.83687821756E+03  0.79970585244E+03 0.  0.
         22    1    5    5    0    0 -0.25330241855E+03  0.19765009340E+03 -0.26766794427E+03  0.41817915187E+03  0.00000000000E+00 0. -1.
         22    1    5    5    0    0  0.37987844746E+03 -0.16612757971E+03  0.58334381195E+02  0.41869906569E+03  0.00000000000E+00 0. -1.
          5    1    4    4  502    0 -0.48977676310E+02 -0.74433077246E+02 -0.35577423105E+02  0.96056956020E+02  0.47000000000E+01 0.  1.
         -5    1    4    4    0  502 -0.77598352597E+02  0.42910563552E+02 -0.74857705815E+02  0.11614037588E+03  0.47000000000E+01 0.  1.
<mgrwt>
<rscale>  0 0.99915339E+03</rscale>
<asrwt>0</asrwt>
<pdfrwt beam="1">  1        2 0.56100528E-01 0.99915339E+03</pdfrwt>
<pdfrwt beam="2">  1       -2 0.10529571E+00 0.99915339E+03</pdfrwt>
<totfact> 0.76248936E+01</totfact>
</mgrwt>
</event>
<event>
 9    1  0.4307774E-036  0.9998072E+03  0.7818608E-02  0.8681222E-01
          2   -1    0    0  501    0  0.00000000000E+00  0.00000000000E+00  0.31977286705E+04  0.31977286705E+04  0.00000000000E+00 0.  1.
         -2   -1    0    0    0  501 -0.00000000000E+00 -0.00000000000E+00 -0.78150353007E+02  0.78150353007E+02  0.00000000000E+00 0.  1.
         36    2    1    2    0    0 -0.14210854715E-13  0.35527136788E-14  0.31195783175E+04  0.32758790235E+04  0.99980723026E+03 0.  0.
         25    2    3    3    0    0 -0.10232247742E+03 -0.12276086132E+02  0.27280043279E+03  0.31729782798E+03  0.12504896575E+03 0.  0.
         35    2    3    3    0    0  0.10232247742E+03  0.12276086132E+02  0.28467778847E+04  0.29585811955E+04  0.79902301218E+03 0.  0.
         22    1    5    5    0    0 -0.24409300854E+03  0.22610032125E+03  0.71956466602E+03  0.79276482053E+03  0.00000000000E+00 0. -1.
         22    1    5    5    0    0  0.34641548597E+03 -0.21382423511E+03  0.21272132187E+04  0.21658163750E+04  0.00000000000E+00 0. -1.
          5    1    4    4  502    0 -0.10159033019E+03 -0.33697213267E+02  0.11193959712E+03  0.15494728386E+03  0.47000000000E+01 0. -1.
         -5    1    4    4    0  502 -0.73214723292E+00  0.21421127136E+02  0.16086083566E+03  0.16235054412E+03  0.47000000000E+01 0. -1.
<mgrwt>
<rscale>  0 0.99980723E+03</rscale>
<asrwt>0</asrwt>
<pdfrwt beam="1">  1        2 0.49195816E+00 0.99980723E+03</pdfrwt>
<pdfrwt beam="2">  1       -2 0.12023134E-01 0.99980723E+03</pdfrwt>
<totfact> 0.70809075E+01</totfact>
</mgrwt>
</event>
<event>
 9    1  0.4307774E-036  0.9998706E+03  0.7818608E-02  0.8681161E-01
         -2   -1    0    0    0  501 -0.00000000000E+00  0.00000000000E+00  0.12342722231E+03  0.12342722231E+03  0.00000000000E+00 0.  1.
          2   -1    0    0  501    0  0.00000000000E+00 -0.00000000000E+00 -0.20249610972E+04  0.20249610972E+04  0.00000000000E+00 0.  1.
         36    2    1    2    0    0  0.14210854715E-13 -0.14210854715E-13 -0.19015338749E+04  0.21483883195E+04  0.99987063865E+03 0.  0.
         25    2    3    3    0    0 -0.61129509210E+01 -0.11803283992E+03 -0.19502147172E+03  0.26003719323E+03  0.12496738758E+03 0.  0.
         35    2    3    3    0    0  0.61129509210E+01  0.11803283992E+03 -0.17065124031E+04  0.18883511263E+04  0.79982265190E+03 0.  0.
         22    1    5    5    0    0  0.32121816285E+03 -0.16296096323E+03 -0.55257148217E+03  0.65960035369E+03  0.00000000000E+00 0. -1.
         22    1    5    5    0    0 -0.31510521193E+03  0.28099380315E+03 -0.11539409210E+04  0.12287507726E+04  0.00000000000E+00 0. -1.
          5    1    4    4  502    0 -0.62477761503E+02 -0.85863930043E+02 -0.10987833348E+03  0.15287715112E+03  0.47000000000E+01 0.  1.
         -5    1    4    4    0  502  0.56364810582E+02 -0.32168909880E+02 -0.85143138245E+02  0.10716004211E+03  0.47000000000E+01 0.  1.
<mgrwt>
<rscale>  0 0.99987064E+03</rscale>
<asrwt>0</asrwt>
<pdfrwt beam="1">  1        2 0.31153247E+00 0.99987064E+03</pdfrwt>
<pdfrwt beam="2">  1       -2 0.18988804E-01 0.99987064E+03</pdfrwt>
<totfact> 0.17741554E+02</totfact>
</mgrwt>
</event>
<event>
 9    1  0.4307774E-036  0.9908748E+03  0.7818608E-02  0.8689777E-01
          2   -1    0    0  501    0  0.00000000000E+00  0.00000000000E+00  0.16713095813E+04  0.16713095813E+04  0.00000000000E+00 0.  1.
         -2   -1    0    0    0  501 -0.00000000000E+00 -0.00000000000E+00 -0.14686578708E+03  0.14686578708E+03  0.00000000000E+00 0.  1.
         36    2    1    2    0    0  0.28421709430E-13  0.00000000000E+00  0.15244437942E+04  0.18181753684E+04  0.99087475922E+03 0.  0.
         25    2    3    3    0    0  0.93331666516E+02  0.81565817275E+02  0.34056579942E+03  0.38379995613E+03  0.12630740306E+03 0.  0.
         35    2    3    3    0    0 -0.93331666516E+02 -0.81565817275E+02  0.11838779948E+04  0.14343754122E+04  0.80031364738E+03 0.  0.
         22    1    5    5    0    0  0.22857731514E+03  0.16016683423E+03  0.89867287356E+03  0.94101750114E+03  0.00000000000E+00 0. -1.
         22    1    5    5    0    0 -0.32190898166E+03 -0.24173265150E+03  0.28520512123E+03  0.49335791110E+03  0.00000000000E+00 0. -1.
          5    1    4    4  502    0 -0.10195722630E+00  0.11411141259E+02 -0.89479513150E+01  0.15244027448E+02  0.47000000000E+01 0. -1.
         -5    1    4    4    0  502  0.93433623742E+02  0.70154676016E+02  0.34951375074E+03  0.36855592868E+03  0.47000000000E+01 0. -1.
<mgrwt>
<rscale>  0 0.99087476E+03</rscale>
<asrwt>0</asrwt>
<pdfrwt beam="1">  1        2 0.25712454E+00 0.99087476E+03</pdfrwt>
<pdfrwt beam="2">  1       -2 0.22594738E-01 0.99087476E+03</pdfrwt>
<totfact> 0.20793320E+02</totfact>
</mgrwt>
</event>
<event>
 9    1  0.4307774E-036  0.9999210E+03  0.7818608E-02  0.8681113E-01
          2   -1    0    0  501    0  0.00000000000E+00  0.00000000000E+00  0.70118236835E+03  0.70118236835E+03  0.00000000000E+00 0. -1.
         -2   -1    0    0    0  501 -0.00000000000E+00 -0.00000000000E+00 -0.35648428566E+03  0.35648428566E+03  0.00000000000E+00 0. -1.
         36    2    1    2    0    0 -0.28421709430E-13  0.00000000000E+00  0.34469808269E+03  0.10576666540E+04  0.99992098828E+03 0.  0.
         25    2    3    3    0    0 -0.10755357610E+03  0.90059397179E+02  0.50167332079E+02  0.19411781818E+03  0.12444476435E+03 0.  0.
         35    2    3    3    0    0  0.10755357610E+03 -0.90059397179E+02  0.29453075061E+03  0.86354883583E+03  0.79955597807E+03 0.  0.
         22    1    5    5    0    0  0.43956581373E+03 -0.91347269219E+02  0.51102884200E+02  0.45185609763E+03  0.00000000000E+00 0.  1.
         22    1    5    5    0    0 -0.33201223762E+03  0.12878720407E+01  0.24342786641E+03  0.41169273821E+03  0.00000000000E+00 0.  1.
          5    1    4    4  502    0 -0.39292001152E+02  0.38354471435E+02 -0.41198744682E+02  0.68806637739E+02  0.47000000000E+01 0.  1.
         -5    1    4    4    0  502 -0.68261574952E+02  0.51704925743E+02  0.91366076761E+02  0.12531118044E+03  0.47000000000E+01 0.  1.
<mgrwt>
<rscale>  0 0.99992099E+03</rscale>
<asrwt>0</asrwt>
<pdfrwt beam="1">  1        2 0.10787421E+00 0.99992099E+03</pdfrwt>
<pdfrwt beam="2">  1       -2 0.54843736E-01 0.99992099E+03</pdfrwt>
<totfact> 0.15474895E+02</totfact>
</mgrwt>
</event>
<event>
 9    1  0.4307774E-036  0.9993128E+03  0.7818608E-02  0.8681693E-01
         -2   -1    0    0    0  501 -0.00000000000E+00  0.00000000000E+00  0.71994710369E+03  0.71994710369E+03  0.00000000000E+00 0.  1.
          2   -1    0    0  501    0  0.00000000000E+00 -0.00000000000E+00 -0.34677062678E+03  0.34677062678E+03  0.00000000000E+00 0.  1.
         36    2    1    2    0    0  0.10658141036E-13 -0.21316282073E-13  0.37317647690E+03  0.10667177305E+04  0.99931278066E+03 0.  0.
         25    2    3    3    0    0 -0.11702564535E+02  0.12683083656E+02  0.20964368612E+03  0.24591952809E+03  0.12738967203E+03 0.  0.
         35    2    3    3    0    0  0.11702564535E+02 -0.12683083656E+02  0.16353279079E+03  0.82079820238E+03  0.80415726369E+03 0.  0.
         22    1    5    5    0    0 -0.29679902595E+03 -0.19121104332E+03  0.27480101542E+03  0.44740018213E+03  0.00000000000E+00 0. -1.
         22    1    5    5    0    0  0.30850159048E+03  0.17852795967E+03 -0.11126822464E+03  0.37339802025E+03  0.00000000000E+00 0. -1.
          5    1    4    4  502    0  0.13141628710E+02  0.60985378798E+02  0.16146724267E+03  0.17316373549E+03  0.47000000000E+01 0. -1.
         -5    1    4    4    0  502 -0.24844193245E+02 -0.48302295142E+02  0.48176443448E+02  0.72755792603E+02  0.47000000000E+01 0. -1.
<mgrwt>
<rscale>  0 0.99931278E+03</rscale>
<asrwt>0</asrwt>
<pdfrwt beam="1">  1        2 0.53349327E-01 0.99931278E+03</pdfrwt>
<pdfrwt beam="2">  1       -2 0.11076109E+00 0.99931278E+03</pdfrwt>
<totfact> 0.71051867E+01</totfact>
</mgrwt>
</event>
<event>
 9    1  0.4307774E-036  0.9994712E+03  0.7818608E-02  0.8681542E-01
         -2   -1    0    0    0  501 -0.00000000000E+00  0.00000000000E+00  0.19929390295E+03  0.19929390295E+03  0.00000000000E+00 0. -1.
          2   -1    0    0  501    0  0.00000000000E+00 -0.00000000000E+00 -0.12531023386E+04  0.12531023386E+04  0.00000000000E+00 0. -1.
         36    2    1    2    0    0 -0.14210854715E-13  0.17763568394E-14 -0.10538084356E+04  0.14523962415E+04  0.99947117186E+03 0.  0.
         25    2    3    3    0    0 -0.10411853403E+03 -0.33103931567E+00 -0.32699039256E+03  0.36510671223E+03  0.12465719303E+03 0.  0.
         35    2    3    3    0    0  0.10411853403E+03  0.33103931567E+00 -0.72681804305E+03  0.10872895293E+04  0.80193096589E+03 0.  0.
         22    1    5    5    0    0 -0.18903500653E+03  0.81348380670E+01  0.97147937261E+02  0.21269257391E+03  0.00000000000E+00 0. -1.
         22    1    5    5    0    0  0.29315354056E+03 -0.78037987514E+01 -0.82396598031E+03  0.87459695536E+03  0.00000000000E+00 0. -1.
          5    1    4    4  502    0 -0.43167722925E+02  0.61555182747E+02 -0.14533045386E+03  0.16369338302E+03  0.47000000000E+01 0. -1.
         -5    1    4    4    0  502 -0.60950811106E+02 -0.61886222063E+02 -0.18165993870E+03  0.20141332921E+03  0.47000000000E+01 0. -1.
<mgrwt>
<rscale>  0 0.99947117E+03</rscale>
<asrwt>0</asrwt>
<pdfrwt beam="1">  1        2 0.19278498E+00 0.99947117E+03</pdfrwt>
<pdfrwt beam="2">  1       -2 0.30660600E-01 0.99947117E+03</pdfrwt>
<totfact> 0.20855383E+02</totfact>
</mgrwt>
</event>
<event>
 9    1  0.4307774E-036  0.1000620E+04  0.7818608E-02  0.8680448E-01
         -2   -1    0    0    0  501 -0.00000000000E+00  0.00000000000E+00  0.18196594584E+03  0.18196594584E+03  0.00000000000E+00 0. -1.
          2   -1    0    0  501    0  0.00000000000E+00 -0.00000000000E+00 -0.13755870187E+04  0.13755870187E+04  0.00000000000E+00 0. -1.
         36    2    1    2    0    0 -0.28421709430E-13 -0.14210854715E-13 -0.11936210729E+04  0.15575529645E+04  0.10006197938E+04 0.  0.
         25    2    3    3    0    0  0.10893666975E+03  0.65386416249E+02 -0.12846501310E+03  0.21953252561E+03  0.12469438144E+03 0.  0.
         35    2    3    3    0    0 -0.10893666975E+03 -0.65386416249E+02 -0.10651560598E+04  0.13380204389E+04  0.79974913685E+03 0.  0.
         22    1    5    5    0    0 -0.25201764425E+03 -0.11184877963E+03 -0.11379649056E+04  0.11708916128E+04  0.00000000000E+00 0. -1.
         22    1    5    5    0    0  0.14308097450E+03  0.46462363381E+02  0.72808845882E+02  0.16712882610E+03  0.00000000000E+00 0. -1.
          5    1    4    4  502    0  0.11327986920E+03  0.37516964098E+02 -0.39033150986E+02  0.12564047213E+03  0.47000000000E+01 0. -1.
         -5    1    4    4    0  502 -0.43431994569E+01  0.27869452151E+02 -0.89431862112E+02  0.93892053474E+02  0.47000000000E+01 0. -1.
<mgrwt>
<rscale>  0 0.10006198E+04</rscale>
<asrwt>0</asrwt>
<pdfrwt beam="1">  1        2 0.21162876E+00 0.10006198E+04</pdfrwt>
<pdfrwt beam="2">  1       -2 0.27994762E-01 0.10006198E+04</pdfrwt>
<totfact> 0.20897240E+02</totfact>
</mgrwt>
</event>
<event>
 9    1  0.4307774E-036  0.9995864E+03  0.7818608E-02  0.8681432E-01
         -2   -1    0    0    0  501 -0.00000000000E+00  0.00000000000E+00  0.52015223524E+03  0.52015223524E+03  0.00000000000E+00 0.  1.
          2   -1    0    0  501    0  0.00000000000E+00 -0.00000000000E+00 -0.48023101595E+03  0.48023101595E+03  0.00000000000E+00 0.  1.
         36    2    1    2    0    0  0.14210854715E-13  0.00000000000E+00  0.39921219294E+02  0.10003832512E+04  0.99958638722E+03 0.  0.
         25    2    3    3    0    0  0.92129138861E+02  0.49385262148E+02  0.10042197665E+03  0.19169792159E+03  0.12544655197E+03 0.  0.
         35    2    3    3    0    0 -0.92129138861E+02 -0.49385262148E+02 -0.60500757360E+02  0.80868532961E+03  0.79961549406E+03 0.  0.
         22    1    5    5    0    0 -0.25377245227E+03  0.21162740323E+03  0.21661363846E+03  0.39510515524E+03  0.00000000000E+00 0. -1.
         22    1    5    5    0    0  0.16164331341E+03 -0.26101266538E+03 -0.27711439582E+03  0.41358017437E+03  0.00000000000E+00 0. -1.
          5    1    4    4  502    0  0.18563348359E+02  0.63469483264E+02 -0.44136028666E-01  0.66295287586E+02  0.47000000000E+01 0. -1.
         -5    1    4    4    0  502  0.73565790503E+02 -0.14084221117E+02  0.10046611268E+03  0.12540263400E+03  0.47000000000E+01 0. -1.
<mgrwt>
<rscale>  0 0.99958639E+03</rscale>
<asrwt>0</asrwt>
<pdfrwt beam="1">  1        2 0.73881695E-01 0.99958639E+03</pdfrwt>
<pdfrwt beam="2">  1       -2 0.80023421E-01 0.99958639E+03</pdfrwt>
<totfact> 0.10739486E+02</totfact>
</mgrwt>
</event>
<event>
 9    1  0.4307774E-036  0.1000764E+04  0.7818608E-02  0.8680311E-01
         -1   -1    0    0    0  501 -0.00000000000E+00  0.00000000000E+00  0.93929578751E+02  0.93929578751E+02  0.00000000000E+00 0. -1.
          1   -1    0    0  501    0  0.00000000000E+00 -0.00000000000E+00 -0.26656346088E+04  0.26656346088E+04  0.00000000000E+00 0. -1.
         36    2    1    2    0    0  0.71054273576E-14  0.00000000000E+00 -0.25717050300E+04  0.27595641875E+04  0.10007635803E+04 0.  0.
         25    2    3    3    0    0  0.60968747818E+02 -0.11348807934E+03 -0.32709869378E+03  0.37306588975E+03  0.12485139271E+03 0.  0.
         35    2    3    3    0    0 -0.60968747818E+02  0.11348807934E+03 -0.22446063362E+04  0.23864982978E+04  0.80032480168E+03 0.  0.
         22    1    5    5    0    0 -0.41999320099E+03 -0.46848074372E+01 -0.97003247007E+03  0.10570616015E+04  0.00000000000E+00 0.  1.
         22    1    5    5    0    0  0.35902445318E+03  0.11817288678E+03 -0.12745738662E+04  0.13294366963E+04  0.00000000000E+00 0.  1.
          5    1    4    4  502    0  0.82433398134E+00  0.22170293995E+02 -0.14271095667E+02  0.26794694137E+02  0.47000000000E+01 0.  1.
         -5    1    4    4    0  502  0.60144413837E+02 -0.13565837334E+03 -0.31282759811E+03  0.34627119561E+03  0.47000000000E+01 0.  1.
<mgrwt>
<rscale>  0 0.10007636E+04</rscale>
<asrwt>0</asrwt>
<pdfrwt beam="1">  1        1 0.41009767E+00 0.10007636E+04</pdfrwt>
<pdfrwt beam="2">  1       -1 0.14450703E-01 0.10007636E+04</pdfrwt>
<totfact> 0.36882826E+01</totfact>
</mgrwt>
</event>
<event>
 9    1  0.4307774E-036  0.1000032E+04  0.7818608E-02  0.8681008E-01
          1   -1    0    0  501    0  0.00000000000E+00  0.00000000000E+00  0.36010809745E+03  0.36010809745E+03  0.00000000000E+00 0. -1.
         -1   -1    0    0    0  501 -0.00000000000E+00 -0.00000000000E+00 -0.69428023140E+03  0.69428023140E+03  0.00000000000E+00 0. -1.
         36    2    1    2    0    0  0.14210854715E-13  0.00000000000E+00 -0.33417213395E+03  0.10543883288E+04  0.10000318659E+04 0.  0.
         25    2    3    3    0    0  0.72849372870E+02 -0.10328836006E+03 -0.10993018555E+03  0.21702949013E+03  0.13799143973E+03 0.  0.
         35    2    3    3    0    0 -0.72849372870E+02  0.10328836006E+03 -0.22424194840E+03  0.83735883872E+03  0.79681230971E+03 0.  0.
         22    1    5    5    0    0 -0.29159516167E+03 -0.25302701351E+03 -0.74118321802E+02  0.39312076198E+03  0.00000000000E+00 0.  1.
         22    1    5    5    0    0  0.21874578880E+03  0.35631537357E+03 -0.15012362659E+03  0.44423807674E+03  0.00000000000E+00 0.  1.
          5    1    4    4  502    0  0.32222431364E+01  0.23976198679E+02  0.12053939451E+02  0.27434073890E+02  0.47000000000E+01 0.  1.
         -5    1    4    4    0  502  0.69627129734E+02 -0.12726455874E+03 -0.12198412500E+03  0.18959541624E+03  0.47000000000E+01 0.  1.
<mgrwt>
<rscale>  0 0.10000319E+04</rscale>
<asrwt>0</asrwt>
<pdfrwt beam="1">  1        1 0.55401247E-01 0.10000319E+04</pdfrwt>
<pdfrwt beam="2">  1       -1 0.10681234E+00 0.10000319E+04</pdfrwt>
<totfact> 0.67797599E+01</totfact>
</mgrwt>
</event>
<event>
 9    1  0.4307774E-036  0.1000152E+04  0.7818608E-02  0.8680893E-01
          1   -1    0    0  501    0  0.00000000000E+00  0.00000000000E+00  0.12474021066E+04  0.12474021066E+04  0.00000000000E+00 0.  1.
         -1   -1    0    0    0  501 -0.00000000000E+00 -0.00000000000E+00 -0.20047736050E+03  0.20047736050E+03  0.00000000000E+00 0.  1.
         36    2    1    2    0    0 -0.35527136788E-14  0.28421709430E-13  0.10469247461E+04  0.14478794671E+04  0.10001517521E+04 0.  0.
         25    2    3    3    0    0 -0.26130434636E+02 -0.13911738338E+03  0.17961886928E+03  0.25912087258E+03  0.12183695019E+03 0.  0.
         35    2    3    3    0    0  0.26130434636E+02  0.13911738338E+03  0.86730587681E+03  0.11887585945E+04  0.80055672262E+03 0.  0.
         22    1    5    5    0    0 -0.13361124521E+03  0.41127232340E+03  0.72142121126E+03  0.84109776656E+03  0.00000000000E+00 0. -1.
         22    1    5    5    0    0  0.15974167985E+03 -0.27215494002E+03  0.14588466554E+03  0.34766082796E+03  0.00000000000E+00 0. -1.
          5    1    4    4  502    0  0.12549323924E+01 -0.70469796284E+02  0.17043838304E+03  0.18449633996E+03  0.47000000000E+01 0.  1.
         -5    1    4    4    0  502 -0.27385367028E+02 -0.68647587095E+02  0.91804862374E+01  0.74624532620E+02  0.47000000000E+01 0.  1.
<mgrwt>
<rscale>  0 0.10001518E+04</rscale>
<asrwt>0</asrwt>
<pdfrwt beam="1">  1        1 0.19190801E+00 0.10001518E+04</pdfrwt>
<pdfrwt beam="2">  1       -1 0.30842672E-01 0.10001518E+04</pdfrwt>
<totfact> 0.10536660E+02</totfact>
</mgrwt>
</event>
<event>
 9    1  0.4307774E-036  0.9962556E+03  0.7818608E-02  0.8684612E-01
          2   -1    0    0  501    0  0.00000000000E+00  0.00000000000E+00  0.10337879986E+04  0.10337879986E+04  0.00000000000E+00 0.  1.
         -2   -1    0    0    0  501 -0.00000000000E+00 -0.00000000000E+00 -0.24002144584E+03  0.24002144584E+03  0.00000000000E+00 0.  1.
         36    2    1    2    0    0  0.00000000000E+00 -0.14210854715E-13  0.79376655277E+03  0.12738094444E+04  0.99625556985E+03 0.  0.
         25    2    3    3    0    0 -0.20096720137E+01 -0.11998890784E+03  0.59611938928E+02  0.18140745787E+03  0.12228534549E+03 0.  0.
         35    2    3    3    0    0  0.20096720137E+01  0.11998890784E+03  0.73415461384E+03  0.10924019866E+04  0.79997357860E+03 0.  0.
         22    1    5    5    0    0 -0.55889073843E+02 -0.23487933582E+03  0.68892669745E+03  0.73000814066E+03  0.00000000000E+00 0. -1.
         22    1    5    5    0    0  0.57898745857E+02  0.35486824366E+03  0.45227916390E+02  0.36239384591E+03  0.00000000000E+00 0. -1.
          5    1    4    4  502    0  0.49731742078E+02 -0.10018773440E+03  0.21492385235E+02  0.11399491619E+03  0.47000000000E+01 0. -1.
         -5    1    4    4    0  502 -0.51741414092E+02 -0.19801173437E+02  0.38119553694E+02  0.67412541678E+02  0.47000000000E+01 0. -1.
<mgrwt>
<rscale>  0 0.99625557E+03</rscale>
<asrwt>0</asrwt>
<pdfrwt beam="1">  1        2 0.15904430E+00 0.99625557E+03</pdfrwt>
<pdfrwt beam="2">  1       -2 0.36926377E-01 0.99625557E+03</pdfrwt>
<totfact> 0.20002361E+02</totfact>
</mgrwt>
</event>
<event>
 9    1  0.4307774E-036  0.1000416E+04  0.7818608E-02  0.8680642E-01
         -1   -1    0    0    0  501 -0.00000000000E+00  0.00000000000E+00  0.26828837884E+03  0.26828837884E+03  0.00000000000E+00 0.  1.
          1   -1    0    0  501    0  0.00000000000E+00 -0.00000000000E+00 -0.93260816665E+03  0.93260816665E+03  0.00000000000E+00 0.  1.
         36    2    1    2    0    0 -0.71054273576E-14  0.00000000000E+00 -0.66431978782E+03  0.12008965455E+04  0.10004157798E+04 0.  0.
         25    2    3    3    0    0 -0.52058598503E+02 -0.10751035139E+03 -0.32832389379E+02  0.17577514410E+03  0.12470109124E+03 0.  0.
         35    2    3    3    0    0  0.52058598503E+02  0.10751035139E+03 -0.63148739844E+03  0.10251214014E+04  0.79864195975E+03 0.  0.
         22    1    5    5    0    0  0.29169151369E+03 -0.11623729979E+03 -0.44984211648E+00  0.31399880793E+03  0.00000000000E+00 0.  1.
         22    1    5    5    0    0 -0.23963291519E+03  0.22374765118E+03 -0.63103755632E+03  0.71112259347E+03  0.00000000000E+00 0.  1.
          5    1    4    4  502    0 -0.31604958868E+02  0.12295063810E+02  0.23710401701E+02  0.41645109773E+02  0.47000000000E+01 0. -1.
         -5    1    4    4    0  502 -0.20453639635E+02 -0.11980541520E+03 -0.56542791080E+02  0.13413003433E+03  0.47000000000E+01 0. -1.
<mgrwt>
<rscale>  0 0.10004158E+04</rscale>
<asrwt>0</asrwt>
<pdfrwt beam="1">  1        1 0.14347818E+00 0.10004158E+04</pdfrwt>
<pdfrwt beam="2">  1       -1 0.41275134E-01 0.10004158E+04</pdfrwt>
<totfact> 0.11076244E+02</totfact>
</mgrwt>
</event>
<event>
 9    1  0.4307774E-036  0.1000294E+04  0.7818608E-02  0.8680758E-01
          1   -1    0    0  501    0  0.00000000000E+00  0.00000000000E+00  0.19957436992E+03  0.19957436992E+03  0.00000000000E+00 0.  1.
         -1   -1    0    0    0  501 -0.00000000000E+00 -0.00000000000E+00 -0.12534032436E+04  0.12534032436E+04  0.00000000000E+00 0.  1.
         36    2    1    2    0    0 -0.14210854715E-13  0.21316282073E-13 -0.10538288737E+04  0.14529776135E+04  0.10002942819E+04 0.  0.
         25    2    3    3    0    0  0.12784983578E+03 -0.29137839306E+02 -0.12352581630E+03  0.21897932889E+03  0.12449387535E+03 0.  0.
         35    2    3    3    0    0 -0.12784983578E+03  0.29137839306E+02 -0.93030305735E+03  0.12339982846E+04  0.80005836892E+03 0.  0.
         22    1    5    5    0    0 -0.27912824523E+03  0.32298602848E+03 -0.29826517919E+03  0.52076354422E+03  0.00000000000E+00 0. -1.
         22    1    5    5    0    0  0.15127840945E+03 -0.29384818917E+03 -0.63203787816E+03  0.71323474037E+03  0.00000000000E+00 0. -1.
          5    1    4    4  502    0  0.70005730536E+02 -0.76255220457E+02 -0.89175019269E+02  0.13671113713E+03  0.47000000000E+01 0. -1.
         -5    1    4    4    0  502  0.57844105243E+02  0.47117381151E+02 -0.34350797036E+02  0.82268191757E+02  0.47000000000E+01 0. -1.
<mgrwt>
<rscale>  0 0.10002943E+04</rscale>
<asrwt>0</asrwt>
<pdfrwt beam="1">  1        1 0.30703750E-01 0.10002943E+04</pdfrwt>
<pdfrwt beam="2">  1       -1 0.19283126E+00 0.10002943E+04</pdfrwt>
<totfact> 0.26712914E+01</totfact>
</mgrwt>
</event>
<event>
 9    1  0.4307774E-036  0.9993121E+03  0.7818608E-02  0.8681693E-01
          2   -1    0    0  501    0  0.00000000000E+00  0.00000000000E+00  0.20570676842E+04  0.20570676842E+04  0.00000000000E+00 0.  1.
         -2   -1    0    0    0  501 -0.00000000000E+00 -0.00000000000E+00 -0.12136507612E+03  0.12136507612E+03  0.00000000000E+00 0.  1.
         36    2    1    2    0    0  0.14210854715E-13 -0.14210854715E-13  0.19357026080E+04  0.21784327603E+04  0.99931211553E+03 0.  0.
         25    2    3    3    0    0 -0.71129049173E+02  0.15857915222E+02  0.98539771399E+02  0.17371158672E+03  0.12310488903E+03 0.  0.
         35    2    3    3    0    0  0.71129049173E+02 -0.15857915222E+02  0.18371628366E+04  0.20047211736E+04  0.79901744676E+03 0.  0.
         22    1    5    5    0    0  0.38003551027E+03 -0.20709152747E+03  0.11216926652E+04  0.12022929448E+04  0.00000000000E+00 0.  1.
         22    1    5    5    0    0 -0.30890646109E+03  0.19123361225E+03  0.71547017140E+03  0.80242822877E+03  0.00000000000E+00 0.  1.
          5    1    4    4  502    0 -0.77935888660E+02 -0.34341930814E+02  0.86392426702E+02  0.12140474597E+03  0.47000000000E+01 0.  1.
         -5    1    4    4    0  502  0.68068394871E+01  0.50199846037E+02  0.12147344697E+02  0.52306840749E+02  0.47000000000E+01 0.  1.
<mgrwt>
<rscale>  0 0.99931212E+03</rscale>
<asrwt>0</asrwt>
<pdfrwt beam="1">  1        2 0.31647193E+00 0.99931212E+03</pdfrwt>
<pdfrwt beam="2">  1       -2 0.18671552E-01 0.99931212E+03</pdfrwt>
<totfact> 0.17507120E+02</totfact>
</mgrwt>
</event>
<event>
 9    1  0.4307774E-036  0.1006461E+04  0.7818608E-02  0.8674910E-01
          1   -1    0    0  501    0  0.00000000000E+00  0.00000000000E+00  0.37265288296E+03  0.37265288296E+03  0.00000000000E+00 0. -1.
         -1   -1    0    0    0  501 -0.00000000000E+00 -0.00000000000E+00 -0.67956236590E+03  0.67956236590E+03  0.00000000000E+00 0. -1.
         36    2    1    2    0    0  0.00000000000E+00  0.00000000000E+00 -0.30690948294E+03  0.10522152489E+04  0.10064608781E+04 0.  0.
         25    2    3    3    0    0  0.14054469164E+02  0.10935482213E+03  0.45511661257E+02  0.17253527573E+03  0.12466396767E+03 0.  0.
         35    2    3    3    0    0 -0.14054469164E+02 -0.10935482213E+03 -0.35242114420E+03  0.87967997313E+03  0.79842356367E+03 0.  0.
         22    1    5    5    0    0  0.19619743271E+03 -0.71473120218E+02 -0.55023568606E+03  0.58852455321E+03  0.00000000000E+00 0. -1.
         22    1    5    5    0    0 -0.21025190187E+03 -0.37881701908E+02  0.19781454186E+03  0.29115541992E+03  0.00000000000E+00 0. -1.
          5    1    4    4  502    0 -0.44425859855E+02  0.72116697114E+02  0.56860298201E+02  0.10212569969E+03  0.47000000000E+01 0. -1.
         -5    1    4    4    0  502  0.58480329019E+02  0.37238125012E+02 -0.11348636944E+02  0.70409576032E+02  0.47000000000E+01 0. -1.
<mgrwt>
<rscale>  0 0.10064609E+04</rscale>
<asrwt>0</asrwt>
<pdfrwt beam="1">  1        1 0.57331213E-01 0.10064609E+04</pdfrwt>
<pdfrwt beam="2">  1       -1 0.10454806E+00 0.10064609E+04</pdfrwt>
<totfact> 0.68007908E+01</totfact>
</mgrwt>
</event>
<event>
 9    1  0.4307774E-036  0.9998667E+03  0.7818608E-02  0.8681165E-01
         -2   -1    0    0    0  501 -0.00000000000E+00  0.00000000000E+00  0.16514011651E+03  0.16514011651E+03  0.00000000000E+00 0. -1.
          2   -1    0    0  501    0  0.00000000000E+00 -0.00000000000E+00 -0.15134624177E+04  0.15134624177E+04  0.00000000000E+00 0. -1.
         36    2    1    2    0    0  0.35527136788E-14  0.14210854715E-13 -0.13483223012E+04  0.16786025342E+04  0.99986671113E+03 0.  0.
         25    2    3    3    0    0  0.30506636479E+02 -0.88695813853E+02 -0.77596747161E+02  0.17409078194E+03  0.12445377825E+03 0.  0.
         35    2    3    3    0    0 -0.30506636479E+02  0.88695813853E+02 -0.12707255541E+04  0.15045117523E+04  0.80000911048E+03 0.  0.
         22    1    5    5    0    0  0.15810727444E+03  0.27023923933E+02 -0.12947270968E+04  0.13046250258E+04  0.00000000000E+00 0.  1.
         22    1    5    5    0    0 -0.18861391092E+03  0.61671889920E+02  0.24001542724E+02  0.19988672655E+03  0.00000000000E+00 0.  1.
          5    1    4    4  502    0 -0.85864483368E+01  0.29023350694E+02 -0.74918423933E+01  0.31532517866E+02  0.47000000000E+01 0. -1.
         -5    1    4    4    0  502  0.39093084816E+02 -0.11771916455E+03 -0.70104904768E+02  0.14255826407E+03  0.47000000000E+01 0. -1.
<mgrwt>
<rscale>  0 0.99986671E+03</rscale>
<asrwt>0</asrwt>
<pdfrwt beam="1">  1        2 0.23284038E+00 0.99986671E+03</pdfrwt>
<pdfrwt beam="2">  1       -2 0.25406171E-01 0.99986671E+03</pdfrwt>
<totfact> 0.20753538E+02</totfact>
</mgrwt>
</event>
<event>
 9    1  0.4307774E-036  0.1000246E+04  0.7818608E-02  0.8680804E-01
         -1   -1    0    0    0  501 -0.00000000000E+00  0.00000000000E+00  0.73915570014E+03  0.73915570014E+03  0.00000000000E+00 0. -1.
          1   -1    0    0  501    0  0.00000000000E+00 -0.00000000000E+00 -0.33838994298E+03  0.33838994298E+03  0.00000000000E+00 0. -1.
         36    2    1    2    0    0  0.71054273576E-14  0.00000000000E+00  0.40076575716E+03  0.10775456431E+04  0.10002456803E+04 0.  0.
         25    2    3    3    0    0 -0.43056574299E+02  0.77940284706E+02 -0.39603892978E+02  0.16023297795E+03  0.12719112514E+03 0.  0.
         35    2    3    3    0    0  0.43056574299E+02 -0.77940284706E+02  0.44036965014E+03  0.91731266517E+03  0.79975530030E+03 0.  0.
         22    1    5    5    0    0  0.41494391979E+03 -0.21382163363E+02  0.31290588021E+03  0.52014011896E+03  0.00000000000E+00 0. -1.
         22    1    5    5    0    0 -0.37188734549E+03 -0.56558121343E+02  0.12746376993E+03  0.39717254622E+03  0.00000000000E+00 0. -1.
          5    1    4    4  502    0 -0.64113228192E+02  0.34662191916E+02 -0.71576960330E+02  0.10226106213E+03  0.47000000000E+01 0.  1.
         -5    1    4    4    0  502  0.21056653892E+02  0.43278092790E+02  0.31973067352E+02  0.57971915827E+02  0.47000000000E+01 0.  1.
<mgrwt>
<rscale>  0 0.10002457E+04</rscale>
<asrwt>0</asrwt>
<pdfrwt beam="1">  1        1 0.52059991E-01 0.10002457E+04</pdfrwt>
<pdfrwt beam="2">  1       -1 0.11371626E+00 0.10002457E+04</pdfrwt>
<totfact> 0.63512986E+01</totfact>
</mgrwt>
</event>
<event>
 9    1  0.4307774E-036  0.9995050E+03  0.7818608E-02  0.8681509E-01
         -2   -1    0    0    0  501 -0.00000000000E+00  0.00000000000E+00  0.60807202909E+02  0.60807202909E+02  0.00000000000E+00 0.  1.
          2   -1    0    0  501    0  0.00000000000E+00 -0.00000000000E+00 -0.41072857084E+04  0.41072857084E+04  0.00000000000E+00 0.  1.
         36    2    1    2    0    0  0.00000000000E+00  0.00000000000E+00 -0.40464785055E+04  0.41680929113E+04  0.99950498844E+03 0.  0.
         25    2    3    3    0    0  0.59938952988E+01 -0.12679678318E+03 -0.99209489222E+03  0.10079831201E+04  0.12515727819E+03 0.  0.
         35    2    3    3    0    0 -0.59938952988E+01  0.12679678318E+03 -0.30543836133E+04  0.31601097912E+04  0.80057559563E+03 0.  0.
         22    1    5    5    0    0  0.86474534774E+02  0.35220619737E+03 -0.27322609333E+04  0.27562251102E+04  0.00000000000E+00 0. -1.
         22    1    5    5    0    0 -0.92468430073E+02 -0.22540941419E+03 -0.32212268004E+03  0.40388468102E+03  0.00000000000E+00 0. -1.
          5    1    4    4  502    0 -0.34323126028E+02 -0.38979533285E+02 -0.66072060480E+03  0.66277544357E+03  0.47000000000E+01 0.  1.
         -5    1    4    4    0  502  0.40317021327E+02 -0.87817249897E+02 -0.33137428742E+03  0.34520767655E+03  0.47000000000E+01 0.  1.
<mgrwt>
<rscale>  0 0.99950499E+03</rscale>
<asrwt>0</asrwt>
<pdfrwt beam="1">  1        2 0.63189017E+00 0.99950499E+03</pdfrwt>
<pdfrwt beam="2">  1       -2 0.93549534E-02 0.99950499E+03</pdfrwt>
<totfact> 0.20343907E+01</totfact>
</mgrwt>
</event>
<event>
 9    1  0.4307774E-036  0.1001821E+04  0.7818608E-02  0.8679306E-01
         -2   -1    0    0    0  501 -0.00000000000E+00  0.00000000000E+00  0.46545956362E+03  0.46545956362E+03  0.00000000000E+00 0. -1.
          2   -1    0    0  501    0  0.00000000000E+00 -0.00000000000E+00 -0.53906147559E+03  0.53906147559E+03  0.00000000000E+00 0. -1.
         36    2    1    2    0    0  0.21316282073E-13  0.00000000000E+00 -0.73601911972E+02  0.10045210392E+04  0.10018209804E+04 0.  0.
         25    2    3    3    0    0 -0.28614361925E+01  0.12025840284E+03  0.62005752998E+02  0.18421191518E+03  0.12497617781E+03 0.  0.
         35    2    3    3    0    0  0.28614361925E+01 -0.12025840284E+03 -0.13560766497E+03  0.82030912403E+03  0.80002959252E+03 0.  0.
         22    1    5    5    0    0 -0.36676752209E+03 -0.52231758673E+02 -0.22572638224E+03  0.43381905389E+03  0.00000000000E+00 0. -1.
         22    1    5    5    0    0  0.36962895828E+03 -0.68026644163E+02  0.90118717274E+02  0.38649007014E+03  0.00000000000E+00 0. -1.
          5    1    4    4  502    0  0.28851872355E+02  0.57036942469E+02  0.87865181037E+02  0.10875671650E+03  0.47000000000E+01 0. -1.
         -5    1    4    4    0  502 -0.31713308548E+02  0.63221460368E+02 -0.25859428038E+02  0.75455198685E+02  0.47000000000E+01 0. -1.
<mgrwt>
<rscale>  0 0.10018210E+04</rscale>
<asrwt>0</asrwt>
<pdfrwt beam="1">  1        2 0.82932534E-01 0.10018210E+04</pdfrwt>
<pdfrwt beam="2">  1       -2 0.71609164E-01 0.10018210E+04</pdfrwt>
<totfact> 0.12056889E+02</totfact>
</mgrwt>
</event>
<event>
 9    1  0.4307774E-036  0.9997676E+03  0.7818608E-02  0.8681259E-01
          2   -1    0    0  501    0  0.00000000000E+00  0.00000000000E+00  0.83993078784E+03  0.83993078784E+03  0.00000000000E+00 0. -1.
         -2   -1    0    0    0  501 -0.00000000000E+00 -0.00000000000E+00 -0.29750521520E+03  0.29750521520E+03  0.00000000000E+00 0. -1.
         36    2    1    2    0    0  0.00000000000E+00  0.00000000000E+00  0.54242557265E+03  0.11374360030E+04  0.99976755256E+03 0.  0.
         25    2    3    3    0    0 -0.69224919945E+02  0.36539602380E+02  0.23412564333E+03  0.27691396677E+03  0.12545635116E+03 0.  0.
         35    2    3    3    0    0  0.69224919945E+02 -0.36539602380E+02  0.30829992932E+03  0.86052203627E+03  0.79957619800E+03 0.  0.
         22    1    5    5    0    0  0.68432281699E+02 -0.27379542045E+03  0.48743044560E+03  0.56323649450E+03  0.00000000000E+00 0. -1.
         22    1    5    5    0    0  0.79263824527E+00  0.23725581807E+03 -0.17913051628E+03  0.29728554177E+03  0.00000000000E+00 0. -1.
          5    1    4    4  502    0 -0.32900380907E+02  0.79925323058E+02  0.17324258727E+03  0.19366356491E+03  0.47000000000E+01 0.  1.
         -5    1    4    4    0  502 -0.36324539038E+02 -0.43385720678E+02  0.60883056060E+02  0.83250401862E+02  0.47000000000E+01 0.  1.
<mgrwt>
<rscale>  0 0.99976755E+03</rscale>
<asrwt>0</asrwt>
<pdfrwt beam="1">  1        2 0.12922012E+00 0.99976755E+03</pdfrwt>
<pdfrwt beam="2">  1       -2 0.45770034E-01 0.99976755E+03</pdfrwt>
<totfact> 0.17670366E+02</totfact>
</mgrwt>
</event>
<event>
 9    1  0.4307774E-036  0.1000312E+04  0.7818608E-02  0.8680741E-01
         -2   -1    0    0    0  501 -0.00000000000E+00  0.00000000000E+00  0.20689196256E+03  0.20689196256E+03  0.00000000000E+00 0.  1.
          2   -1    0    0  501    0  0.00000000000E+00 -0.00000000000E+00 -0.12091131922E+04  0.12091131922E+04  0.00000000000E+00 0.  1.
         36    2    1    2    0    0 -0.28421709430E-13  0.00000000000E+00 -0.10022212296E+04  0.14160051547E+04  0.10003115540E+04 0.  0.
         25    2    3    3    0    0  0.12054259410E+03 -0.29720745561E+02 -0.90844117243E+02  0.19848741231E+03  0.12542232456E+03 0.  0.
         35    2    3    3    0    0 -0.12054259410E+03  0.29720745561E+02 -0.91137711236E+03  0.12175177424E+04  0.79770130528E+03 0.  0.
         22    1    5    5    0    0 -0.44613507379E+03  0.13329780637E+03 -0.52885878784E+03  0.70462502562E+03  0.00000000000E+00 0. -1.
         22    1    5    5    0    0  0.32559247968E+03 -0.10357706081E+03 -0.38251832451E+03  0.51289271679E+03  0.00000000000E+00 0. -1.
          5    1    4    4  502    0  0.87467703919E+01 -0.13296234953E+02  0.29184231594E+02  0.33572387910E+02  0.47000000000E+01 0. -1.
         -5    1    4    4    0  502  0.11179582371E+03 -0.16424510608E+02 -0.12002834884E+03  0.16491502440E+03  0.47000000000E+01 0. -1.
<mgrwt>
<rscale>  0 0.10003116E+04</rscale>
<asrwt>0</asrwt>
<pdfrwt beam="1">  1        2 0.18601742E+00 0.10003116E+04</pdfrwt>
<pdfrwt beam="2">  1       -2 0.31829532E-01 0.10003116E+04</pdfrwt>
<totfact> 0.20665600E+02</totfact>
</mgrwt>
</event>
<event>
 9    1  0.4307774E-036  0.9962645E+03  0.7818608E-02  0.8684603E-01
         -1   -1    0    0    0  501 -0.00000000000E+00  0.00000000000E+00  0.16045568160E+03  0.16045568160E+03  0.00000000000E+00 0. -1.
          1   -1    0    0  501    0  0.00000000000E+00 -0.00000000000E+00 -0.15464439948E+04  0.15464439948E+04  0.00000000000E+00 0. -1.
         36    2    1    2    0    0 -0.28421709430E-13  0.14210854715E-13 -0.13859883132E+04  0.17068996764E+04  0.99626447338E+03 0.  0.
         25    2    3    3    0    0 -0.96700182100E+02  0.92715340292E+02 -0.23253648698E+03  0.29717217490E+03  0.12763629663E+03 0.  0.
         35    2    3    3    0    0  0.96700182100E+02 -0.92715340292E+02 -0.11534518262E+04  0.14097275015E+04  0.79933313048E+03 0.  0.
         22    1    5    5    0    0 -0.13676361191E+03  0.10036283938E+03 -0.10862342789E+04  0.10994006975E+04  0.00000000000E+00 0. -1.
         22    1    5    5    0    0  0.23346379401E+03 -0.19307817967E+03 -0.67217547299E+02  0.31032680394E+03  0.00000000000E+00 0. -1.
          5    1    4    4  502    0 -0.10030136938E+03  0.51589278591E+02 -0.22919457192E+03  0.25548788653E+03  0.47000000000E+01 0.  1.
         -5    1    4    4    0  502  0.36011872793E+01  0.41126061701E+02 -0.33419150556E+01  0.41684288372E+02  0.47000000000E+01 0.  1.
<mgrwt>
<rscale>  0 0.99626447E+03</rscale>
<asrwt>0</asrwt>
<pdfrwt beam="1">  1        1 0.23791446E+00 0.99626447E+03</pdfrwt>
<pdfrwt beam="2">  1       -1 0.24685490E-01 0.99626447E+03</pdfrwt>
<totfact> 0.93587603E+01</totfact>
</mgrwt>
</event>
<event>
 9    1  0.4307774E-036  0.9967747E+03  0.7818608E-02  0.8684115E-01
          1   -1    0    0  501    0  0.00000000000E+00  0.00000000000E+00  0.64054374016E+03  0.64054374016E+03  0.00000000000E+00 0. -1.
         -1   -1    0    0    0  501 -0.00000000000E+00 -0.00000000000E+00 -0.38777987403E+03  0.38777987403E+03  0.00000000000E+00 0. -1.
         36    2    1    2    0    0  0.00000000000E+00  0.28421709430E-13  0.25276386613E+03  0.10283236142E+04  0.99677474060E+03 0.  0.
         25    2    3    3    0    0 -0.80841075458E+02 -0.11084493125E+03  0.42313346148E+02  0.18990272261E+03  0.12430103188E+03 0.  0.
         35    2    3    3    0    0  0.80841075458E+02  0.11084493125E+03  0.21045051998E+03  0.83842089159E+03  0.79989892601E+03 0.  0.
         22    1    5    5    0    0 -0.28557719922E+03  0.13513668119E+03 -0.12622712498E+03  0.34021985009E+03  0.00000000000E+00 0.  1.
         22    1    5    5    0    0  0.36641827468E+03 -0.24291749942E+02  0.33667764496E+03  0.49820104150E+03  0.00000000000E+00 0.  1.
          5    1    4    4  502    0 -0.38780725183E+02  0.22601565439E+02  0.10218445875E+02  0.46273988828E+02  0.47000000000E+01 0. -1.
         -5    1    4    4    0  502 -0.42060350275E+02 -0.13344649669E+03  0.32094900273E+02  0.14362873378E+03  0.47000000000E+01 0. -1.
<mgrwt>
<rscale>  0 0.99677474E+03</rscale>
<asrwt>0</asrwt>
<pdfrwt beam="1">  1        1 0.98545191E-01 0.99677474E+03</pdfrwt>
<pdfrwt beam="2">  1       -1 0.59658442E-01 0.99677474E+03</pdfrwt>
<totfact> 0.10263192E+02</totfact>
</mgrwt>
</event>
<event>
 9    1  0.4307774E-036  0.9997386E+03  0.7818608E-02  0.8681287E-01
          1   -1    0    0  501    0  0.00000000000E+00  0.00000000000E+00  0.10424066046E+04  0.10424066046E+04  0.00000000000E+00 0.  1.
         -1   -1    0    0    0  501 -0.00000000000E+00 -0.00000000000E+00 -0.23970427235E+03  0.23970427235E+03  0.00000000000E+00 0.  1.
         36    2    1    2    0    0  0.21316282073E-13  0.00000000000E+00  0.80270233228E+03  0.12821108770E+04  0.99973859916E+03 0.  0.
         25    2    3    3    0    0  0.12180515557E+02  0.30933468729E+02 -0.22552132916E+02  0.13181456386E+03  0.12554376169E+03 0.  0.
         35    2    3    3    0    0 -0.12180515557E+02 -0.30933468729E+02  0.82525446520E+03  0.11502963131E+04  0.80064438499E+03 0.  0.
         22    1    5    5    0    0  0.32879550341E+03 -0.11477796291E+03  0.69207136325E+03  0.77475366127E+03  0.00000000000E+00 0. -1.
         22    1    5    5    0    0 -0.34097601897E+03  0.83844494182E+02  0.13318310195E+03  0.37554265185E+03  0.00000000000E+00 0. -1.
          5    1    4    4  502    0  0.61990388962E+02  0.44608906723E+02 -0.23157698863E+02  0.79944555157E+02  0.47000000000E+01 0. -1.
         -5    1    4    4    0  502 -0.49809873405E+02 -0.13675437994E+02  0.60556594777E+00  0.51870008705E+02  0.47000000000E+01 0. -1.
<mgrwt>
<rscale>  0 0.99973860E+03</rscale>
<asrwt>0</asrwt>
<pdfrwt beam="1">  1        1 0.16037024E+00 0.99973860E+03</pdfrwt>
<pdfrwt beam="2">  1       -1 0.36877581E-01 0.99973860E+03</pdfrwt>
<totfact> 0.11051756E+02</totfact>
</mgrwt>
</event>
<event>
 9    1  0.4307774E-036  0.9998953E+03  0.7818608E-02  0.8681138E-01
         -1   -1    0    0    0  501 -0.00000000000E+00  0.00000000000E+00  0.89531925440E+03  0.89531925440E+03  0.00000000000E+00 0. -1.
          1   -1    0    0  501    0  0.00000000000E+00 -0.00000000000E+00 -0.27917151916E+03  0.27917151916E+03  0.00000000000E+00 0. -1.
         36    2    1    2    0    0  0.00000000000E+00  0.00000000000E+00  0.61614773524E+03  0.11744907736E+04  0.99989526728E+03 0.  0.
         25    2    3    3    0    0  0.67791660203E+02 -0.12471744180E+03  0.11741850970E+03  0.21848226639E+03  0.11746167386E+03 0.  0.
         35    2    3    3    0    0 -0.67791660203E+02  0.12471744180E+03  0.49872922555E+03  0.95600850717E+03  0.80316329341E+03 0.  0.
         22    1    5    5    0    0  0.16161406706E+03  0.23448584208E+02 -0.17365827418E+03  0.23838233777E+03  0.00000000000E+00 0. -1.
         22    1    5    5    0    0 -0.22940572726E+03  0.10126885759E+03  0.67238749972E+03  0.71762616940E+03  0.00000000000E+00 0. -1.
          5    1    4    4  502    0 -0.10949650378E+02 -0.24635071605E+01 -0.16660076569E+02  0.20630362629E+02  0.47000000000E+01 0. -1.
         -5    1    4    4    0  502  0.78741310581E+02 -0.12225393464E+03  0.13407858627E+03  0.19785190376E+03  0.47000000000E+01 0. -1.
<mgrwt>
<rscale>  0 0.99989527E+03</rscale>
<asrwt>0</asrwt>
<pdfrwt beam="1">  1        1 0.42949465E-01 0.99989527E+03</pdfrwt>
<pdfrwt beam="2">  1       -1 0.13774142E+00 0.99989527E+03</pdfrwt>
<totfact> 0.50148983E+01</totfact>
</mgrwt>
</event>
<event>
 9    1  0.4307774E-036  0.1000056E+04  0.7818608E-02  0.8680985E-01
         -2   -1    0    0    0  501 -0.00000000000E+00  0.00000000000E+00  0.67652736563E+02  0.67652736563E+02  0.00000000000E+00 0. -1.
          2   -1    0    0  501    0  0.00000000000E+00 -0.00000000000E+00 -0.36957525343E+04  0.36957525343E+04  0.00000000000E+00 0. -1.
         36    2    1    2    0    0 -0.14210854715E-13  0.00000000000E+00 -0.36280997978E+04  0.37634052709E+04  0.10000555437E+04 0.  0.
         25    2    3    3    0    0  0.54601171441E+02  0.39856551510E+02 -0.11446573841E+04  0.11534327024E+04  0.12488650605E+03 0.  0.
         35    2    3    3    0    0 -0.54601171441E+02 -0.39856551510E+02 -0.24834424137E+04  0.26099725685E+04  0.79993796861E+03 0.  0.
         22    1    5    5    0    0 -0.38651604573E+03  0.15391596729E+03 -0.11894871912E+04  0.12601446571E+04  0.00000000000E+00 0. -1.
         22    1    5    5    0    0  0.33191487429E+03 -0.19377251880E+03 -0.12939552225E+04  0.13498279115E+04  0.00000000000E+00 0. -1.
          5    1    4    4  502    0 -0.29970620579E+02 -0.39840173419E+01 -0.10382628208E+03  0.10824092268E+03  0.47000000000E+01 0.  1.
         -5    1    4    4    0  502  0.84571792019E+02  0.43840568852E+02 -0.10408311020E+04  0.10451917797E+04  0.47000000000E+01 0.  1.
<mgrwt>
<rscale>  0 0.10000555E+04</rscale>
<asrwt>0</asrwt>
<pdfrwt beam="1">  1        2 0.56857725E+00 0.10000555E+04</pdfrwt>
<pdfrwt beam="2">  1       -2 0.10408114E-01 0.10000555E+04</pdfrwt>
<totfact> 0.38102628E+01</totfact>
</mgrwt>
</event>
<event>
 9    1  0.4307774E-036  0.9999333E+03  0.7818608E-02  0.8681101E-01
         -2   -1    0    0    0  501 -0.00000000000E+00  0.00000000000E+00  0.19257525759E+03  0.19257525759E+03  0.00000000000E+00 0. -1.
          2   -1    0    0  501    0  0.00000000000E+00 -0.00000000000E+00 -0.12980206942E+04  0.12980206942E+04  0.00000000000E+00 0. -1.
         36    2    1    2    0    0  0.00000000000E+00  0.00000000000E+00 -0.11054454366E+04  0.14905959518E+04  0.99993333684E+03 0.  0.
         25    2    3    3    0    0 -0.12723935155E+03  0.21770292123E+02 -0.13263595388E+03  0.22340905392E+03  0.12512198412E+03 0.  0.
         35    2    3    3    0    0  0.12723935155E+03 -0.21770292123E+02 -0.97280948269E+03  0.12671868978E+04  0.80171101165E+03 0.  0.
         22    1    5    5    0    0 -0.27725980595E+03 -0.14044253377E+03 -0.15541294743E+03  0.34749142366E+03  0.00000000000E+00 0. -1.
         22    1    5    5    0    0  0.40449915750E+03  0.11867224164E+03 -0.81739653526E+03  0.91969547417E+03  0.00000000000E+00 0. -1.
          5    1    4    4  502    0 -0.11406916413E+03 -0.22640899798E+02 -0.13314608914E+03  0.17684556992E+03  0.47000000000E+01 0. -1.
         -5    1    4    4    0  502 -0.13170187424E+02  0.44411191921E+02  0.51013525284E+00  0.46563484004E+02  0.47000000000E+01 0. -1.
<mgrwt>
<rscale>  0 0.99993334E+03</rscale>
<asrwt>0</asrwt>
<pdfrwt beam="1">  1        2 0.19969548E+00 0.99993334E+03</pdfrwt>
<pdfrwt beam="2">  1       -2 0.29626964E-01 0.99993334E+03</pdfrwt>
<totfact> 0.20903583E+02</totfact>
</mgrwt>
</event>
<event>
 9    1  0.4307774E-036  0.1000272E+04  0.7818608E-02  0.8680779E-01
          2   -1    0    0  501    0  0.00000000000E+00  0.00000000000E+00  0.25426162502E+04  0.25426162502E+04  0.00000000000E+00 0. -1.
         -2   -1    0    0    0  501 -0.00000000000E+00 -0.00000000000E+00 -0.98377417353E+02  0.98377417353E+02  0.00000000000E+00 0. -1.
         36    2    1    2    0    0 -0.28421709430E-13  0.71054273576E-14  0.24442388328E+04  0.26409936676E+04  0.10002720030E+04 0.  0.
         25    2    3    3    0    0  0.12855327616E+03  0.55205121110E+02  0.42879019168E+03  0.46802626398E+03  0.12495601263E+03 0.  0.
         35    2    3    3    0    0 -0.12855327616E+03 -0.55205121110E+02  0.20154486412E+04  0.21729674036E+04  0.80011284303E+03 0.  0.
         22    1    5    5    0    0  0.25933969585E+03  0.18191880941E+03  0.11805424583E+04  0.12223060283E+04  0.00000000000E+00 0. -1.
         22    1    5    5    0    0 -0.38789297201E+03 -0.23712393052E+03  0.83490618287E+03  0.95066137523E+03  0.00000000000E+00 0. -1.
          5    1    4    4  502    0  0.50731203699E+02  0.12287899524E+02  0.32062091866E+02  0.61438711236E+02  0.47000000000E+01 0. -1.
         -5    1    4    4    0  502  0.77822072456E+02  0.42917221586E+02  0.39672809981E+03  0.40658755275E+03  0.47000000000E+01 0. -1.
<mgrwt>
<rscale>  0 0.10002720E+04</rscale>
<asrwt>0</asrwt>
<pdfrwt beam="1">  1        2 0.39117168E+00 0.10002720E+04</pdfrwt>
<pdfrwt beam="2">  1       -2 0.15134989E-01 0.10002720E+04</pdfrwt>
<totfact> 0.12919773E+02</totfact>
</mgrwt>
</event>
<event>
 9    1  0.4307774E-036  0.1000141E+04  0.7818608E-02  0.8680904E-01
         -2   -1    0    0    0  501 -0.00000000000E+00  0.00000000000E+00  0.63241639066E+03  0.63241639066E+03  0.00000000000E+00 0.  1.
          2   -1    0    0  501    0  0.00000000000E+00 -0.00000000000E+00 -0.39542059881E+03  0.39542059881E+03  0.00000000000E+00 0.  1.
         36    2    1    2    0    0 -0.71054273576E-14  0.21316282073E-13  0.23699579185E+03  0.10278369895E+04  0.10001409259E+04 0.  0.
         25    2    3    3    0    0  0.28680543955E+02 -0.53816492101E+02 -0.94132994012E+02  0.16804666500E+03  0.12513941279E+03 0.  0.
         35    2    3    3    0    0 -0.28680543955E+02  0.53816492101E+02  0.33112878586E+03  0.85979032447E+03  0.79112220346E+03 0.  0.
         22    1    5    5    0    0 -0.12033335846E+03  0.27892930094E+03  0.48488513214E+03  0.57218464105E+03  0.00000000000E+00 0. -1.
         22    1    5    5    0    0  0.91652814509E+02 -0.22511280884E+03 -0.15375634628E+03  0.28760568342E+03  0.00000000000E+00 0. -1.
          5    1    4    4  502    0  0.99899565401E+01 -0.33369608942E-01 -0.10856114077E+03  0.10912108701E+03  0.47000000000E+01 0. -1.
         -5    1    4    4    0  502  0.18690587415E+02 -0.53783122492E+02  0.14428146758E+02  0.58925577992E+02  0.47000000000E+01 0. -1.
<mgrwt>
<rscale>  0 0.10001409E+04</rscale>
<asrwt>0</asrwt>
<pdfrwt beam="1">  1        2 0.60833938E-01 0.10001409E+04</pdfrwt>
<pdfrwt beam="2">  1       -2 0.97294829E-01 0.10001409E+04</pdfrwt>
<totfact> 0.84499038E+01</totfact>
</mgrwt>
</event>
<event>
 9    1  0.4307774E-036  0.1000104E+04  0.7818608E-02  0.8680939E-01
         -3   -1    0    0    0  501 -0.00000000000E+00  0.00000000000E+00  0.13617893745E+03  0.13617893745E+03  0.00000000000E+00 0.  1.
          3   -1    0    0  501    0  0.00000000000E+00 -0.00000000000E+00 -0.18362019904E+04  0.18362019904E+04  0.00000000000E+00 0.  1.
         36    2    1    2    0    0  0.00000000000E+00  0.00000000000E+00 -0.17000230529E+04  0.19723809278E+04  0.10001040666E+04 0.  0.
         25    2    3    3    0    0 -0.48322183718E+02  0.11932402062E+03 -0.42403191532E+03  0.46060542015E+03  0.12562257969E+03 0.  0.
         35    2    3    3    0    0  0.48322183718E+02 -0.11932402062E+03 -0.12759911376E+04  0.15117755077E+04  0.80046145881E+03 0.  0.
         22    1    5    5    0    0  0.15276772523E+03 -0.27143541475E+02 -0.13466604536E+04  0.13555696688E+04  0.00000000000E+00 0.  1.
         22    1    5    5    0    0 -0.10444554151E+03 -0.92180479143E+02  0.70669315987E+02  0.15620583887E+03  0.00000000000E+00 0.  1.
          5    1    4    4  502    0 -0.13288563870E+02  0.12439323388E+03 -0.21704748996E+03  0.25056329632E+03  0.47000000000E+01 0. -1.
         -5    1    4    4    0  502 -0.35033619848E+02 -0.50692132622E+01 -0.20698442536E+03  0.21004212383E+03  0.47000000000E+01 0. -1.
<mgrwt>
<rscale>  0 0.10001041E+04</rscale>
<asrwt>0</asrwt>
<pdfrwt beam="1">  1        3 0.28249261E+00 0.10001041E+04</pdfrwt>
<pdfrwt beam="2">  1       -3 0.20950606E-01 0.10001041E+04</pdfrwt>
<totfact> 0.43238522E+00</totfact>
</mgrwt>
</event>
<event>
 9    1  0.4307774E-036  0.1000186E+04  0.7818608E-02  0.8680861E-01
         -1   -1    0    0    0  501 -0.00000000000E+00  0.00000000000E+00  0.38110844930E+03  0.38110844930E+03  0.00000000000E+00 0. -1.
          1   -1    0    0  501    0  0.00000000000E+00 -0.00000000000E+00 -0.65622499127E+03  0.65622499127E+03  0.00000000000E+00 0. -1.
         36    2    1    2    0    0 -0.35527136788E-14  0.00000000000E+00 -0.27511654197E+03  0.10373334406E+04  0.10001857604E+04 0.  0.
         25    2    3    3    0    0 -0.10584064439E+01  0.10821051636E+03 -0.15679100916E+03  0.22183834995E+03  0.11365824599E+03 0.  0.
         35    2    3    3    0    0  0.10584064439E+01 -0.10821051636E+03 -0.11832553281E+03  0.81549509062E+03  0.79957530917E+03 0.  0.
         22    1    5    5    0    0  0.32698731850E+03 -0.13390966817E+01 -0.28534758235E+03  0.43398818232E+03  0.00000000000E+00 0. -1.
         22    1    5    5    0    0 -0.32592891205E+03 -0.10687141968E+03  0.16702204954E+03  0.38150690831E+03  0.00000000000E+00 0. -1.
          5    1    4    4  502    0 -0.91633901058E+01  0.13142310424E+03 -0.13427401121E+03  0.18816907327E+03  0.47000000000E+01 0. -1.
         -5    1    4    4    0  502  0.81049836618E+01 -0.23212587877E+02 -0.22516997943E+02  0.33669276684E+02  0.47000000000E+01 0. -1.
<mgrwt>
<rscale>  0 0.10001858E+04</rscale>
<asrwt>0</asrwt>
<pdfrwt beam="1">  1        1 0.10095769E+00 0.10001858E+04</pdfrwt>
<pdfrwt beam="2">  1       -1 0.58632069E-01 0.10001858E+04</pdfrwt>
<totfact> 0.10229322E+02</totfact>
</mgrwt>
</event>
<event>
 9    1  0.4307774E-036  0.9999130E+03  0.7818608E-02  0.8681121E-01
         -2   -1    0    0    0  501 -0.00000000000E+00  0.00000000000E+00  0.26236352200E+03  0.26236352200E+03  0.00000000000E+00 0. -1.
          2   -1    0    0  501    0  0.00000000000E+00 -0.00000000000E+00 -0.95271051559E+03  0.95271051559E+03  0.00000000000E+00 0. -1.
         36    2    1    2    0    0  0.71054273576E-14  0.00000000000E+00 -0.69034699359E+03  0.12150740376E+04  0.99991296885E+03 0.  0.
         25    2    3    3    0    0  0.54721591156E+02 -0.11949777040E+03 -0.18906616874E+03  0.26206519331E+03  0.12513184932E+03 0.  0.
         35    2    3    3    0    0 -0.54721591156E+02  0.11949777040E+03 -0.50128082485E+03  0.95300884428E+03  0.79979323718E+03 0.  0.
         22    1    5    5    0    0 -0.41682717905E+03 -0.20708983183E+02 -0.20740452387E+03  0.46603690380E+03  0.00000000000E+00 0.  1.
         22    1    5    5    0    0  0.36210558790E+03  0.14020675359E+03 -0.29387630098E+03  0.48697194048E+03  0.00000000000E+00 0.  1.
          5    1    4    4  502    0 -0.24535699672E+02 -0.60446089675E+02 -0.24109495645E+02  0.69707159572E+02  0.47000000000E+01 0. -1.
         -5    1    4    4    0  502  0.79257290829E+02 -0.59051680727E+02 -0.16495667309E+03  0.19235803374E+03  0.47000000000E+01 0. -1.
<mgrwt>
<rscale>  0 0.99991297E+03</rscale>
<asrwt>0</asrwt>
<pdfrwt beam="1">  1        2 0.14657085E+00 0.99991297E+03</pdfrwt>
<pdfrwt beam="2">  1       -2 0.40363619E-01 0.99991297E+03</pdfrwt>
<totfact> 0.18997009E+02</totfact>
</mgrwt>
</event>
<event>
 9    1  0.4307774E-036  0.9987074E+03  0.7818608E-02  0.8682270E-01
         -3   -1    0    0    0  501 -0.00000000000E+00  0.00000000000E+00  0.66833645800E+03  0.66833645800E+03  0.00000000000E+00 0. -1.
          3   -1    0    0  501    0  0.00000000000E+00 -0.00000000000E+00 -0.37309670000E+03  0.37309670000E+03  0.00000000000E+00 0. -1.
         36    2    1    2    0    0  0.00000000000E+00  0.21316282073E-13  0.29523975800E+03  0.10414331580E+04  0.99870741856E+03 0.  0.
         25    2    3    3    0    0 -0.11819639483E+03 -0.27229601434E+02 -0.20097854954E+02  0.17481370338E+03  0.12427416534E+03 0.  0.
         35    2    3    3    0    0  0.11819639483E+03  0.27229601434E+02  0.31533761295E+03  0.86661945463E+03  0.79804738584E+03 0.  0.
         22    1    5    5    0    0  0.19881819502E+03  0.26353416144E+03 -0.13102512732E+03  0.35517110371E+03  0.00000000000E+00 0. -1.
         22    1    5    5    0    0 -0.80621800194E+02 -0.23630456001E+03  0.44636274028E+03  0.51144835092E+03  0.00000000000E+00 0. -1.
          5    1    4    4  502    0 -0.68665697925E+02 -0.28672044640E+02  0.49319621737E+02  0.89395633582E+02  0.47000000000E+01 0. -1.
         -5    1    4    4    0  502 -0.49530696900E+02  0.14424432059E+01 -0.69417476691E+02  0.85418069798E+02  0.47000000000E+01 0. -1.
<mgrwt>
<rscale>  0 0.99870742E+03</rscale>
<asrwt>0</asrwt>
<pdfrwt beam="1">  1        3 0.57399492E-01 0.99870742E+03</pdfrwt>
<pdfrwt beam="2">  1       -3 0.10282099E+00 0.99870742E+03</pdfrwt>
<totfact> 0.89704800E+00</totfact>
</mgrwt>
</event>
<event>
 9    1  0.4307774E-036  0.9998806E+03  0.7818608E-02  0.8681152E-01
          2   -1    0    0  501    0  0.00000000000E+00  0.00000000000E+00  0.12184734495E+04  0.12184734495E+04  0.00000000000E+00 0. -1.
         -2   -1    0    0    0  501 -0.00000000000E+00 -0.00000000000E+00 -0.20512576292E+03  0.20512576292E+03  0.00000000000E+00 0. -1.
         36    2    1    2    0    0  0.14210854715E-13 -0.71054273576E-14  0.10133476866E+04  0.14235992124E+04  0.99988058473E+03 0.  0.
         25    2    3    3    0    0 -0.90998233550E+02 -0.45341621551E+02  0.32385645011E+03  0.36141412746E+03  0.12409927515E+03 0.  0.
         35    2    3    3    0    0  0.90998233550E+02  0.45341621551E+02  0.68949123649E+03  0.10621850850E+04  0.80156250437E+03 0.  0.
         22    1    5    5    0    0  0.85050923151E+02  0.13181669338E+03  0.85824904207E+03  0.87246817615E+03  0.00000000000E+00 0. -1.
         22    1    5    5    0    0  0.59473103994E+01 -0.86475071833E+02 -0.16875780558E+03  0.18971690883E+03  0.00000000000E+00 0. -1.
          5    1    4    4  502    0 -0.67497610146E+02 -0.69269726168E+02  0.31008951022E+03  0.32485660942E+03  0.47000000000E+01 0. -1.
         -5    1    4    4    0  502 -0.23500623404E+02  0.23928104617E+02  0.13766939895E+02  0.36557518037E+02  0.47000000000E+01 0. -1.
<mgrwt>
<rscale>  0 0.99988058E+03</rscale>
<asrwt>0</asrwt>
<pdfrwt beam="1">  1        2 0.18745745E+00 0.99988058E+03</pdfrwt>
<pdfrwt beam="2">  1       -2 0.31557811E-01 0.99988058E+03</pdfrwt>
<totfact> 0.20728720E+02</totfact>
</mgrwt>
</event>
<event>
 9    1  0.4307774E-036  0.9997628E+03  0.7818608E-02  0.8681264E-01
          1   -1    0    0  501    0  0.00000000000E+00  0.00000000000E+00  0.35819280151E+03  0.35819280151E+03  0.00000000000E+00 0.  1.
         -1   -1    0    0    0  501 -0.00000000000E+00 -0.00000000000E+00 -0.69761703955E+03  0.69761703955E+03  0.00000000000E+00 0.  1.
         36    2    1    2    0    0  0.71054273576E-14  0.14210854715E-13 -0.33942423804E+03  0.10558098411E+04  0.99976277542E+03 0.  0.
         25    2    3    3    0    0 -0.39783438046E+02  0.75776716456E+02 -0.18105964910E+03  0.23614475465E+03  0.12512759854E+03 0.  0.
         35    2    3    3    0    0  0.39783438046E+02 -0.75776716456E+02 -0.15836458894E+03  0.81966508642E+03  0.79965409907E+03 0.  0.
         22    1    5    5    0    0  0.17874195512E+01  0.33800145122E+03 -0.21457229760E+03  0.40036164501E+03  0.00000000000E+00 0.  1.
         22    1    5    5    0    0  0.37996018494E+02 -0.41377816768E+03  0.56207708652E+02  0.41930344141E+03  0.00000000000E+00 0.  1.
          5    1    4    4  502    0 -0.51925305107E+02 -0.15206321230E+02 -0.38677352523E+02  0.66674561221E+02  0.47000000000E+01 0. -1.
         -5    1    4    4    0  502  0.12141867061E+02  0.90983037685E+02 -0.14238229658E+03  0.16947019343E+03  0.47000000000E+01 0. -1.
<mgrwt>
<rscale>  0 0.99976278E+03</rscale>
<asrwt>0</asrwt>
<pdfrwt beam="1">  1        1 0.55106585E-01 0.99976278E+03</pdfrwt>
<pdfrwt beam="2">  1       -1 0.10732570E+00 0.99976278E+03</pdfrwt>
<totfact> 0.67525952E+01</totfact>
</mgrwt>
</event>
<event>
 9    1  0.4307774E-036  0.1000659E+04  0.7818608E-02  0.8680410E-01
         -1   -1    0    0    0  501 -0.00000000000E+00  0.00000000000E+00  0.39042190798E+03  0.39042190798E+03  0.00000000000E+00 0. -1.
          1   -1    0    0  501    0  0.00000000000E+00 -0.00000000000E+00 -0.64117743898E+03  0.64117743898E+03  0.00000000000E+00 0. -1.
         36    2    1    2    0    0  0.28421709430E-13  0.00000000000E+00 -0.25075553099E+03  0.10315993470E+04  0.10006592209E+04 0.  0.
         25    2    3    3    0    0  0.11657204256E+03  0.76112280336E+02  0.65713711894E+01  0.18789750986E+03  0.12601655037E+03 0.  0.
         35    2    3    3    0    0 -0.11657204256E+03 -0.76112280336E+02 -0.25732690218E+03  0.84370183710E+03  0.79134918652E+03 0.  0.
         22    1    5    5    0    0 -0.42665734250E+03 -0.19325910468E+03 -0.19000999304E+03  0.50545956010E+03  0.00000000000E+00 0.  1.
         22    1    5    5    0    0  0.31008529993E+03  0.11714682434E+03 -0.67316909144E+02  0.33824227699E+03  0.00000000000E+00 0.  1.
          5    1    4    4  502    0  0.50503033256E+02 -0.24902815056E+02  0.31304751242E+02  0.64597089843E+02  0.47000000000E+01 0. -1.
         -5    1    4    4    0  502  0.66069009305E+02  0.10101509539E+03 -0.24733380053E+02  0.12330042002E+03  0.47000000000E+01 0. -1.
<mgrwt>
<rscale>  0 0.10006592E+04</rscale>
<asrwt>0</asrwt>
<pdfrwt beam="1">  1        1 0.98642682E-01 0.10006592E+04</pdfrwt>
<pdfrwt beam="2">  1       -1 0.60064909E-01 0.10006592E+04</pdfrwt>
<totfact> 0.10112035E+02</totfact>
</mgrwt>
</event>
<event>
 9    1  0.4307774E-036  0.9997076E+03  0.7818608E-02  0.8681316E-01
         -2   -1    0    0    0  501 -0.00000000000E+00  0.00000000000E+00  0.14487980378E+03  0.14487980378E+03  0.00000000000E+00 0. -1.
          2   -1    0    0  501    0  0.00000000000E+00 -0.00000000000E+00 -0.17245593115E+04  0.17245593115E+04  0.00000000000E+00 0. -1.
         36    2    1    2    0    0 -0.28421709430E-13 -0.14210854715E-13 -0.15796795077E+04  0.18694391153E+04  0.99970758656E+03 0.  0.
         25    2    3    3    0    0 -0.53569178778E+02 -0.78797391410E+02 -0.10226610130E+03  0.18731314916E+03  0.12469632939E+03 0.  0.
         35    2    3    3    0    0  0.53569178778E+02  0.78797391410E+02 -0.14774134064E+04  0.16821259661E+04  0.79857291879E+03 0.  0.
         22    1    5    5    0    0  0.33882166688E+03  0.23702724888E+03 -0.48429239773E+03  0.63680543745E+03  0.00000000000E+00 0. -1.
         22    1    5    5    0    0 -0.28525248811E+03 -0.15822985747E+03 -0.99312100871E+03  0.10453205287E+04  0.00000000000E+00 0. -1.
          5    1    4    4  502    0  0.32558611889E+02 -0.59782643024E+02 -0.38227796070E+02  0.78214333772E+02  0.47000000000E+01 0. -1.
         -5    1    4    4    0  502 -0.86127790668E+02 -0.19014748386E+02 -0.64038305229E+02  0.10909881538E+03  0.47000000000E+01 0. -1.
<mgrwt>
<rscale>  0 0.99970759E+03</rscale>
<asrwt>0</asrwt>
<pdfrwt beam="1">  1        2 0.26531681E+00 0.99970759E+03</pdfrwt>
<pdfrwt beam="2">  1       -2 0.22289201E-01 0.99970759E+03</pdfrwt>
<totfact> 0.19874306E+02</totfact>
</mgrwt>
</event>
<event>
 9    1  0.4307774E-036  0.1000569E+04  0.7818608E-02  0.8680496E-01
          1   -1    0    0  501    0  0.00000000000E+00  0.00000000000E+00  0.14708034564E+04  0.14708034564E+04  0.00000000000E+00 0. -1.
         -1   -1    0    0    0  501 -0.00000000000E+00 -0.00000000000E+00 -0.17016864581E+03  0.17016864581E+03  0.00000000000E+00 0. -1.
         36    2    1    2    0    0  0.00000000000E+00  0.14210854715E-13  0.13006348106E+04  0.16409721022E+04  0.10005691029E+04 0.  0.
         25    2    3    3    0    0 -0.12858068261E+03  0.46897633940E+02  0.31469919271E+03  0.36400490305E+03  0.12137383383E+03 0.  0.
         35    2    3    3    0    0  0.12858068261E+03 -0.46897633940E+02  0.98593561790E+03  0.12769671992E+04  0.79990237226E+03 0.  0.
         22    1    5    5    0    0  0.20543456052E+03 -0.27596810333E+03  0.97631312970E+03  0.10351565485E+04  0.00000000000E+00 0. -1.
         22    1    5    5    0    0 -0.76853877909E+02  0.22907046939E+03  0.96224881923E+01  0.24181065067E+03  0.00000000000E+00 0. -1.
          5    1    4    4  502    0 -0.71147357009E+02  0.17878163198E+02  0.43888874626E+02  0.85614826079E+02  0.47000000000E+01 0.  1.
         -5    1    4    4    0  502 -0.57433325602E+02  0.29019470742E+02  0.27081031808E+03  0.27839007697E+03  0.47000000000E+01 0.  1.
<mgrwt>
<rscale>  0 0.10005691E+04</rscale>
<asrwt>0</asrwt>
<pdfrwt beam="1">  1        1 0.22627745E+00 0.10005691E+04</pdfrwt>
<pdfrwt beam="2">  1       -1 0.26179793E-01 0.10005691E+04</pdfrwt>
<totfact> 0.95934160E+01</totfact>
</mgrwt>
</event>
<event>
 9    1  0.4307774E-036  0.1000299E+04  0.7818608E-02  0.8680753E-01
          2   -1    0    0  501    0  0.00000000000E+00  0.00000000000E+00  0.23025516604E+04  0.23025516604E+04  0.00000000000E+00 0. -1.
         -2   -1    0    0    0  501 -0.00000000000E+00 -0.00000000000E+00 -0.10864023219E+03  0.10864023219E+03  0.00000000000E+00 0. -1.
         36    2    1    2    0    0 -0.28421709430E-13  0.00000000000E+00  0.21939114282E+04  0.24111918926E+04  0.10002994492E+04 0.  0.
         25    2    3    3    0    0 -0.58820354065E+02 -0.83952701939E+02  0.64458607909E+03  0.66442330807E+03  0.12433514686E+03 0.  0.
         35    2    3    3    0    0  0.58820354065E+02  0.83952701939E+02  0.15493253491E+04  0.17467685845E+04  0.80017720550E+03 0.  0.
         22    1    5    5    0    0 -0.24815964786E+03  0.24969443408E+01  0.10763405682E+03  0.27050792178E+03  0.00000000000E+00 0. -1.
         22    1    5    5    0    0  0.30698000193E+03  0.81455757598E+02  0.14416912923E+04  0.14762606628E+04  0.00000000000E+00 0. -1.
          5    1    4    4  502    0 -0.77989276700E+02 -0.49590926757E+01  0.27187942731E+03  0.28292655032E+03  0.47000000000E+01 0.  1.
         -5    1    4    4    0  502  0.19168922635E+02 -0.78993609263E+02  0.37270665177E+03  0.38149675775E+03  0.47000000000E+01 0.  1.
<mgrwt>
<rscale>  0 0.10002994E+04</rscale>
<asrwt>0</asrwt>
<pdfrwt beam="1">  1        2 0.35423868E+00 0.10002994E+04</pdfrwt>
<pdfrwt beam="2">  1       -2 0.16713884E-01 0.10002994E+04</pdfrwt>
<totfact> 0.15233776E+02</totfact>
</mgrwt>
</event>
<event>
 9    1  0.4307774E-036  0.9958727E+03  0.7818608E-02  0.8684978E-01
         -2   -1    0    0    0  501 -0.00000000000E+00  0.00000000000E+00  0.10972413251E+03  0.10972413251E+03  0.00000000000E+00 0.  1.
          2   -1    0    0  501    0  0.00000000000E+00 -0.00000000000E+00 -0.22596726234E+04  0.22596726234E+04  0.00000000000E+00 0.  1.
         36    2    1    2    0    0  0.14210854715E-13 -0.28421709430E-13 -0.21499484909E+04  0.23693967559E+04  0.99587271948E+03 0.  0.
         25    2    3    3    0    0  0.39166384224E+02 -0.11124408573E+03 -0.23999935554E+03  0.29529089499E+03  0.12525082732E+03 0.  0.
         35    2    3    3    0    0 -0.39166384224E+02  0.11124408573E+03 -0.19099491353E+04  0.20741058609E+04  0.80006260403E+03 0.  0.
         22    1    5    5    0    0 -0.18638194467E+03  0.41600730598E+03 -0.89836201142E+03  0.10073999263E+04  0.00000000000E+00 0.  1.
         22    1    5    5    0    0  0.14721556045E+03 -0.30476322024E+03 -0.10115871239E+04  0.10667059346E+04  0.00000000000E+00 0.  1.
          5    1    4    4  502    0  0.69387381977E+01  0.27889429611E+02 -0.38883225170E+02  0.48579435684E+02  0.47000000000E+01 0. -1.
         -5    1    4    4    0  502  0.32227646026E+02 -0.13913351534E+03 -0.20111613037E+03  0.24671145931E+03  0.47000000000E+01 0. -1.
<mgrwt>
<rscale>  0 0.99587272E+03</rscale>
<asrwt>0</asrwt>
<pdfrwt beam="1">  1        2 0.34764194E+00 0.99587272E+03</pdfrwt>
<pdfrwt beam="2">  1       -2 0.16880636E-01 0.99587272E+03</pdfrwt>
<totfact> 0.15875542E+02</totfact>
</mgrwt>
</event>
<event>
 9    1  0.4307774E-036  0.9998451E+03  0.7818608E-02  0.8681185E-01
         -2   -1    0    0    0  501 -0.00000000000E+00  0.00000000000E+00  0.22198953479E+03  0.22198953479E+03  0.00000000000E+00 0. -1.
          2   -1    0    0  501    0  0.00000000000E+00 -0.00000000000E+00 -0.11258304324E+04  0.11258304324E+04  0.00000000000E+00 0. -1.
         36    2    1    2    0    0  0.00000000000E+00  0.14210854715E-13 -0.90384089759E+03  0.13478199672E+04  0.99984513589E+03 0.  0.
         25    2    3    3    0    0  0.94872275569E+02 -0.43890531134E+02 -0.29291626373E+03  0.33544132588E+03  0.12567345844E+03 0.  0.
         35    2    3    3    0    0 -0.94872275569E+02  0.43890531134E+02 -0.61092463385E+03  0.10123786413E+04  0.80047140967E+03 0.  0.
         22    1    5    5    0    0 -0.59049249289E+02  0.39704488422E+03 -0.14534178626E+03  0.42691414682E+03  0.00000000000E+00 0. -1.
         22    1    5    5    0    0 -0.35823026280E+02 -0.35315435308E+03 -0.46558284760E+03  0.58546449447E+03  0.00000000000E+00 0. -1.
          5    1    4    4  502    0  0.86123618826E+02  0.27375332299E+02 -0.18154123832E+03  0.20284476269E+03  0.47000000000E+01 0.  1.
         -5    1    4    4    0  502  0.87486567430E+01 -0.71265863434E+02 -0.11137502541E+03  0.13259656319E+03  0.47000000000E+01 0.  1.
<mgrwt>
<rscale>  0 0.99984514E+03</rscale>
<asrwt>0</asrwt>
<pdfrwt beam="1">  1        2 0.17320468E+00 0.99984514E+03</pdfrwt>
<pdfrwt beam="2">  1       -2 0.34152236E-01 0.99984514E+03</pdfrwt>
<totfact> 0.20338935E+02</totfact>
</mgrwt>
</event>
<event>
 9    1  0.4307774E-036  0.9992592E+03  0.7818608E-02  0.8681744E-01
          2   -1    0    0  501    0  0.00000000000E+00  0.00000000000E+00  0.75609831617E+03  0.75609831617E+03  0.00000000000E+00 0. -1.
         -2   -1    0    0    0  501 -0.00000000000E+00 -0.00000000000E+00 -0.33015513464E+03  0.33015513464E+03  0.00000000000E+00 0. -1.
         36    2    1    2    0    0  0.24868995752E-13 -0.28421709430E-13  0.42594318152E+03  0.10862534508E+04  0.99925920837E+03 0.  0.
         25    2    3    3    0    0  0.17987193595E+02 -0.13854892033E+03  0.97441948244E+02  0.20967287047E+03  0.12226380035E+03 0.  0.
         35    2    3    3    0    0 -0.17987193595E+02  0.13854892033E+03  0.32850123328E+03  0.87658058034E+03  0.80060046909E+03 0.  0.
         22    1    5    5    0    0  0.23926663680E+03  0.30107315154E+03 -0.53417436166E+02  0.38826149506E+03  0.00000000000E+00 0. -1.
         22    1    5    5    0    0 -0.25725383039E+03 -0.16252423121E+03  0.38191866944E+03  0.48831908528E+03  0.00000000000E+00 0. -1.
          5    1    4    4  502    0  0.39634874121E+02 -0.51175300200E+02 -0.13947661868E+02  0.66381186105E+02  0.47000000000E+01 0. -1.
         -5    1    4    4    0  502 -0.21647680526E+02 -0.87373620131E+02  0.11138961011E+03  0.14329168436E+03  0.47000000000E+01 0. -1.
<mgrwt>
<rscale>  0 0.99925921E+03</rscale>
<asrwt>0</asrwt>
<pdfrwt beam="1">  1        2 0.11632282E+00 0.99925921E+03</pdfrwt>
<pdfrwt beam="2">  1       -2 0.50793098E-01 0.99925921E+03</pdfrwt>
<totfact> 0.16457367E+02</totfact>
</mgrwt>
</event>
<event>
 9    1  0.4307774E-036  0.9998809E+03  0.7818608E-02  0.8681151E-01
          2   -1    0    0  501    0  0.00000000000E+00  0.00000000000E+00  0.38857395792E+03  0.38857395792E+03  0.00000000000E+00 0. -1.
         -2   -1    0    0    0  501 -0.00000000000E+00 -0.00000000000E+00 -0.64322496608E+03  0.64322496608E+03  0.00000000000E+00 0. -1.
         36    2    1    2    0    0 -0.28421709430E-13  0.28421709430E-13 -0.25465100816E+03  0.10317989240E+04  0.99988093472E+03 0.  0.
         25    2    3    3    0    0 -0.12476042609E+03  0.41398149457E+02  0.49337169868E+01  0.18086867769E+03  0.12413769093E+03 0.  0.
         35    2    3    3    0    0  0.12476042609E+03 -0.41398149457E+02 -0.25958472515E+03  0.85093024632E+03  0.79963684499E+03 0.  0.
         22    1    5    5    0    0 -0.17875188323E+03  0.27436775229E+03  0.25320680831E+02  0.32843726362E+03  0.00000000000E+00 0. -1.
         22    1    5    5    0    0  0.30351230931E+03 -0.31576590175E+03 -0.28490540598E+03  0.52249298270E+03  0.00000000000E+00 0. -1.
          5    1    4    4  502    0 -0.95775533038E+02  0.75451383516E+01 -0.51260458439E+02  0.10899360734E+03  0.47000000000E+01 0.  1.
         -5    1    4    4    0  502 -0.28984893048E+02  0.33853011105E+02  0.56194175426E+02  0.71875070349E+02  0.47000000000E+01 0.  1.
<mgrwt>
<rscale>  0 0.99988093E+03</rscale>
<asrwt>0</asrwt>
<pdfrwt beam="1">  1        2 0.59780610E-01 0.99988093E+03</pdfrwt>
<pdfrwt beam="2">  1       -2 0.98957686E-01 0.99988093E+03</pdfrwt>
<totfact> 0.82711529E+01</totfact>
</mgrwt>
</event>
<event>
 9    1  0.4307774E-036  0.9995797E+03  0.7818608E-02  0.8681438E-01
          2   -1    0    0  501    0  0.00000000000E+00  0.00000000000E+00  0.76466134642E+03  0.76466134642E+03  0.00000000000E+00 0. -1.
         -2   -1    0    0    0  501 -0.00000000000E+00 -0.00000000000E+00 -0.32666736764E+03  0.32666736764E+03  0.00000000000E+00 0. -1.
         36    2    1    2    0    0  0.28421709430E-13 -0.42632564146E-13  0.43799397878E+03  0.10913287141E+04  0.99957973003E+03 0.  0.
         25    2    3    3    0    0  0.12551513665E+03  0.56157216818E+02  0.12153050872E+03  0.22230684080E+03  0.12547105001E+03 0.  0.
         35    2    3    3    0    0 -0.12551513665E+03 -0.56157216818E+02  0.31646347006E+03  0.86902187325E+03  0.79758523418E+03 0.  0.
         22    1    5    5    0    0 -0.25388801512E+03 -0.33840663113E+03 -0.40394815842E+01  0.42307740382E+03  0.00000000000E+00 0. -1.
         22    1    5    5    0    0  0.12837287847E+03  0.28224941431E+03  0.32050295165E+03  0.44594446943E+03  0.00000000000E+00 0. -1.
          5    1    4    4  502    0  0.14001208186E+03  0.22026443996E+02  0.11850102665E+03  0.18480565635E+03  0.47000000000E+01 0.  1.
         -5    1    4    4    0  502 -0.14496945207E+02  0.34130772822E+02  0.30294820614E+01  0.37501184452E+02  0.47000000000E+01 0.  1.
<mgrwt>
<rscale>  0 0.99957973E+03</rscale>
<asrwt>0</asrwt>
<pdfrwt beam="1">  1        2 0.11764021E+00 0.99957973E+03</pdfrwt>
<pdfrwt beam="2">  1       -2 0.50256519E-01 0.99957973E+03</pdfrwt>
<totfact> 0.16573636E+02</totfact>
</mgrwt>
</event>
<event>
 9    1  0.4307774E-036  0.9998427E+03  0.7818608E-02  0.8681188E-01
          2   -1    0    0  501    0  0.00000000000E+00  0.00000000000E+00  0.19663120866E+04  0.19663120866E+04  0.00000000000E+00 0.  1.
         -2   -1    0    0    0  501 -0.00000000000E+00 -0.00000000000E+00 -0.12710155876E+03  0.12710155876E+03  0.00000000000E+00 0.  1.
         36    2    1    2    0    0 -0.14210854715E-13 -0.14210854715E-13  0.18392105278E+04  0.20934136453E+04  0.99984265003E+03 0.  0.
         25    2    3    3    0    0  0.95446562749E+02  0.24045075581E+02  0.55411228736E+03  0.57653643409E+03  0.12516237782E+03 0.  0.
         35    2    3    3    0    0 -0.95446562749E+02 -0.24045075581E+02  0.12850982404E+04  0.15168772112E+04  0.79984421881E+03 0.  0.
         22    1    5    5    0    0  0.16268026938E+03 -0.34897645096E+03  0.52757527140E+03  0.65313482556E+03  0.00000000000E+00 0.  1.
         22    1    5    5    0    0 -0.25812683213E+03  0.32493137538E+03  0.75752296904E+03  0.86374238566E+03  0.00000000000E+00 0.  1.
          5    1    4    4  502    0  0.30839648723E+02  0.49506527375E+02  0.43229351493E+03  0.43623589173E+03  0.47000000000E+01 0.  1.
         -5    1    4    4    0  502  0.64606914025E+02 -0.25461451794E+02  0.12181877244E+03  0.14030054236E+03  0.47000000000E+01 0.  1.
<mgrwt>
<rscale>  0 0.99984265E+03</rscale>
<asrwt>0</asrwt>
<pdfrwt beam="1">  1        2 0.30250953E+00 0.99984265E+03</pdfrwt>
<pdfrwt beam="2">  1       -2 0.19554087E-01 0.99984265E+03</pdfrwt>
<totfact> 0.18215766E+02</totfact>
</mgrwt>
</event>
<event>
 9    1  0.4307774E-036  0.9995187E+03  0.7818608E-02  0.8681496E-01
         -2   -1    0    0    0  501 -0.00000000000E+00  0.00000000000E+00  0.29189410344E+03  0.29189410344E+03  0.00000000000E+00 0.  1.
          2   -1    0    0  501    0  0.00000000000E+00 -0.00000000000E+00 -0.85565072756E+03  0.85565072756E+03  0.00000000000E+00 0.  1.
         36    2    1    2    0    0  0.00000000000E+00 -0.39079850467E-13 -0.56375662413E+03  0.11475448310E+04  0.99951868812E+03 0.  0.
         25    2    3    3    0    0 -0.68544092081E+02 -0.31339473559E+02  0.28685735126E+02  0.14896556220E+03  0.12524939984E+03 0.  0.
         35    2    3    3    0    0  0.68544092081E+02  0.31339473559E+02 -0.59244235925E+03  0.99857926880E+03  0.80030753581E+03 0.  0.
         22    1    5    5    0    0  0.50295779165E+02  0.35932299719E+03 -0.56164730716E+03  0.66864817307E+03  0.00000000000E+00 0.  1.
         22    1    5    5    0    0  0.18248312917E+02 -0.32798352363E+03 -0.30795052092E+02  0.32993109573E+03  0.00000000000E+00 0.  1.
          5    1    4    4  502    0  0.93925504743E+01 -0.25768909613E+02 -0.37335023078E+02  0.46564478471E+02  0.47000000000E+01 0.  1.
         -5    1    4    4    0  502 -0.77936642555E+02 -0.55705639460E+01  0.66020758204E+02  0.10240108373E+03  0.47000000000E+01 0.  1.
<mgrwt>
<rscale>  0 0.99951869E+03</rscale>
<asrwt>0</asrwt>
<pdfrwt beam="1">  1        2 0.13163857E+00 0.99951869E+03</pdfrwt>
<pdfrwt beam="2">  1       -2 0.44906785E-01 0.99951869E+03</pdfrwt>
<totfact> 0.17897412E+02</totfact>
</mgrwt>
</event>
<event>
 9    1  0.4307774E-036  0.9993563E+03  0.7818608E-02  0.8681651E-01
         -2   -1    0    0    0  501 -0.00000000000E+00  0.00000000000E+00  0.15182431585E+03  0.15182431585E+03  0.00000000000E+00 0.  1.
          2   -1    0    0  501    0  0.00000000000E+00 -0.00000000000E+00 -0.16445206912E+04  0.16445206912E+04  0.00000000000E+00 0.  1.
         36    2    1    2    0    0 -0.21316282073E-13  0.28421709430E-13 -0.14926963754E+04  0.17963450071E+04  0.99935625048E+03 0.  0.
         25    2    3    3    0    0 -0.18823988086E+02  0.13761408167E+03 -0.25487420732E+03  0.31573111482E+03  0.12423082270E+03 0.  0.
         35    2    3    3    0    0  0.18823988086E+02 -0.13761408167E+03 -0.12378221681E+04  0.14806138923E+04  0.80045099800E+03 0.  0.
         22    1    5    5    0    0 -0.27689723496E+03 -0.25620358422E+03 -0.10382408558E+04  0.11046521760E+04  0.00000000000E+00 0. -1.
         22    1    5    5    0    0  0.29572122305E+03  0.11858950255E+03 -0.19958131225E+03  0.37596171624E+03  0.00000000000E+00 0. -1.
          5    1    4    4  502    0  0.44410848887E+02  0.43073694086E+02 -0.14411223778E+03  0.15690154142E+03  0.47000000000E+01 0. -1.
         -5    1    4    4    0  502 -0.63234836974E+02  0.94540387583E+02 -0.11076196953E+03  0.15882957340E+03  0.47000000000E+01 0. -1.
<mgrwt>
<rscale>  0 0.99935625E+03</rscale>
<asrwt>0</asrwt>
<pdfrwt beam="1">  1        2 0.25300319E+00 0.99935625E+03</pdfrwt>
<pdfrwt beam="2">  1       -2 0.23357586E-01 0.99935625E+03</pdfrwt>
<totfact> 0.20309481E+02</totfact>
</mgrwt>
</event>
<event>
 9    1  0.4307774E-036  0.1000115E+04  0.7818608E-02  0.8680929E-01
         -2   -1    0    0    0  501 -0.00000000000E+00  0.00000000000E+00  0.26043003362E+03  0.26043003362E+03  0.00000000000E+00 0. -1.
          2   -1    0    0  501    0  0.00000000000E+00 -0.00000000000E+00 -0.96017134685E+03  0.96017134685E+03  0.00000000000E+00 0. -1.
         36    2    1    2    0    0 -0.14210854715E-13  0.14210854715E-13 -0.69974131323E+03  0.12206013805E+04  0.10001149057E+04 0.  0.
         25    2    3    3    0    0 -0.39686235259E+02 -0.94842657949E+02 -0.24737864971E+03  0.29564561885E+03  0.12506001991E+03 0.  0.
         35    2    3    3    0    0  0.39686235259E+02  0.94842657949E+02 -0.45236266352E+03  0.92495576162E+03  0.80021313071E+03 0.  0.
         22    1    5    5    0    0 -0.37469643458E+03  0.51772881566E+02 -0.13647283426E+03  0.40212272237E+03  0.00000000000E+00 0. -1.
         22    1    5    5    0    0  0.41438266984E+03  0.43069776383E+02 -0.31588982927E+03  0.52283303925E+03  0.00000000000E+00 0. -1.
          5    1    4    4  502    0  0.20234518056E+02  0.83098292563E+01 -0.16305359014E+01  0.22432958578E+02  0.47000000000E+01 0.  1.
         -5    1    4    4    0  502 -0.59920753315E+02 -0.10315248721E+03 -0.24574811381E+03  0.27321266027E+03  0.47000000000E+01 0.  1.
<mgrwt>
<rscale>  0 0.10001149E+04</rscale>
<asrwt>0</asrwt>
<pdfrwt beam="1">  1        2 0.14771867E+00 0.10001149E+04</pdfrwt>
<pdfrwt beam="2">  1       -2 0.40066159E-01 0.10001149E+04</pdfrwt>
<totfact> 0.19057341E+02</totfact>
</mgrwt>
</event>
<event>
 9    1  0.4307774E-036  0.1000252E+04  0.7818608E-02  0.8680798E-01
          1   -1    0    0  501    0  0.00000000000E+00  0.00000000000E+00  0.36506232308E+03  0.36506232308E+03  0.00000000000E+00 0. -1.
         -1   -1    0    0    0  501 -0.00000000000E+00 -0.00000000000E+00 -0.68515919375E+03  0.68515919375E+03  0.00000000000E+00 0. -1.
         36    2    1    2    0    0  0.00000000000E+00  0.71054273576E-14 -0.32009687067E+03  0.10502215168E+04  0.10002515822E+04 0.  0.
         25    2    3    3    0    0  0.92611655761E+02 -0.54091130091E+02  0.34176600479E+02  0.16819330097E+03  0.12497270636E+03 0.  0.
         35    2    3    3    0    0 -0.92611655761E+02  0.54091130091E+02 -0.35427347115E+03  0.88202821585E+03  0.80060059460E+03 0.  0.
         22    1    5    5    0    0  0.12787457787E+03  0.19886883239E+02  0.22594813654E+03  0.26038424721E+03  0.00000000000E+00 0.  1.
         22    1    5    5    0    0 -0.22048623363E+03  0.34204246852E+02 -0.58022160769E+03  0.62164396864E+03  0.00000000000E+00 0.  1.
          5    1    4    4  502    0  0.67170629891E+02 -0.18084451536E+02 -0.41024200910E+02  0.80895092358E+02  0.47000000000E+01 0. -1.
         -5    1    4    4    0  502  0.25441025870E+02 -0.36006678555E+02  0.75200801388E+02  0.87298208614E+02  0.47000000000E+01 0. -1.
<mgrwt>
<rscale>  0 0.10002516E+04</rscale>
<asrwt>0</asrwt>
<pdfrwt beam="1">  1        1 0.56163435E-01 0.10002516E+04</pdfrwt>
<pdfrwt beam="2">  1       -1 0.10540911E+00 0.10002516E+04</pdfrwt>
<totfact> 0.68640788E+01</totfact>
</mgrwt>
</event>
<event>
 9    1  0.4307774E-036  0.9995603E+03  0.7818608E-02  0.8681457E-01
         -2   -1    0    0    0  501 -0.00000000000E+00  0.00000000000E+00  0.19202046622E+03  0.19202046622E+03  0.00000000000E+00 0.  1.
          2   -1    0    0  501    0  0.00000000000E+00 -0.00000000000E+00 -0.13007998857E+04  0.13007998857E+04  0.00000000000E+00 0.  1.
         36    2    1    2    0    0  0.17763568394E-13  0.28421709430E-13 -0.11087794195E+04  0.14928203519E+04  0.99956030435E+03 0.  0.
         25    2    3    3    0    0 -0.28501959944E+02  0.11905774422E+03 -0.30224314290E+03  0.34916190291E+03  0.12480388149E+03 0.  0.
         35    2    3    3    0    0  0.28501959944E+02 -0.11905774422E+03 -0.80653627656E+03  0.11436584490E+04  0.80154025124E+03 0.  0.
         22    1    5    5    0    0 -0.31326281654E+03 -0.22220400124E+03 -0.18363509116E+03  0.42571123675E+03  0.00000000000E+00 0. -1.
         22    1    5    5    0    0  0.34176477648E+03  0.10314625702E+03 -0.62290118540E+03  0.71794721223E+03  0.00000000000E+00 0. -1.
          5    1    4    4  502    0 -0.49779737642E+02  0.13739429131E+03 -0.24775798720E+03  0.28768267898E+03  0.47000000000E+01 0. -1.
         -5    1    4    4    0  502  0.21277777698E+02 -0.18336547095E+02 -0.54485155706E+02  0.61479223934E+02  0.47000000000E+01 0. -1.
<mgrwt>
<rscale>  0 0.99956030E+03</rscale>
<asrwt>0</asrwt>
<pdfrwt beam="1">  1        2 0.20012307E+00 0.99956030E+03</pdfrwt>
<pdfrwt beam="2">  1       -2 0.29541609E-01 0.99956030E+03</pdfrwt>
<totfact> 0.20935699E+02</totfact>
</mgrwt>
</event>
<event>
 9    1  0.4307774E-036  0.1000197E+04  0.7818608E-02  0.8680851E-01
          2   -1    0    0  501    0  0.00000000000E+00  0.00000000000E+00  0.18946443879E+04  0.18946443879E+04  0.00000000000E+00 0.  1.
         -2   -1    0    0    0  501 -0.00000000000E+00 -0.00000000000E+00 -0.13200278401E+03  0.13200278401E+03  0.00000000000E+00 0.  1.
         36    2    1    2    0    0  0.00000000000E+00  0.00000000000E+00  0.17626416039E+04  0.20266471719E+04  0.10001966485E+04 0.  0.
         25    2    3    3    0    0  0.18333450035E+02  0.41951219982E+02  0.61397188821E+03  0.62757237308E+03  0.12161243230E+03 0.  0.
         35    2    3    3    0    0 -0.18333450035E+02 -0.41951219982E+02  0.11486697157E+04  0.13990747989E+04  0.79741592457E+03 0.  0.
         22    1    5    5    0    0  0.69984812587E+02 -0.14068656159E+03 -0.70860284278E+02  0.17237100247E+03  0.00000000000E+00 0.  1.
         22    1    5    5    0    0 -0.88318262622E+02  0.98735341609E+02  0.12195300000E+04  0.12267037964E+04  0.00000000000E+00 0.  1.
          5    1    4    4  502    0  0.38138825866E+02 -0.29787268585E+02  0.34670042166E+03  0.35009302162E+03  0.47000000000E+01 0. -1.
         -5    1    4    4    0  502 -0.19805375831E+02  0.71738488567E+02  0.26727146655E+03  0.27747935146E+03  0.47000000000E+01 0. -1.
<mgrwt>
<rscale>  0 0.10001966E+04</rscale>
<asrwt>0</asrwt>
<pdfrwt beam="1">  1        2 0.29148373E+00 0.10001966E+04</pdfrwt>
<pdfrwt beam="2">  1       -2 0.20308122E-01 0.10001966E+04</pdfrwt>
<totfact> 0.18736578E+02</totfact>
</mgrwt>
</event>
<event>
 9    1  0.4307774E-036  0.1001147E+04  0.7818608E-02  0.8679947E-01
         -2   -1    0    0    0  501 -0.00000000000E+00  0.00000000000E+00  0.33747012293E+03  0.33747012293E+03  0.00000000000E+00 0. -1.
          2   -1    0    0  501    0  0.00000000000E+00 -0.00000000000E+00 -0.74250622137E+03  0.74250622137E+03  0.00000000000E+00 0. -1.
         36    2    1    2    0    0  0.14210854715E-13 -0.42632564146E-13 -0.40503609844E+03  0.10799763443E+04  0.10011466742E+04 0.  0.
         25    2    3    3    0    0  0.83240185727E+02  0.88698305496E+02 -0.15537856695E+03  0.23354208133E+03  0.12491231631E+03 0.  0.
         35    2    3    3    0    0 -0.83240185727E+02 -0.88698305496E+02 -0.24965753149E+03  0.84643426297E+03  0.79957848932E+03 0.  0.
         22    1    5    5    0    0  0.97645126359E+02  0.25886637662E+03 -0.34593248778E+03  0.44296236606E+03  0.00000000000E+00 0.  1.
         22    1    5    5    0    0 -0.18088531209E+03 -0.34756468212E+03  0.96274956290E+02  0.40347189691E+03  0.00000000000E+00 0.  1.
          5    1    4    4  502    0  0.12969404056E+02  0.80608501886E+01  0.21499013238E+02  0.26785823070E+02  0.47000000000E+01 0. -1.
         -5    1    4    4    0  502  0.70270781672E+02  0.80637455307E+02 -0.17687758019E+03  0.20675625826E+03  0.47000000000E+01 0. -1.
<mgrwt>
<rscale>  0 0.10011467E+04</rscale>
<asrwt>0</asrwt>
<pdfrwt beam="1">  1        2 0.11423172E+00 0.10011467E+04</pdfrwt>
<pdfrwt beam="2">  1       -2 0.51918481E-01 0.10011467E+04</pdfrwt>
<totfact> 0.16109910E+02</totfact>
</mgrwt>
</event>
<event>
 9    1  0.4307774E-036  0.1000155E+04  0.7818608E-02  0.8680891E-01
         -2   -1    0    0    0  501 -0.00000000000E+00  0.00000000000E+00  0.43717642768E+03  0.43717642768E+03  0.00000000000E+00 0.  1.
          2   -1    0    0  501    0  0.00000000000E+00 -0.00000000000E+00 -0.57202851074E+03  0.57202851074E+03  0.00000000000E+00 0.  1.
         36    2    1    2    0    0 -0.14210854715E-13  0.00000000000E+00 -0.13485208306E+03  0.10092049384E+04  0.10001547497E+04 0.  0.
         25    2    3    3    0    0 -0.99823481733E+02  0.23292769398E+02  0.72302202579E+02  0.17670065342E+03  0.12445172482E+03 0.  0.
         35    2    3    3    0    0  0.99823481733E+02 -0.23292769398E+02 -0.20715428564E+03  0.83250428499E+03  0.79977697257E+03 0.  0.
         22    1    5    5    0    0  0.17412464506E+02  0.26064129031E+03  0.20023676468E+03  0.32913802281E+03  0.00000000000E+00 0. -1.
         22    1    5    5    0    0  0.82411017227E+02 -0.28393405970E+03 -0.40739105032E+03  0.50336626218E+03  0.00000000000E+00 0. -1.
          5    1    4    4  502    0 -0.74380891519E+02  0.38269469009E+02  0.10372140638E+03  0.13333150199E+03  0.47000000000E+01 0. -1.
         -5    1    4    4    0  502 -0.25442590214E+02 -0.14976699612E+02 -0.31419203806E+02  0.43369151431E+02  0.47000000000E+01 0. -1.
<mgrwt>
<rscale>  0 0.10001547E+04</rscale>
<asrwt>0</asrwt>
<pdfrwt beam="1">  1        2 0.88004386E-01 0.10001547E+04</pdfrwt>
<pdfrwt beam="2">  1       -2 0.67257912E-01 0.10001547E+04</pdfrwt>
<totfact> 0.12888292E+02</totfact>
</mgrwt>
</event>
<event>
 9    1  0.4307774E-036  0.1000016E+04  0.7818608E-02  0.8681023E-01
          1   -1    0    0  501    0  0.00000000000E+00  0.00000000000E+00  0.15233567806E+04  0.15233567806E+04  0.00000000000E+00 0.  1.
         -1   -1    0    0    0  501 -0.00000000000E+00 -0.00000000000E+00 -0.16411651876E+03  0.16411651876E+03  0.00000000000E+00 0.  1.
         36    2    1    2    0    0  0.49737991503E-13 -0.14210854715E-13  0.13592402618E+04  0.16874732994E+04  0.10000160232E+04 0.  0.
         25    2    3    3    0    0 -0.56810150668E+02  0.44117965559E+02  0.53318080081E+02  0.15382913044E+03  0.12508715203E+03 0.  0.
         35    2    3    3    0    0  0.56810150668E+02 -0.44117965559E+02  0.13059221817E+04  0.15336441689E+04  0.80091067165E+03 0.  0.
         22    1    5    5    0    0  0.39541248170E+03 -0.55633927773E+02  0.39461799970E+03  0.56139961729E+03  0.00000000000E+00 0.  1.
         22    1    5    5    0    0 -0.33860233103E+03  0.11515962214E+02  0.91130418204E+03  0.97224455163E+03  0.00000000000E+00 0.  1.
          5    1    4    4  502    0 -0.44225189741E+02  0.33991978257E+02  0.94224958128E+02  0.10959815111E+03  0.47000000000E+01 0. -1.
         -5    1    4    4    0  502 -0.12584960927E+02  0.10125987303E+02 -0.40906878047E+02  0.44230979324E+02  0.47000000000E+01 0. -1.
<mgrwt>
<rscale>  0 0.10000160E+04</rscale>
<asrwt>0</asrwt>
<pdfrwt beam="1">  1        1 0.23436257E+00 0.10000160E+04</pdfrwt>
<pdfrwt beam="2">  1       -1 0.25248696E-01 0.10000160E+04</pdfrwt>
<totfact> 0.93551372E+01</totfact>
</mgrwt>
</event>
<event>
 9    1  0.4307774E-036  0.1000068E+04  0.7818608E-02  0.8680974E-01
          2   -1    0    0  501    0  0.00000000000E+00  0.00000000000E+00  0.35005633679E+03  0.35005633679E+03  0.00000000000E+00 0. -1.
         -2   -1    0    0    0  501 -0.00000000000E+00 -0.00000000000E+00 -0.71426720374E+03  0.71426720374E+03  0.00000000000E+00 0. -1.
         36    2    1    2    0    0  0.17763568394E-13  0.00000000000E+00 -0.36421086695E+03  0.10643235405E+04  0.10000675194E+04 0.  0.
         25    2    3    3    0    0 -0.23381077769E+01 -0.13582081643E+03 -0.29239163787E+02  0.18662910570E+03  0.12459026234E+03 0.  0.
         35    2    3    3    0    0  0.23381077769E+01  0.13582081643E+03 -0.33497170316E+03  0.87769443484E+03  0.79980542516E+03 0.  0.
         22    1    5    5    0    0 -0.27062395489E+03  0.23117491060E+03 -0.44367836169E+03  0.56879667095E+03  0.00000000000E+00 0.  1.
         22    1    5    5    0    0  0.27296206267E+03 -0.95354094175E+02  0.10870665853E+03  0.30889776389E+03  0.00000000000E+00 0.  1.
          5    1    4    4  502    0  0.21387924213E+02 -0.14552796007E+03 -0.47685702281E+02  0.15469921353E+03  0.47000000000E+01 0.  1.
         -5    1    4    4    0  502 -0.23726031990E+02  0.97071436388E+01  0.18446538494E+02  0.31929892170E+02  0.47000000000E+01 0.  1.
<mgrwt>
<rscale>  0 0.10000675E+04</rscale>
<asrwt>0</asrwt>
<pdfrwt beam="1">  1        2 0.53854821E-01 0.10000675E+04</pdfrwt>
<pdfrwt beam="2">  1       -2 0.10988726E+00 0.10000675E+04</pdfrwt>
<totfact> 0.71723982E+01</totfact>
</mgrwt>
</event>
<event>
 9    1  0.4307774E-036  0.1001102E+04  0.7818608E-02  0.8679989E-01
         -2   -1    0    0    0  501 -0.00000000000E+00  0.00000000000E+00  0.10925155638E+03  0.10925155638E+03  0.00000000000E+00 0.  1.
          2   -1    0    0  501    0  0.00000000000E+00 -0.00000000000E+00 -0.22933441336E+04  0.22933441336E+04  0.00000000000E+00 0.  1.
         36    2    1    2    0    0 -0.28421709430E-13  0.00000000000E+00 -0.21840925773E+04  0.24025956900E+04  0.10011022244E+04 0.  0.
         25    2    3    3    0    0  0.13771461648E+03 -0.25321583868E+02 -0.47712380837E+03  0.51216199946E+03  0.12270406257E+03 0.  0.
         35    2    3    3    0    0 -0.13771461648E+03  0.25321583868E+02 -0.17069687689E+04  0.18904336905E+04  0.80024412665E+03 0.  0.
         22    1    5    5    0    0  0.14689182768E+03 -0.11128568165E+03 -0.33324789527E+02  0.18727587559E+03  0.00000000000E+00 0.  1.
         22    1    5    5    0    0 -0.28460644416E+03  0.13660726552E+03 -0.16736439794E+04  0.17031578150E+04  0.00000000000E+00 0.  1.
          5    1    4    4  502    0  0.14405054368E+02  0.26416276652E+02 -0.21452158126E+02  0.37250642300E+02  0.47000000000E+01 0.  1.
         -5    1    4    4    0  502  0.12330956211E+03 -0.51737860520E+02 -0.45567165025E+03  0.47491135716E+03  0.47000000000E+01 0.  1.
<mgrwt>
<rscale>  0 0.10011022E+04</rscale>
<asrwt>0</asrwt>
<pdfrwt beam="1">  1        2 0.35282217E+00 0.10011022E+04</pdfrwt>
<pdfrwt beam="2">  1       -2 0.16807932E-01 0.10011022E+04</pdfrwt>
<totfact> 0.15279014E+02</totfact>
</mgrwt>
</event>
<event>
 9    1  0.4307774E-036  0.9996104E+03  0.7818608E-02  0.8681409E-01
         -1   -1    0    0    0  501 -0.00000000000E+00  0.00000000000E+00  0.27793481752E+03  0.27793481752E+03  0.00000000000E+00 0. -1.
          1   -1    0    0  501    0  0.00000000000E+00 -0.00000000000E+00 -0.89879078596E+03  0.89879078596E+03  0.00000000000E+00 0. -1.
         36    2    1    2    0    0  0.00000000000E+00 -0.56843418861E-13 -0.62085596844E+03  0.11767256035E+04  0.99961043030E+03 0.  0.
         25    2    3    3    0    0  0.54704304305E+02 -0.12881815341E+03 -0.10686138034E+03  0.21597193414E+03  0.12505136612E+03 0.  0.
         35    2    3    3    0    0 -0.54704304305E+02  0.12881815341E+03 -0.51399458810E+03  0.96075366935E+03  0.79954393189E+03 0.  0.
         22    1    5    5    0    0 -0.20392394115E+03 -0.29238192057E+03 -0.29708630429E+03  0.46403925852E+03  0.00000000000E+00 0. -1.
         22    1    5    5    0    0  0.14921963685E+03  0.42120007398E+03 -0.21690828381E+03  0.49671441083E+03  0.00000000000E+00 0. -1.
          5    1    4    4  502    0  0.17421498982E+02 -0.10696506560E+03 -0.89505941740E+01  0.10884501377E+03  0.47000000000E+01 0.  1.
         -5    1    4    4    0  502  0.37282805324E+02 -0.21853087807E+02 -0.97910786166E+02  0.10712692037E+03  0.47000000000E+01 0.  1.
<mgrwt>
<rscale>  0 0.99961043E+03</rscale>
<asrwt>0</asrwt>
<pdfrwt beam="1">  1        1 0.13827550E+00 0.99961043E+03</pdfrwt>
<pdfrwt beam="2">  1       -1 0.42759203E-01 0.99961043E+03</pdfrwt>
<totfact> 0.11087360E+02</totfact>
</mgrwt>
</event>
<event>
 9    1  0.4307774E-036  0.9995108E+03  0.7818608E-02  0.8681504E-01
          2   -1    0    0  501    0  0.00000000000E+00  0.00000000000E+00  0.11960603151E+04  0.11960603151E+04  0.00000000000E+00 0. -1.
         -2   -1    0    0    0  501 -0.00000000000E+00 -0.00000000000E+00 -0.20881509166E+03  0.20881509166E+03  0.00000000000E+00 0. -1.
         36    2    1    2    0    0 -0.14210854715E-13  0.28421709430E-13  0.98724522346E+03  0.14048754068E+04  0.99951076899E+03 0.  0.
         25    2    3    3    0    0 -0.57058822952E+02  0.64196498735E+02  0.33492851854E+03  0.36781741959E+03  0.12544178686E+03 0.  0.
         35    2    3    3    0    0  0.57058822952E+02 -0.64196498735E+02  0.65231670491E+03  0.10370579872E+04  0.80162041239E+03 0.  0.
         22    1    5    5    0    0  0.15243868779E+03  0.10787080219E+03  0.78031486847E+03  0.80234964789E+03  0.00000000000E+00 0.  1.
         22    1    5    5    0    0 -0.95379864836E+02 -0.17206730093E+03 -0.12799816356E+03  0.23470833931E+03  0.00000000000E+00 0.  1.
          5    1    4    4  502    0  0.12508608721E+02 -0.40124275515E+01 -0.44938887686E+01  0.14657759149E+02  0.47000000000E+01 0. -1.
         -5    1    4    4    0  502 -0.69567431674E+02  0.68208926286E+02  0.33942240731E+03  0.35315966044E+03  0.47000000000E+01 0. -1.
<mgrwt>
<rscale>  0 0.99951077E+03</rscale>
<asrwt>0</asrwt>
<pdfrwt beam="1">  1        2 0.18400927E+00 0.99951077E+03</pdfrwt>
<pdfrwt beam="2">  1       -2 0.32125400E-01 0.99951077E+03</pdfrwt>
<totfact> 0.20680969E+02</totfact>
</mgrwt>
</event>
<event>
 9    1  0.4307774E-036  0.1000498E+04  0.7818608E-02  0.8680564E-01
         -2   -1    0    0    0  501 -0.00000000000E+00  0.00000000000E+00  0.77671136048E+02  0.77671136048E+02  0.00000000000E+00 0. -1.
          2   -1    0    0  501    0  0.00000000000E+00 -0.00000000000E+00 -0.32219036901E+04  0.32219036901E+04  0.00000000000E+00 0. -1.
         36    2    1    2    0    0  0.14210854715E-13  0.14210854715E-13 -0.31442325541E+04  0.32995748262E+04  0.10004977158E+04 0.  0.
         25    2    3    3    0    0  0.12668339226E+03 -0.64882833776E+02 -0.64424268974E+03  0.67067931607E+03  0.12043104964E+03 0.  0.
         35    2    3    3    0    0 -0.12668339226E+03  0.64882833776E+02 -0.24999898643E+04  0.26288955101E+04  0.80055219524E+03 0.  0.
         22    1    5    5    0    0 -0.34839163657E+03 -0.20698056125E+02 -0.47194085572E+03  0.58696960165E+03  0.00000000000E+00 0. -1.
         22    1    5    5    0    0  0.22170824431E+03  0.85580889901E+02 -0.20280490086E+04  0.20419259085E+04  0.00000000000E+00 0. -1.
          5    1    4    4  502    0  0.39718863388E+02 -0.77463359747E+02 -0.43562246583E+03  0.44426026488E+03  0.47000000000E+01 0.  1.
         -5    1    4    4    0  502  0.86964528874E+02  0.12580525971E+02 -0.20862022391E+03  0.22641905119E+03  0.47000000000E+01 0.  1.
<mgrwt>
<rscale>  0 0.10004977E+04</rscale>
<asrwt>0</asrwt>
<pdfrwt beam="1">  1        2 0.49567743E+00 0.10004977E+04</pdfrwt>
<pdfrwt beam="2">  1       -2 0.11949407E-01 0.10004977E+04</pdfrwt>
<totfact> 0.68789968E+01</totfact>
</mgrwt>
</event>
<event>
 9    1  0.4307774E-036  0.9992806E+03  0.7818608E-02  0.8681723E-01
          1   -1    0    0  501    0  0.00000000000E+00  0.00000000000E+00  0.82277738969E+03  0.82277738969E+03  0.00000000000E+00 0. -1.
         -1   -1    0    0    0  501 -0.00000000000E+00 -0.00000000000E+00 -0.30341184751E+03  0.30341184751E+03  0.00000000000E+00 0. -1.
         36    2    1    2    0    0 -0.28421709430E-13  0.28421709430E-13  0.51936554218E+03  0.11261892372E+04  0.99928055699E+03 0.  0.
         25    2    3    3    0    0  0.83102550493E+02 -0.77974387276E+02  0.10399863466E+02  0.17016278963E+03  0.12594117216E+03 0.  0.
         35    2    3    3    0    0 -0.83102550493E+02  0.77974387276E+02  0.50896567871E+03  0.95602644757E+03  0.80122061092E+03 0.  0.
         22    1    5    5    0    0 -0.17328414813E+03 -0.16454062424E+03  0.62747654434E+03  0.67143713534E+03  0.00000000000E+00 0. -1.
         22    1    5    5    0    0  0.90181597640E+02  0.24251501151E+03 -0.11851086562E+03  0.28458931223E+03  0.00000000000E+00 0. -1.
          5    1    4    4  502    0 -0.28509590103E+01 -0.37765361468E+02 -0.45924937231E+02  0.59712145781E+02  0.47000000000E+01 0. -1.
         -5    1    4    4    0  502  0.85953509503E+02 -0.40209025808E+02  0.56324800698E+02  0.11045064385E+03  0.47000000000E+01 0. -1.
<mgrwt>
<rscale>  0 0.99928056E+03</rscale>
<asrwt>0</asrwt>
<pdfrwt beam="1">  1        1 0.12658114E+00 0.99928056E+03</pdfrwt>
<pdfrwt beam="2">  1       -1 0.46678746E-01 0.99928056E+03</pdfrwt>
<totfact> 0.10976894E+02</totfact>
</mgrwt>
</event>
<event>
 9    1  0.4307774E-036  0.1000049E+04  0.7818608E-02  0.8680992E-01
         -2   -1    0    0    0  501 -0.00000000000E+00  0.00000000000E+00  0.18144223922E+04  0.18144223922E+04  0.00000000000E+00 0.  1.
          2   -1    0    0  501    0  0.00000000000E+00 -0.00000000000E+00 -0.13779831715E+03  0.13779831715E+03  0.00000000000E+00 0.  1.
         36    2    1    2    0    0  0.00000000000E+00  0.35527136788E-13  0.16766240751E+04  0.19522207094E+04  0.10000487033E+04 0.  0.
         25    2    3    3    0    0  0.13406015084E+03 -0.35601892283E+02  0.35237126278E+03  0.39875894513E+03  0.12491425346E+03 0.  0.
         35    2    3    3    0    0 -0.13406015084E+03  0.35601892283E+02  0.13242528123E+04  0.15534617642E+04  0.80022392073E+03 0.  0.
         22    1    5    5    0    0 -0.18769395456E+03  0.39514442147E+03  0.84947149213E+03  0.95549461032E+03  0.00000000000E+00 0. -1.
         22    1    5    5    0    0  0.53633803722E+02 -0.35954252919E+03  0.47478132016E+03  0.59796715392E+03  0.00000000000E+00 0. -1.
          5    1    4    4  502    0  0.14731438019E+03 -0.31899917057E+02  0.22686605925E+03  0.27241407849E+03  0.47000000000E+01 0.  1.
         -5    1    4    4    0  502 -0.13254229349E+02 -0.37019752260E+01  0.12550520352E+03  0.12634486664E+03  0.47000000000E+01 0.  1.
<mgrwt>
<rscale>  0 0.10000487E+04</rscale>
<asrwt>0</asrwt>
<pdfrwt beam="1">  1        2 0.21199742E-01 0.10000487E+04</pdfrwt>
<pdfrwt beam="2">  1       -2 0.27914189E+00 0.10000487E+04</pdfrwt>
<totfact> 0.12191174E+01</totfact>
</mgrwt>
</event>
<event>
 9    1  0.4307774E-036  0.1000365E+04  0.7818608E-02  0.8680690E-01
          2   -1    0    0  501    0  0.00000000000E+00  0.00000000000E+00  0.18454132286E+04  0.18454132286E+04  0.00000000000E+00 0.  1.
         -2   -1    0    0    0  501 -0.00000000000E+00 -0.00000000000E+00 -0.13557003738E+03  0.13557003738E+03  0.00000000000E+00 0.  1.
         36    2    1    2    0    0  0.14210854715E-13  0.28421709430E-13  0.17098431912E+04  0.19809832660E+04  0.10003654140E+04 0.  0.
         25    2    3    3    0    0  0.10774360028E+03 -0.90091472578E+02  0.29025459339E+03  0.34573385189E+03  0.12473576284E+03 0.  0.
         35    2    3    3    0    0 -0.10774360028E+03  0.90091472578E+02  0.14195885978E+04  0.16352494141E+04  0.79942710882E+03 0.  0.
         22    1    5    5    0    0 -0.14953470246E+03 -0.22177216613E+03  0.11139166467E+03  0.28974406615E+03  0.00000000000E+00 0. -1.
         22    1    5    5    0    0  0.41791102178E+02  0.31186363871E+03  0.13081969332E+04  0.13455053479E+04  0.00000000000E+00 0. -1.
          5    1    4    4  502    0  0.23148694499E+02 -0.99737338895E+02  0.15366922462E+03  0.18471523874E+03  0.47000000000E+01 0. -1.
         -5    1    4    4    0  502  0.84594905783E+02  0.96458663169E+01  0.13658536877E+03  0.16101861316E+03  0.47000000000E+01 0. -1.
<mgrwt>
<rscale>  0 0.10003654E+04</rscale>
<asrwt>0</asrwt>
<pdfrwt beam="1">  1        2 0.28390971E+00 0.10003654E+04</pdfrwt>
<pdfrwt beam="2">  1       -2 0.20856930E-01 0.10003654E+04</pdfrwt>
<totfact> 0.19073809E+02</totfact>
</mgrwt>
</event>
<event>
 9    1  0.4307774E-036  0.1002180E+04  0.7818608E-02  0.8678964E-01
         -2   -1    0    0    0  501 -0.00000000000E+00  0.00000000000E+00  0.23034165067E+03  0.23034165067E+03  0.00000000000E+00 0.  1.
          2   -1    0    0  501    0  0.00000000000E+00 -0.00000000000E+00 -0.10900826054E+04  0.10900826054E+04  0.00000000000E+00 0.  1.
         36    2    1    2    0    0  0.28421709430E-13 -0.35527136788E-14 -0.85974095469E+03  0.13204242560E+04  0.10021804761E+04 0.  0.
         25    2    3    3    0    0  0.80749545230E+02  0.85930399731E+01 -0.21949287909E+02  0.15922657532E+03  0.13519246154E+03 0.  0.
         35    2    3    3    0    0 -0.80749545230E+02 -0.85930399731E+01 -0.83779166678E+03  0.11611976807E+04  0.79993177670E+03 0.  0.
         22    1    5    5    0    0 -0.38269767151E+03  0.34244970110E+01 -0.15202381843E+03  0.41180150112E+03  0.00000000000E+00 0.  1.
         22    1    5    5    0    0  0.30194812628E+03 -0.12017536984E+02 -0.68576784835E+03  0.74939617959E+03  0.00000000000E+00 0.  1.
          5    1    4    4  502    0  0.30904728435E+02  0.70678959276E+02 -0.34968715130E+01  0.77362365749E+02  0.47000000000E+01 0.  1.
         -5    1    4    4    0  502  0.49844816795E+02 -0.62085919303E+02 -0.18452416396E+02  0.81864209566E+02  0.47000000000E+01 0.  1.
<mgrwt>
<rscale>  0 0.10021805E+04</rscale>
<asrwt>0</asrwt>
<pdfrwt beam="1">  1        2 0.16770502E+00 0.10021805E+04</pdfrwt>
<pdfrwt beam="2">  1       -2 0.35437177E-01 0.10021805E+04</pdfrwt>
<totfact> 0.19954502E+02</totfact>
</mgrwt>
</event>
<event>
 9    1  0.4307774E-036  0.9988193E+03  0.7818608E-02  0.8682163E-01
          2   -1    0    0  501    0  0.00000000000E+00  0.00000000000E+00  0.16393530018E+04  0.16393530018E+04  0.00000000000E+00 0. -1.
         -2   -1    0    0    0  501 -0.00000000000E+00 -0.00000000000E+00 -0.15213927645E+03  0.15213927645E+03  0.00000000000E+00 0. -1.
         36    2    1    2    0    0  0.00000000000E+00 -0.14210854715E-13  0.14872137254E+04  0.17914922783E+04  0.99881926203E+03 0.  0.
         25    2    3    3    0    0  0.79601738690E+02 -0.11713881750E+03  0.32679955410E+03  0.37740269134E+03  0.12480746572E+03 0.  0.
         35    2    3    3    0    0 -0.79601738690E+02  0.11713881750E+03  0.11604141713E+04  0.14140895870E+04  0.79563205796E+03 0.  0.
         22    1    5    5    0    0  0.92629902842E+02 -0.73130850321E+02  0.11512482244E+04  0.11572816832E+04  0.00000000000E+00 0.  1.
         22    1    5    5    0    0 -0.17223164153E+03  0.19026966782E+03  0.91659468940E+01  0.25680790373E+03  0.00000000000E+00 0.  1.
          5    1    4    4  502    0 -0.47095527687E+01 -0.81472051427E+02  0.22997232570E+03  0.24406809632E+03  0.47000000000E+01 0. -1.
         -5    1    4    4    0  502  0.84311291459E+02 -0.35666766070E+02  0.96827228403E+02  0.13333459502E+03  0.47000000000E+01 0. -1.
<mgrwt>
<rscale>  0 0.99881926E+03</rscale>
<asrwt>0</asrwt>
<pdfrwt beam="1">  1        2 0.25220814E+00 0.99881926E+03</pdfrwt>
<pdfrwt beam="2">  1       -2 0.23406044E-01 0.99881926E+03</pdfrwt>
<totfact> 0.20371723E+02</totfact>
</mgrwt>
</event>
<event>
 9    1  0.4307774E-036  0.9996066E+03  0.7818608E-02  0.8681413E-01
         -1   -1    0    0    0  501 -0.00000000000E+00  0.00000000000E+00  0.50676736775E+03  0.50676736775E+03  0.00000000000E+00 0.  1.
          1   -1    0    0  501    0  0.00000000000E+00 -0.00000000000E+00 -0.49293495185E+03  0.49293495185E+03  0.00000000000E+00 0.  1.
         36    2    1    2    0    0  0.28421709430E-13  0.26645352591E-13  0.13832415901E+02  0.99970231960E+03  0.99960661867E+03 0.  0.
         25    2    3    3    0    0  0.94462820845E+02  0.80260982210E+01  0.10435183489E+03  0.18883650553E+03  0.12562753520E+03 0.  0.
         35    2    3    3    0    0 -0.94462820845E+02 -0.80260982210E+01 -0.90519418992E+02  0.81086581407E+03  0.80020119997E+03 0.  0.
         22    1    5    5    0    0 -0.56955521948E+01  0.27414728182E+03 -0.33086811145E+03  0.42972418901E+03  0.00000000000E+00 0.  1.
         22    1    5    5    0    0 -0.88767268651E+02 -0.28217338004E+03  0.24034869246E+03  0.38114162506E+03  0.00000000000E+00 0.  1.
          5    1    4    4  502    0 -0.28046452371E+02  0.74780474614E+01  0.26131085503E+01  0.29520213765E+02  0.47000000000E+01 0.  1.
         -5    1    4    4    0  502  0.12250927322E+03  0.54805075961E+00  0.10173872634E+03  0.15931629176E+03  0.47000000000E+01 0.  1.
<mgrwt>
<rscale>  0 0.99960662E+03</rscale>
<asrwt>0</asrwt>
<pdfrwt beam="1">  1        1 0.75836147E-01 0.99960662E+03</pdfrwt>
<pdfrwt beam="2">  1       -1 0.77964210E-01 0.99960662E+03</pdfrwt>
<totfact> 0.87986909E+01</totfact>
</mgrwt>
</event>
<event>
 9    1  0.4307774E-036  0.9995131E+03  0.7818608E-02  0.8681502E-01
         -2   -1    0    0    0  501 -0.00000000000E+00  0.00000000000E+00  0.44333943967E+03  0.44333943967E+03  0.00000000000E+00 0.  1.
          2   -1    0    0  501    0  0.00000000000E+00 -0.00000000000E+00 -0.56335302680E+03  0.56335302680E+03  0.00000000000E+00 0.  1.
         36    2    1    2    0    0  0.71054273576E-14  0.14210854715E-13 -0.12001358713E+03  0.10066924665E+04  0.99951311194E+03 0.  0.
         25    2    3    3    0    0 -0.46806223278E+02 -0.30736398657E+02  0.11163794411E+03  0.17664477092E+03  0.12491915701E+03 0.  0.
         35    2    3    3    0    0  0.46806223278E+02  0.30736398657E+02 -0.23165153125E+03  0.83004769555E+03  0.79509823054E+03 0.  0.
         22    1    5    5    0    0 -0.88940215341E+02 -0.14104276255E+03  0.25026661231E+03  0.30072711885E+03  0.00000000000E+00 0.  1.
         22    1    5    5    0    0  0.13574643862E+03  0.17177916121E+03 -0.48191814356E+03  0.52932057670E+03  0.00000000000E+00 0.  1.
          5    1    4    4  502    0 -0.65190908514E+02  0.60107252580E+01  0.11777976258E+03  0.13483377116E+03  0.47000000000E+01 0.  1.
         -5    1    4    4    0  502  0.18384685236E+02 -0.36747123915E+02 -0.61418184669E+01  0.41810999765E+02  0.47000000000E+01 0.  1.
<mgrwt>
<rscale>  0 0.99951311E+03</rscale>
<asrwt>0</asrwt>
<pdfrwt beam="1">  1        2 0.86669697E-01 0.99951311E+03</pdfrwt>
<pdfrwt beam="2">  1       -2 0.68206067E-01 0.99951311E+03</pdfrwt>
<totfact> 0.12732023E+02</totfact>
</mgrwt>
</event>
<event>
 9    1  0.4307774E-036  0.1000185E+04  0.7818608E-02  0.8680862E-01
          2   -1    0    0  501    0  0.00000000000E+00  0.00000000000E+00  0.24995964666E+04  0.24995964666E+04  0.00000000000E+00 0. -1.
         -2   -1    0    0    0  501 -0.00000000000E+00 -0.00000000000E+00 -0.10005308784E+03  0.10005308784E+03  0.00000000000E+00 0. -1.
         36    2    1    2    0    0  0.28421709430E-13  0.14210854715E-13  0.23995433788E+04  0.25996495545E+04  0.10001846726E+04 0.  0.
         25    2    3    3    0    0 -0.59070504320E+02 -0.73763420590E+02  0.19670374624E+03  0.25378672261E+03  0.12955682186E+03 0.  0.
         35    2    3    3    0    0  0.59070504320E+02  0.73763420590E+02  0.22028396326E+04  0.23458628319E+04  0.80102410232E+03 0.  0.
         22    1    5    5    0    0  0.37883007919E+03  0.11191373670E+03  0.17249321462E+04  0.17695840817E+04  0.00000000000E+00 0.  1.
         22    1    5    5    0    0 -0.31975957487E+03 -0.38150316111E+02  0.47790748639E+03  0.57627875016E+03  0.00000000000E+00 0.  1.
          5    1    4    4  502    0 -0.75189030224E+02 -0.79945497099E+02  0.80433974466E+02  0.13614840073E+03  0.47000000000E+01 0. -1.
         -5    1    4    4    0  502  0.16118525904E+02  0.61820765087E+01  0.11626977177E+03  0.11763832188E+03  0.47000000000E+01 0. -1.
<mgrwt>
<rscale>  0 0.10001847E+04</rscale>
<asrwt>0</asrwt>
<pdfrwt beam="1">  1        2 0.38455326E+00 0.10001847E+04</pdfrwt>
<pdfrwt beam="2">  1       -2 0.15392785E-01 0.10001847E+04</pdfrwt>
<totfact> 0.13341730E+02</totfact>
</mgrwt>
</event>
<event>
 9    1  0.4307774E-036  0.9955635E+03  0.7818608E-02  0.8685274E-01
          1   -1    0    0  501    0  0.00000000000E+00  0.00000000000E+00  0.12804959412E+04  0.12804959412E+04  0.00000000000E+00 0.  1.
         -1   -1    0    0    0  501 -0.00000000000E+00 -0.00000000000E+00 -0.19350837917E+03  0.19350837917E+03  0.00000000000E+00 0.  1.
         36    2    1    2    0    0  0.00000000000E+00 -0.14210854715E-13  0.10869875620E+04  0.14740043203E+04  0.99556354717E+03 0.  0.
         25    2    3    3    0    0  0.12355888182E+03 -0.49620027539E+02  0.23948513440E+03  0.30168248887E+03  0.12621509452E+03 0.  0.
         35    2    3    3    0    0 -0.12355888182E+03  0.49620027539E+02  0.84750242760E+03  0.11723218315E+04  0.79896756339E+03 0.  0.
         22    1    5    5    0    0 -0.23548940290E+03 -0.21301323777E+03  0.82726689405E+03  0.88611534934E+03  0.00000000000E+00 0.  1.
         22    1    5    5    0    0  0.11193052108E+03  0.26263326531E+03  0.20235533549E+02  0.28620648213E+03  0.00000000000E+00 0.  1.
          5    1    4    4  502    0 -0.15795065260E+02 -0.35677132344E+02  0.81671031527E+02  0.90634371237E+02  0.47000000000E+01 0. -1.
         -5    1    4    4    0  502  0.13935394708E+03 -0.13942895195E+02  0.15781410287E+03  0.21104811763E+03  0.47000000000E+01 0. -1.
<mgrwt>
<rscale>  0 0.99556355E+03</rscale>
<asrwt>0</asrwt>
<pdfrwt beam="1">  1        1 0.19699937E+00 0.99556355E+03</pdfrwt>
<pdfrwt beam="2">  1       -1 0.29770521E-01 0.99556355E+03</pdfrwt>
<totfact> 0.10589006E+02</totfact>
</mgrwt>
</event>
<event>
 9    1  0.4307774E-036  0.9995674E+03  0.7818608E-02  0.8681450E-01
         -1   -1    0    0    0  501 -0.00000000000E+00  0.00000000000E+00  0.25663060367E+03  0.25663060367E+03  0.00000000000E+00 0.  1.
          1   -1    0    0  501    0  0.00000000000E+00 -0.00000000000E+00 -0.97332021574E+03  0.97332021574E+03  0.00000000000E+00 0.  1.
         36    2    1    2    0    0  0.00000000000E+00  0.00000000000E+00 -0.71668961208E+03  0.12299508194E+04  0.99956741549E+03 0.  0.
         25    2    3    3    0    0  0.12549556182E+03 -0.13406338484E+02 -0.20843960074E+03  0.27379170656E+03  0.12484376428E+03 0.  0.
         35    2    3    3    0    0 -0.12549556182E+03  0.13406338484E+02 -0.50825001134E+03  0.95615911285E+03  0.79999581818E+03 0.  0.
         22    1    5    5    0    0 -0.37352983753E+03 -0.13546870044E+03 -0.53414069885E+03  0.66571960651E+03  0.00000000000E+00 0.  1.
         22    1    5    5    0    0  0.24803427571E+03  0.14887503892E+03  0.25890687509E+02  0.29043950634E+03  0.00000000000E+00 0.  1.
          5    1    4    4  502    0  0.34230047031E+02 -0.69267982975E+01  0.10239925916E+02  0.36696358636E+02  0.47000000000E+01 0. -1.
         -5    1    4    4    0  502  0.91265514786E+02 -0.64795401866E+01 -0.21867952666E+03  0.23709534793E+03  0.47000000000E+01 0. -1.
<mgrwt>
<rscale>  0 0.99956742E+03</rscale>
<asrwt>0</asrwt>
<pdfrwt beam="1">  1        1 0.14974157E+00 0.99956742E+03</pdfrwt>
<pdfrwt beam="2">  1       -1 0.39481631E-01 0.99956742E+03</pdfrwt>
<totfact> 0.11112013E+02</totfact>
</mgrwt>
</event>
<event>
 9    1  0.4307774E-036  0.1000122E+04  0.7818608E-02  0.8680922E-01
          1   -1    0    0  501    0  0.00000000000E+00  0.00000000000E+00  0.29588429961E+04  0.29588429961E+04  0.00000000000E+00 0.  1.
         -1   -1    0    0    0  501 -0.00000000000E+00 -0.00000000000E+00 -0.84513077408E+02  0.84513077408E+02  0.00000000000E+00 0.  1.
         36    2    1    2    0    0 -0.14210854715E-13  0.00000000000E+00  0.28743299187E+04  0.30433560735E+04  0.10001218469E+04 0.  0.
         25    2    3    3    0    0  0.50603556149E+02  0.72864082071E+02  0.86759954461E+03  0.88108055221E+03  0.12531590211E+03 0.  0.
         35    2    3    3    0    0 -0.50603556149E+02 -0.72864082071E+02  0.20067303741E+04  0.21622755213E+04  0.80037412590E+03 0.  0.
         22    1    5    5    0    0 -0.12281348148E+03  0.45646860428E+02  0.20187328346E+04  0.20229802383E+04  0.00000000000E+00 0. -1.
         22    1    5    5    0    0  0.72209925328E+02 -0.11851094250E+03 -0.12002460508E+02  0.13929528300E+03  0.00000000000E+00 0. -1.
          5    1    4    4  502    0 -0.40286349733E+01  0.90798484612E+02  0.41787888803E+03  0.42767446705E+03  0.47000000000E+01 0. -1.
         -5    1    4    4    0  502  0.54632191123E+02 -0.17934402540E+02  0.44972065658E+03  0.45340608516E+03  0.47000000000E+01 0. -1.
<mgrwt>
<rscale>  0 0.10001218E+04</rscale>
<asrwt>0</asrwt>
<pdfrwt beam="1">  1        1 0.45520654E+00 0.10001218E+04</pdfrwt>
<pdfrwt beam="2">  1       -1 0.13002014E-01 0.10001218E+04</pdfrwt>
<totfact> 0.26992179E+01</totfact>
</mgrwt>
</event>
<event>
 9    1  0.4307774E-036  0.1000784E+04  0.7818608E-02  0.8680292E-01
          2   -1    0    0  501    0  0.00000000000E+00  0.00000000000E+00  0.10630778099E+04  0.10630778099E+04  0.00000000000E+00 0. -1.
         -2   -1    0    0    0  501 -0.00000000000E+00 -0.00000000000E+00 -0.23553512563E+03  0.23553512563E+03  0.00000000000E+00 0. -1.
         36    2    1    2    0    0  0.71054273576E-14  0.14210854715E-13  0.82754268431E+03  0.12986129356E+04  0.10007840237E+04 0.  0.
         25    2    3    3    0    0  0.45489079665E+02 -0.11076665177E+03  0.24865084475E+03  0.30407219913E+03  0.12764854944E+03 0.  0.
         35    2    3    3    0    0 -0.45489079665E+02  0.11076665177E+03  0.57889183956E+03  0.99454073643E+03  0.79978560064E+03 0.  0.
         22    1    5    5    0    0 -0.28109875925E+03 -0.38516033271E+02 -0.66536624272E+02  0.29142257915E+03  0.00000000000E+00 0.  1.
         22    1    5    5    0    0  0.23560967958E+03  0.14928268504E+03  0.64542846384E+03  0.70311815728E+03  0.00000000000E+00 0.  1.
          5    1    4    4  502    0  0.82316262944E+02 -0.96743485943E+02  0.22340932194E+03  0.25703907163E+03  0.47000000000E+01 0.  1.
         -5    1    4    4    0  502 -0.36827183279E+02 -0.14023165829E+02  0.25241522807E+02  0.47033127493E+02  0.47000000000E+01 0.  1.
<mgrwt>
<rscale>  0 0.10007840E+04</rscale>
<asrwt>0</asrwt>
<pdfrwt beam="1">  1        2 0.16355043E+00 0.10007840E+04</pdfrwt>
<pdfrwt beam="2">  1       -2 0.36236174E-01 0.10007840E+04</pdfrwt>
<totfact> 0.19879448E+02</totfact>
</mgrwt>
</event>
<event>
 9    1  0.4307774E-036  0.9989261E+03  0.7818608E-02  0.8682061E-01
          1   -1    0    0  501    0  0.00000000000E+00  0.00000000000E+00  0.20169306165E+04  0.20169306165E+04  0.00000000000E+00 0.  1.
         -1   -1    0    0    0  501 -0.00000000000E+00 -0.00000000000E+00 -0.12368463417E+03  0.12368463417E+03  0.00000000000E+00 0.  1.
         36    2    1    2    0    0  0.35527136788E-14  0.28421709430E-13  0.18932459823E+04  0.21406152506E+04  0.99892607425E+03 0.  0.
         25    2    3    3    0    0 -0.31966327619E+02  0.13638468257E+03  0.30725065363E+03  0.35951267987E+03  0.12338466313E+03 0.  0.
         35    2    3    3    0    0  0.31966327619E+02 -0.13638468257E+03  0.15859953287E+04  0.17811025708E+04  0.79832484447E+03 0.  0.
         22    1    5    5    0    0 -0.24901378017E+03  0.19749579368E+03  0.10077255041E+04  0.10566565870E+04  0.00000000000E+00 0.  1.
         22    1    5    5    0    0  0.28098010779E+03 -0.33388047625E+03  0.57826982457E+03  0.72444598378E+03  0.00000000000E+00 0.  1.
          5    1    4    4  502    0 -0.55569700874E+02  0.14092867274E+03  0.20847347425E+03  0.25774437321E+03  0.47000000000E+01 0. -1.
         -5    1    4    4    0  502  0.23603373255E+02 -0.45439901691E+01  0.98777179373E+02  0.10176830666E+03  0.47000000000E+01 0. -1.
<mgrwt>
<rscale>  0 0.99892607E+03</rscale>
<asrwt>0</asrwt>
<pdfrwt beam="1">  1        1 0.31029700E+00 0.99892607E+03</pdfrwt>
<pdfrwt beam="2">  1       -1 0.19028407E-01 0.99892607E+03</pdfrwt>
<totfact> 0.67288108E+01</totfact>
</mgrwt>
</event>
<event>
 9    1  0.4307774E-036  0.9997671E+03  0.7818608E-02  0.8681260E-01
         -2   -1    0    0    0  501 -0.00000000000E+00  0.00000000000E+00  0.17847259565E+03  0.17847259565E+03  0.00000000000E+00 0. -1.
          2   -1    0    0  501    0  0.00000000000E+00 -0.00000000000E+00 -0.14001230118E+04  0.14001230118E+04  0.00000000000E+00 0. -1.
         36    2    1    2    0    0 -0.21316282073E-13  0.28421709430E-13 -0.12216504162E+04  0.15785956075E+04  0.99976714919E+03 0.  0.
         25    2    3    3    0    0  0.90254154059E-01 -0.94083814093E+02 -0.39051650710E+03  0.42109557546E+03  0.12635889020E+03 0.  0.
         35    2    3    3    0    0 -0.90254154059E-01  0.94083814093E+02 -0.83113390907E+03  0.11575000320E+04  0.80010685354E+03 0.  0.
         22    1    5    5    0    0 -0.25190423471E+03  0.32561628663E+03 -0.24563134807E+03  0.47939176958E+03  0.00000000000E+00 0.  1.
         22    1    5    5    0    0  0.25181398056E+03 -0.23153247254E+03 -0.58550256100E+03  0.67810826244E+03  0.00000000000E+00 0.  1.
          5    1    4    4  502    0  0.30562167658E+02 -0.10569343664E+03 -0.35897038514E+03  0.37548232454E+03  0.47000000000E+01 0.  1.
         -5    1    4    4    0  502 -0.30471913504E+02  0.11609622542E+02 -0.31546121966E+02  0.45613250918E+02  0.47000000000E+01 0.  1.
<mgrwt>
<rscale>  0 0.99976715E+03</rscale>
<asrwt>0</asrwt>
<pdfrwt beam="1">  1        2 0.21540353E+00 0.99976715E+03</pdfrwt>
<pdfrwt beam="2">  1       -2 0.27457324E-01 0.99976715E+03</pdfrwt>
<totfact> 0.20951451E+02</totfact>
</mgrwt>
</event>
<event>
 9    1  0.4307774E-036  0.1000434E+04  0.7818608E-02  0.8680624E-01
          3   -1    0    0  501    0  0.00000000000E+00  0.00000000000E+00  0.18713227388E+04  0.18713227388E+04  0.00000000000E+00 0. -1.
         -3   -1    0    0    0  501 -0.00000000000E+00 -0.00000000000E+00 -0.13371140721E+03  0.13371140721E+03  0.00000000000E+00 0. -1.
         36    2    1    2    0    0  0.00000000000E+00  0.00000000000E+00  0.17376113316E+04  0.20050341460E+04  0.10004342992E+04 0.  0.
         25    2    3    3    0    0 -0.17359943550E+02 -0.13999446142E+02  0.48472762993E+02  0.13584166805E+03  0.12492396845E+03 0.  0.
         35    2    3    3    0    0  0.17359943550E+02  0.13999446142E+02  0.16891385686E+04  0.18691924779E+04  0.80012128053E+03 0.  0.
         22    1    5    5    0    0 -0.79546092761E+02  0.83217260627E+02  0.17370264071E+04  0.17408369919E+04  0.00000000000E+00 0. -1.
         22    1    5    5    0    0  0.96906036311E+02 -0.69217814485E+02 -0.47887838537E+02  0.12835548604E+03  0.00000000000E+00 0. -1.
          5    1    4    4  502    0  0.20300075032E+00 -0.67433117097E+02  0.12035817566E+02  0.68660158718E+02  0.47000000000E+01 0. -1.
         -5    1    4    4    0  502 -0.17562944301E+02  0.53433670955E+02  0.36436945427E+02  0.67181509333E+02  0.47000000000E+01 0. -1.
<mgrwt>
<rscale>  0 0.10004343E+04</rscale>
<asrwt>0</asrwt>
<pdfrwt beam="1">  1        3 0.28789579E+00 0.10004343E+04</pdfrwt>
<pdfrwt beam="2">  1       -3 0.20570987E-01 0.10004343E+04</pdfrwt>
<totfact> 0.42313089E+00</totfact>
</mgrwt>
</event>
<event>
 9    1  0.4307774E-036  0.1000594E+04  0.7818608E-02  0.8680473E-01
          1   -1    0    0  501    0  0.00000000000E+00  0.00000000000E+00  0.19628158958E+03  0.19628158958E+03  0.00000000000E+00 0. -1.
         -1   -1    0    0    0  501 -0.00000000000E+00 -0.00000000000E+00 -0.12751935874E+04  0.12751935874E+04  0.00000000000E+00 0. -1.
         36    2    1    2    0    0  0.28421709430E-13  0.71054273576E-14 -0.10789119978E+04  0.14714751769E+04  0.10005938723E+04 0.  0.
         25    2    3    3    0    0  0.93403674853E+02 -0.43579467939E+02 -0.34714816050E+03  0.38262845903E+03  0.12356891121E+03 0.  0.
         35    2    3    3    0    0 -0.93403674853E+02  0.43579467939E+02 -0.73176383727E+03  0.10888467179E+04  0.79967833849E+03 0.  0.
         22    1    5    5    0    0 -0.39349835782E+03  0.16699902071E+03 -0.60434011315E+03  0.74024090868E+03  0.00000000000E+00 0.  1.
         22    1    5    5    0    0  0.30009468297E+03 -0.12341955277E+03 -0.12742372412E+03  0.34860580922E+03  0.00000000000E+00 0.  1.
          5    1    4    4  502    0  0.38900553415E+02  0.32138533909E+02 -0.50191542712E+02  0.71326147924E+02  0.47000000000E+01 0. -1.
         -5    1    4    4    0  502  0.54503121438E+02 -0.75718001848E+02 -0.29695661779E+03  0.31130231111E+03  0.47000000000E+01 0. -1.
<mgrwt>
<rscale>  0 0.10005939E+04</rscale>
<asrwt>0</asrwt>
<pdfrwt beam="1">  1        1 0.30197168E-01 0.10005939E+04</pdfrwt>
<pdfrwt beam="2">  1       -1 0.19618363E+00 0.10005939E+04</pdfrwt>
<totfact> 0.25573013E+01</totfact>
</mgrwt>
</event>
<event>
 9    1  0.4307774E-036  0.9998962E+03  0.7818608E-02  0.8681137E-01
         -1   -1    0    0    0  501 -0.00000000000E+00  0.00000000000E+00  0.94311785312E+03  0.94311785312E+03  0.00000000000E+00 0. -1.
          1   -1    0    0  501    0  0.00000000000E+00 -0.00000000000E+00 -0.26502319484E+03  0.26502319484E+03  0.00000000000E+00 0. -1.
         36    2    1    2    0    0  0.14210854715E-13  0.00000000000E+00  0.67809465827E+03  0.12081410480E+04  0.99989620771E+03 0.  0.
         25    2    3    3    0    0  0.71877478959E+02 -0.51014908847E+02  0.25831609220E+03  0.30012632799E+03  0.12481873400E+03 0.  0.
         35    2    3    3    0    0 -0.71877478959E+02  0.51014908847E+02  0.41977856607E+03  0.90801471997E+03  0.80031730847E+03 0.  0.
         22    1    5    5    0    0  0.16442357190E+03  0.15157352997E+03 -0.15928726221E+03  0.27455796817E+03  0.00000000000E+00 0. -1.
         22    1    5    5    0    0 -0.23630105086E+03 -0.10055862112E+03  0.57906582828E+03  0.63345675180E+03  0.00000000000E+00 0. -1.
          5    1    4    4  502    0  0.94570757505E+02 -0.97617940797E+01  0.11546962517E+03  0.14964706858E+03  0.47000000000E+01 0.  1.
         -5    1    4    4    0  502 -0.22693278546E+02 -0.41253114768E+02  0.14284646703E+03  0.15047925941E+03  0.47000000000E+01 0.  1.
<mgrwt>
<rscale>  0 0.99989621E+03</rscale>
<asrwt>0</asrwt>
<pdfrwt beam="1">  1        1 0.40772800E-01 0.99989621E+03</pdfrwt>
<pdfrwt beam="2">  1       -1 0.14509505E+00 0.99989621E+03</pdfrwt>
<totfact> 0.46463499E+01</totfact>
</mgrwt>
</event>
<event>
 9    1  0.4307774E-036  0.9997817E+03  0.7818608E-02  0.8681246E-01
          2   -1    0    0  501    0  0.00000000000E+00  0.00000000000E+00  0.58942283352E+03  0.58942283352E+03  0.00000000000E+00 0.  1.
         -2   -1    0    0    0  501 -0.00000000000E+00 -0.00000000000E+00 -0.42395854282E+03  0.42395854282E+03  0.00000000000E+00 0.  1.
         36    2    1    2    0    0 -0.21316282073E-13  0.00000000000E+00  0.16546429070E+03  0.10133813763E+04  0.99978166737E+03 0.  0.
         25    2    3    3    0    0 -0.28061711277E+02 -0.13214319556E+03  0.61192454732E+02  0.19380833846E+03  0.12477127781E+03 0.  0.
         35    2    3    3    0    0  0.28061711277E+02  0.13214319556E+03  0.10427183597E+03  0.81957303788E+03  0.80160967115E+03 0.  0.
         22    1    5    5    0    0  0.40195956357E+03  0.13096306109E+03  0.13660249695E+03  0.44427812943E+03  0.00000000000E+00 0.  1.
         22    1    5    5    0    0 -0.37389785230E+03  0.11801344748E+01 -0.32330660981E+02  0.37529490845E+03  0.00000000000E+00 0.  1.
          5    1    4    4  502    0 -0.34877989685E+02 -0.55971166502E+02  0.90238024973E+02  0.11186704964E+03  0.47000000000E+01 0.  1.
         -5    1    4    4    0  502  0.68162784087E+01 -0.76172029058E+02 -0.29045570241E+02  0.81941288816E+02  0.47000000000E+01 0.  1.
<mgrwt>
<rscale>  0 0.99978167E+03</rscale>
<asrwt>0</asrwt>
<pdfrwt beam="1">  1        2 0.90680436E-01 0.99978167E+03</pdfrwt>
<pdfrwt beam="2">  1       -2 0.65224391E-01 0.99978167E+03</pdfrwt>
<totfact> 0.13286214E+02</totfact>
</mgrwt>
</event>
<event>
 9    1  0.4307774E-036  0.9992798E+03  0.7818608E-02  0.8681724E-01
         -2   -1    0    0    0  501 -0.00000000000E+00  0.00000000000E+00  0.12345612989E+03  0.12345612989E+03  0.00000000000E+00 0.  1.
          2   -1    0    0  501    0  0.00000000000E+00 -0.00000000000E+00 -0.20220951475E+04  0.20220951475E+04  0.00000000000E+00 0.  1.
         36    2    1    2    0    0 -0.56843418861E-13  0.00000000000E+00 -0.18986390176E+04  0.21455512774E+04  0.99927982302E+03 0.  0.
         25    2    3    3    0    0 -0.84239051815E+02  0.72552190905E+02 -0.53092960563E+03  0.55655265459E+03  0.12451735998E+03 0.  0.
         35    2    3    3    0    0  0.84239051815E+02 -0.72552190905E+02 -0.13677094120E+04  0.15889986228E+04  0.80120381264E+03 0.  0.
         22    1    5    5    0    0 -0.33112506607E+03  0.11457974224E+03 -0.52837816715E+03  0.63399985350E+03  0.00000000000E+00 0. -1.
         22    1    5    5    0    0  0.41536411788E+03 -0.18713193315E+03 -0.83933124484E+03  0.95499876931E+03  0.00000000000E+00 0. -1.
          5    1    4    4  502    0 -0.10444396183E+03  0.44098787493E+02 -0.48805326598E+03  0.50107017937E+03  0.47000000000E+01 0.  1.
         -5    1    4    4    0  502  0.20204910013E+02  0.28453403412E+02 -0.42876339657E+02  0.55482475222E+02  0.47000000000E+01 0.  1.
<mgrwt>
<rscale>  0 0.99927982E+03</rscale>
<asrwt>0</asrwt>
<pdfrwt beam="1">  1        2 0.31109158E+00 0.99927982E+03</pdfrwt>
<pdfrwt beam="2">  1       -2 0.18993250E-01 0.99927982E+03</pdfrwt>
<totfact> 0.17801446E+02</totfact>
</mgrwt>
</event>
<event>
 9    1  0.4307774E-036  0.1000561E+04  0.7818608E-02  0.8680504E-01
          2   -1    0    0  501    0  0.00000000000E+00  0.00000000000E+00  0.39863352201E+03  0.39863352201E+03  0.00000000000E+00 0. -1.
         -2   -1    0    0    0  501 -0.00000000000E+00 -0.00000000000E+00 -0.62784598536E+03  0.62784598536E+03  0.00000000000E+00 0. -1.
         36    2    1    2    0    0 -0.21316282073E-13  0.00000000000E+00 -0.22921246335E+03  0.10264795074E+04  0.10005607556E+04 0.  0.
         25    2    3    3    0    0 -0.29133890045E+02  0.12506757185E+03 -0.11003340422E+03  0.21071503538E+03  0.12570916838E+03 0.  0.
         35    2    3    3    0    0  0.29133890045E+02 -0.12506757185E+03 -0.11917905913E+03  0.81576447199E+03  0.79672915382E+03 0.  0.
         22    1    5    5    0    0  0.37750777248E+03 -0.16808607438E+03 -0.19455050001E+03  0.45674384915E+03  0.00000000000E+00 0.  1.
         22    1    5    5    0    0 -0.34837388244E+03  0.43018502532E+02  0.75371440879E+02  0.35902062284E+03  0.00000000000E+00 0.  1.
          5    1    4    4  502    0  0.20978410040E+02 -0.17264294566E+02 -0.26179748058E+02  0.38021293547E+02  0.47000000000E+01 0.  1.
         -5    1    4    4    0  502 -0.50112300084E+02  0.14233186642E+03 -0.83853656163E+02  0.17269374184E+03  0.47000000000E+01 0.  1.
<mgrwt>
<rscale>  0 0.10005608E+04</rscale>
<asrwt>0</asrwt>
<pdfrwt beam="1">  1        2 0.61328234E-01 0.10005608E+04</pdfrwt>
<pdfrwt beam="2">  1       -2 0.96591690E-01 0.10005608E+04</pdfrwt>
<totfact> 0.85206088E+01</totfact>
</mgrwt>
</event>
<event>
 9    1  0.4307774E-036  0.1000425E+04  0.7818608E-02  0.8680633E-01
         -1   -1    0    0    0  501 -0.00000000000E+00  0.00000000000E+00  0.25476187809E+03  0.25476187809E+03  0.00000000000E+00 0.  1.
          1   -1    0    0  501    0  0.00000000000E+00 -0.00000000000E+00 -0.98214273880E+03  0.98214273880E+03  0.00000000000E+00 0.  1.
         36    2    1    2    0    0  0.00000000000E+00 -0.28421709430E-13 -0.72738086071E+03  0.12369046169E+04  0.10004249671E+04 0.  0.
         25    2    3    3    0    0 -0.59876994993E+02  0.61952969305E+02 -0.33750112137E+01  0.15209412049E+03  0.12529088495E+03 0.  0.
         35    2    3    3    0    0  0.59876994993E+02 -0.61952969305E+02 -0.72400584950E+03  0.10848104964E+04  0.80324710896E+03 0.  0.
         22    1    5    5    0    0  0.12223532893E+03  0.35687393597E+03 -0.26942166506E+03  0.46356069226E+03  0.00000000000E+00 0. -1.
         22    1    5    5    0    0 -0.62358333933E+02 -0.41882690527E+03 -0.45458418444E+03  0.62124980413E+03  0.00000000000E+00 0. -1.
          5    1    4    4  502    0  0.47121782639E+01  0.38498598510E+02  0.51067843538E+02  0.64298999642E+02  0.47000000000E+01 0.  1.
         -5    1    4    4    0  502 -0.64589173257E+02  0.23454370794E+02 -0.54442854752E+02  0.87795120849E+02  0.47000000000E+01 0.  1.
<mgrwt>
<rscale>  0 0.10004250E+04</rscale>
<asrwt>0</asrwt>
<pdfrwt beam="1">  1        1 0.15109889E+00 0.10004250E+04</pdfrwt>
<pdfrwt beam="2">  1       -1 0.39194134E-01 0.10004250E+04</pdfrwt>
<totfact> 0.11074385E+02</totfact>
</mgrwt>
</event>
<event>
 9    1  0.4307774E-036  0.1000176E+04  0.7818608E-02  0.8680870E-01
          1   -1    0    0  501    0  0.00000000000E+00  0.00000000000E+00  0.12384015823E+04  0.12384015823E+04  0.00000000000E+00 0. -1.
         -1   -1    0    0    0  501 -0.00000000000E+00 -0.00000000000E+00 -0.20194417796E+03  0.20194417796E+03  0.00000000000E+00 0. -1.
         36    2    1    2    0    0  0.26645352591E-14  0.28421709430E-13  0.10364574043E+04  0.14403457603E+04  0.10001759636E+04 0.  0.
         25    2    3    3    0    0 -0.16851426345E+01  0.85113923206E+02  0.31426906428E+02  0.15317907169E+03  0.12340566408E+03 0.  0.
         35    2    3    3    0    0  0.16851426345E+01 -0.85113923206E+02  0.10050304979E+04  0.12871666886E+04  0.79966528172E+03 0.  0.
         22    1    5    5    0    0 -0.68176959179E+01  0.28360781799E+03  0.83341369035E+03  0.88037392888E+03  0.00000000000E+00 0. -1.
         22    1    5    5    0    0  0.85028385525E+01 -0.36872174119E+03  0.17161680757E+03  0.40679275969E+03  0.00000000000E+00 0. -1.
          5    1    4    4  502    0 -0.50838135308E+02  0.23847655848E+02  0.46503187784E+02  0.73060681390E+02  0.47000000000E+01 0. -1.
         -5    1    4    4    0  502  0.49152992674E+02  0.61266267358E+02 -0.15076281356E+02  0.80118390301E+02  0.47000000000E+01 0. -1.
<mgrwt>
<rscale>  0 0.10001760E+04</rscale>
<asrwt>0</asrwt>
<pdfrwt beam="1">  1        1 0.19052332E+00 0.10001760E+04</pdfrwt>
<pdfrwt beam="2">  1       -1 0.31068336E-01 0.10001760E+04</pdfrwt>
<totfact> 0.10566036E+02</totfact>
</mgrwt>
</event>
<event>
 9    1  0.4307774E-036  0.9995744E+03  0.7818608E-02  0.8681443E-01
         -2   -1    0    0    0  501 -0.00000000000E+00  0.00000000000E+00  0.68126590414E+03  0.68126590414E+03  0.00000000000E+00 0.  1.
          2   -1    0    0  501    0  0.00000000000E+00 -0.00000000000E+00 -0.36665160381E+03  0.36665160381E+03  0.00000000000E+00 0.  1.
         36    2    1    2    0    0 -0.35527136788E-14  0.00000000000E+00  0.31461430033E+03  0.10479175079E+04  0.99957438217E+03 0.  0.
         25    2    3    3    0    0 -0.28080180553E+02 -0.14044510829E+03  0.60863894965E+02  0.19953777300E+03  0.12489028850E+03 0.  0.
         35    2    3    3    0    0  0.28080180553E+02  0.14044510829E+03  0.25375040536E+03  0.84837973494E+03  0.79677197583E+03 0.  0.
         22    1    5    5    0    0 -0.14402165291E+02 -0.32187809176E+03  0.62558052871E+01  0.32226086237E+03  0.00000000000E+00 0.  1.
         22    1    5    5    0    0  0.42482345844E+02  0.46232320005E+03  0.24749460007E+03  0.52611887257E+03  0.00000000000E+00 0.  1.
          5    1    4    4  502    0 -0.25034846218E+02 -0.95368312452E+02  0.99313907740E+02  0.14002571484E+03  0.47000000000E+01 0.  1.
         -5    1    4    4    0  502 -0.30453343345E+01 -0.45076795841E+02 -0.38450012774E+02  0.59512058163E+02  0.47000000000E+01 0.  1.
<mgrwt>
<rscale>  0 0.99957438E+03</rscale>
<asrwt>0</asrwt>
<pdfrwt beam="1">  1        2 0.56407939E-01 0.99957438E+03</pdfrwt>
<pdfrwt beam="2">  1       -2 0.10481014E+00 0.99957438E+03</pdfrwt>
<totfact> 0.76655596E+01</totfact>
</mgrwt>
</event>
<event>
 9    1  0.4307774E-036  0.1003166E+04  0.7818608E-02  0.8678029E-01
          2   -1    0    0  501    0  0.00000000000E+00  0.00000000000E+00  0.31431017991E+03  0.31431017991E+03  0.00000000000E+00 0.  1.
         -2   -1    0    0    0  501 -0.00000000000E+00 -0.00000000000E+00 -0.80043681226E+03  0.80043681226E+03  0.00000000000E+00 0.  1.
         36    2    1    2    0    0 -0.14210854715E-13  0.00000000000E+00 -0.48612663235E+03  0.11147469922E+04  0.10031658656E+04 0.  0.
         25    2    3    3    0    0  0.11754817238E+03 -0.80747633350E+02 -0.10450121286E+03  0.21656071282E+03  0.12506112797E+03 0.  0.
         35    2    3    3    0    0 -0.11754817238E+03  0.80747633350E+02 -0.38162541949E+03  0.89818627935E+03  0.80047665706E+03 0.  0.
         22    1    5    5    0    0  0.96148194522E+02  0.31752583060E+03 -0.46245698327E+03  0.56915164041E+03  0.00000000000E+00 0. -1.
         22    1    5    5    0    0 -0.21369636690E+03 -0.23677819725E+03  0.80831563786E+02  0.32903463894E+03  0.00000000000E+00 0. -1.
          5    1    4    4  502    0  0.64413637126E+02 -0.88356209315E+02 -0.11807429547E+03  0.16099554535E+03  0.47000000000E+01 0. -1.
         -5    1    4    4    0  502  0.53134535250E+02  0.76085759651E+01  0.13573082609E+02  0.55565167470E+02  0.47000000000E+01 0. -1.
<mgrwt>
<rscale>  0 0.10031659E+04</rscale>
<asrwt>0</asrwt>
<pdfrwt beam="1">  1        2 0.48355413E-01 0.10031659E+04</pdfrwt>
<pdfrwt beam="2">  1       -2 0.12314412E+00 0.10031659E+04</pdfrwt>
<totfact> 0.60298779E+01</totfact>
</mgrwt>
</event>
<event>
 9    1  0.4307774E-036  0.9943561E+03  0.7818608E-02  0.8686431E-01
         -1   -1    0    0    0  501 -0.00000000000E+00  0.00000000000E+00  0.44935217524E+03  0.44935217524E+03  0.00000000000E+00 0.  1.
          1   -1    0    0  501    0  0.00000000000E+00 -0.00000000000E+00 -0.55009413489E+03  0.55009413489E+03  0.00000000000E+00 0.  1.
         36    2    1    2    0    0  0.00000000000E+00 -0.14210854715E-13 -0.10074195965E+03  0.99944631012E+03  0.99435606519E+03 0.  0.
         25    2    3    3    0    0 -0.82119563281E+02  0.34532030006E+02 -0.11392396762E+03  0.19196794758E+03  0.12624158875E+03 0.  0.
         35    2    3    3    0    0  0.82119563281E+02 -0.34532030006E+02  0.13182007965E+02  0.80747836254E+03  0.80244093669E+03 0.  0.
         22    1    5    5    0    0 -0.16392934191E+03  0.26044672663E+02  0.34919009626E+03  0.38663274233E+03  0.00000000000E+00 0.  1.
         22    1    5    5    0    0  0.24604890520E+03 -0.60576702669E+02 -0.33600808830E+03  0.42084562021E+03  0.00000000000E+00 0.  1.
          5    1    4    4  502    0 -0.89299931476E+02  0.72488440222E+02 -0.91549210085E+02  0.14707956892E+03  0.47000000000E+01 0.  1.
         -5    1    4    4    0  502  0.71803681950E+01 -0.37956410215E+02 -0.22374757531E+02  0.44888378657E+02  0.47000000000E+01 0.  1.
<mgrwt>
<rscale>  0 0.99435607E+03</rscale>
<asrwt>0</asrwt>
<pdfrwt beam="1">  1        1 0.84629867E-01 0.99435607E+03</pdfrwt>
<pdfrwt beam="2">  1       -1 0.69131104E-01 0.99435607E+03</pdfrwt>
<totfact> 0.96193968E+01</totfact>
</mgrwt>
</event>
<event>
 9    1  0.4307774E-036  0.1000113E+04  0.7818608E-02  0.8680931E-01
         -2   -1    0    0    0  501 -0.00000000000E+00  0.00000000000E+00  0.66808531069E+03  0.66808531069E+03  0.00000000000E+00 0. -1.
          2   -1    0    0  501    0  0.00000000000E+00 -0.00000000000E+00 -0.37428801918E+03  0.37428801918E+03  0.00000000000E+00 0. -1.
         36    2    1    2    0    0 -0.14210854715E-13  0.14210854715E-13  0.29379729151E+03  0.10423733299E+04  0.10001126488E+04 0.  0.
         25    2    3    3    0    0 -0.46787777937E+02 -0.12471674237E+03  0.14504510675E+02  0.18472297204E+03  0.12715672840E+03 0.  0.
         35    2    3    3    0    0  0.46787777937E+02  0.12471674237E+03  0.27929278083E+03  0.85765035783E+03  0.79988518981E+03 0.  0.
         22    1    5    5    0    0  0.34869155827E+03 -0.58696625127E+02  0.34985250475E+03  0.49742122159E+03  0.00000000000E+00 0. -1.
         22    1    5    5    0    0 -0.30190378033E+03  0.18341336750E+03 -0.70559723921E+02  0.36022913624E+03  0.00000000000E+00 0. -1.
          5    1    4    4  502    0  0.30506880094E+02 -0.88797887698E+02  0.28469446411E+02  0.98225933295E+02  0.47000000000E+01 0.  1.
         -5    1    4    4    0  502 -0.77294658031E+02 -0.35918854674E+02 -0.13964935735E+02  0.86497038743E+02  0.47000000000E+01 0.  1.
<mgrwt>
<rscale>  0 0.10001126E+04</rscale>
<asrwt>0</asrwt>
<pdfrwt beam="1">  1        2 0.57582772E-01 0.10001126E+04</pdfrwt>
<pdfrwt beam="2">  1       -2 0.10278236E+00 0.10001126E+04</pdfrwt>
<totfact> 0.78607161E+01</totfact>
</mgrwt>
</event>
<event>
 9    1  0.4307774E-036  0.9996117E+03  0.7818608E-02  0.8681408E-01
          1   -1    0    0  501    0  0.00000000000E+00  0.00000000000E+00  0.32312791894E+03  0.32312791894E+03  0.00000000000E+00 0.  1.
         -1   -1    0    0    0  501 -0.00000000000E+00 -0.00000000000E+00 -0.77308673460E+03  0.77308673460E+03  0.00000000000E+00 0.  1.
         36    2    1    2    0    0  0.00000000000E+00  0.00000000000E+00 -0.44995881566E+03  0.10962146535E+04  0.99961174005E+03 0.  0.
         25    2    3    3    0    0  0.84520499699E+02 -0.11149775141E+03 -0.83739738760E+02  0.20547080945E+03  0.12502178310E+03 0.  0.
         35    2    3    3    0    0 -0.84520499699E+02  0.11149775141E+03 -0.36621907690E+03  0.89074384408E+03  0.79983293259E+03 0.  0.
         22    1    5    5    0    0  0.17144680519E+03 -0.15265730635E+03  0.13706910835E+03  0.26736903458E+03  0.00000000000E+00 0.  1.
         22    1    5    5    0    0 -0.25596730488E+03  0.26415505776E+03 -0.50328818525E+03  0.62337480950E+03  0.00000000000E+00 0.  1.
          5    1    4    4  502    0 -0.27860713736E+02 -0.39551684998E+02 -0.45504572292E+02  0.66583115394E+02  0.47000000000E+01 0.  1.
         -5    1    4    4    0  502  0.11238121344E+03 -0.71946066415E+02 -0.38235166468E+02  0.13888769406E+03  0.47000000000E+01 0.  1.
<mgrwt>
<rscale>  0 0.99961174E+03</rscale>
<asrwt>0</asrwt>
<pdfrwt beam="1">  1        1 0.49711988E-01 0.99961174E+03</pdfrwt>
<pdfrwt beam="2">  1       -1 0.11893642E+00 0.99961174E+03</pdfrwt>
<totfact> 0.60515616E+01</totfact>
</mgrwt>
</event>
<event>
 9    1  0.4307774E-036  0.9996030E+03  0.7818608E-02  0.8681416E-01
          1   -1    0    0  501    0  0.00000000000E+00  0.00000000000E+00  0.13125124014E+04  0.13125124014E+04  0.00000000000E+00 0.  1.
         -1   -1    0    0    0  501 -0.00000000000E+00 -0.00000000000E+00 -0.19032319681E+03  0.19032319681E+03  0.00000000000E+00 0.  1.
         36    2    1    2    0    0  0.14210854715E-13  0.00000000000E+00  0.11221892046E+04  0.15028355982E+04  0.99960303340E+03 0.  0.
         25    2    3    3    0    0 -0.34064231804E+02 -0.15519892581E+02  0.41466942054E+03  0.43463505685E+03  0.12472235310E+03 0.  0.
         35    2    3    3    0    0  0.34064231804E+02  0.15519892581E+02  0.70751978406E+03  0.10682005414E+04  0.79941660778E+03 0.  0.
         22    1    5    5    0    0  0.19696413041E+03  0.15387964268E+03 -0.71839248228E+02  0.26006670430E+03  0.00000000000E+00 0. -1.
         22    1    5    5    0    0 -0.16289989860E+03 -0.13835975010E+03  0.77935903229E+03  0.80813383707E+03  0.00000000000E+00 0. -1.
          5    1    4    4  502    0 -0.32381043500E+02 -0.35197755821E+01  0.17537310098E+02  0.37290321047E+02  0.47000000000E+01 0. -1.
         -5    1    4    4    0  502 -0.16831883032E+01 -0.12000116999E+02  0.39713211044E+03  0.39734473581E+03  0.47000000000E+01 0. -1.
<mgrwt>
<rscale>  0 0.99960303E+03</rscale>
<asrwt>0</asrwt>
<pdfrwt beam="1">  1        1 0.20192498E+00 0.99960303E+03</pdfrwt>
<pdfrwt beam="2">  1       -1 0.29280493E-01 0.99960303E+03</pdfrwt>
<totfact> 0.10318020E+02</totfact>
</mgrwt>
</event>
<event>
 9    1  0.4307774E-036  0.9997992E+03  0.7818608E-02  0.8681229E-01
         -2   -1    0    0    0  501 -0.00000000000E+00  0.00000000000E+00  0.28105682128E+03  0.28105682128E+03  0.00000000000E+00 0. -1.
          2   -1    0    0  501    0  0.00000000000E+00 -0.00000000000E+00 -0.88914268188E+03  0.88914268188E+03  0.00000000000E+00 0. -1.
         36    2    1    2    0    0 -0.35527136788E-13  0.00000000000E+00 -0.60808586060E+03  0.11701995032E+04  0.99979921151E+03 0.  0.
         25    2    3    3    0    0  0.55906993522E+02  0.26508585629E+02  0.31209790381E+02  0.14331782910E+03  0.12544979906E+03 0.  0.
         35    2    3    3    0    0 -0.55906993522E+02 -0.26508585629E+02 -0.63929565098E+03  0.10268816741E+04  0.80122328107E+03 0.  0.
         22    1    5    5    0    0  0.35382134139E+03 -0.10003640527E+03 -0.41342033042E+03  0.55327497106E+03  0.00000000000E+00 0.  1.
         22    1    5    5    0    0 -0.40972833491E+03  0.73527819643E+02 -0.22587532056E+03  0.47360670300E+03  0.00000000000E+00 0.  1.
          5    1    4    4  502    0  0.47443491713E+02 -0.29421732056E+02 -0.26846718496E+02  0.62123743586E+02  0.47000000000E+01 0. -1.
         -5    1    4    4    0  502  0.84635018097E+01  0.55930317685E+02  0.58056508878E+02  0.81194085513E+02  0.47000000000E+01 0. -1.
<mgrwt>
<rscale>  0 0.99979921E+03</rscale>
<asrwt>0</asrwt>
<pdfrwt beam="1">  1        2 0.13679118E+00 0.99979921E+03</pdfrwt>
<pdfrwt beam="2">  1       -2 0.43239511E-01 0.99979921E+03</pdfrwt>
<totfact> 0.18298816E+02</totfact>
</mgrwt>
</event>
<event>
 9    1  0.4307774E-036  0.9988845E+03  0.7818608E-02  0.8682101E-01
          2   -1    0    0  501    0  0.00000000000E+00  0.00000000000E+00  0.14563349513E+04  0.14563349513E+04  0.00000000000E+00 0. -1.
         -2   -1    0    0    0  501 -0.00000000000E+00 -0.00000000000E+00 -0.17128102667E+03  0.17128102667E+03  0.00000000000E+00 0. -1.
         36    2    1    2    0    0  0.00000000000E+00  0.00000000000E+00  0.12850539246E+04  0.16276159780E+04  0.99888446905E+03 0.  0.
         25    2    3    3    0    0 -0.83803548509E+02 -0.11043635656E+03  0.19887816000E+03  0.27168170845E+03  0.12263443476E+03 0.  0.
         35    2    3    3    0    0  0.83803548509E+02  0.11043635656E+03  0.10861757646E+04  0.13559342695E+04  0.79972540786E+03 0.  0.
         22    1    5    5    0    0  0.86005739413E+02 -0.27027037510E+03  0.87661517926E+03  0.92135619355E+03  0.00000000000E+00 0. -1.
         22    1    5    5    0    0 -0.22021909038E+01  0.38070673166E+03  0.20956058537E+03  0.43457807597E+03  0.00000000000E+00 0. -1.
          5    1    4    4  502    0 -0.58825688695E+02 -0.13400262140E+03  0.13576924473E+03  0.19968110077E+03  0.47000000000E+01 0.  1.
         -5    1    4    4    0  502 -0.24977859814E+02  0.23566264835E+02  0.63108915274E+02  0.72000607680E+02  0.47000000000E+01 0.  1.
<mgrwt>
<rscale>  0 0.99888447E+03</rscale>
<asrwt>0</asrwt>
<pdfrwt beam="1">  1        2 0.22405152E+00 0.99888447E+03</pdfrwt>
<pdfrwt beam="2">  1       -2 0.26350928E-01 0.99888447E+03</pdfrwt>
<totfact> 0.20950949E+02</totfact>
</mgrwt>
</event>
<event>
 9    1  0.4307774E-036  0.9999219E+03  0.7818608E-02  0.8681112E-01
         -2   -1    0    0    0  501 -0.00000000000E+00  0.00000000000E+00  0.74734280336E+02  0.74734280336E+02  0.00000000000E+00 0.  1.
          2   -1    0    0  501    0  0.00000000000E+00 -0.00000000000E+00 -0.33446627118E+04  0.33446627118E+04  0.00000000000E+00 0.  1.
         36    2    1    2    0    0 -0.28421709430E-13 -0.14210854715E-13 -0.32699284314E+04  0.34193969921E+04  0.99992191841E+03 0.  0.
         25    2    3    3    0    0 -0.13498400450E+03  0.10238513365E+02 -0.49531223031E+03  0.52843075698E+03  0.12481726965E+03 0.  0.
         35    2    3    3    0    0  0.13498400450E+03 -0.10238513365E+02 -0.27746162011E+04  0.28909662351E+04  0.80054056765E+03 0.  0.
         22    1    5    5    0    0  0.24856984317E+03 -0.12815125574E+03 -0.29699271328E+03  0.40793919035E+03  0.00000000000E+00 0. -1.
         22    1    5    5    0    0 -0.11358583867E+03  0.11791274238E+03 -0.24776234878E+04  0.24830270448E+04  0.00000000000E+00 0. -1.
          5    1    4    4  502    0 -0.13611263736E+03 -0.98275444444E+01 -0.48766234971E+03  0.50641868844E+03  0.47000000000E+01 0. -1.
         -5    1    4    4    0  502  0.11286328544E+01  0.20066057809E+02 -0.76498805956E+01  0.22012068536E+02  0.47000000000E+01 0. -1.
<mgrwt>
<rscale>  0 0.99992192E+03</rscale>
<asrwt>0</asrwt>
<pdfrwt beam="1">  1        2 0.51456338E+00 0.99992192E+03</pdfrwt>
<pdfrwt beam="2">  1       -2 0.11497584E-01 0.99992192E+03</pdfrwt>
<totfact> 0.59895111E+01</totfact>
</mgrwt>
</event>
<event>
 9    1  0.4307774E-036  0.1000329E+04  0.7818608E-02  0.8680724E-01
          1   -1    0    0  501    0  0.00000000000E+00  0.00000000000E+00  0.10706771706E+04  0.10706771706E+04  0.00000000000E+00 0.  1.
         -1   -1    0    0    0  501 -0.00000000000E+00 -0.00000000000E+00 -0.23365098378E+03  0.23365098378E+03  0.00000000000E+00 0.  1.
         36    2    1    2    0    0  0.14210854715E-13  0.00000000000E+00  0.83702618686E+03  0.13043281544E+04  0.10003294942E+04 0.  0.
         25    2    3    3    0    0  0.79636634400E+02 -0.20307760758E+02  0.58053304710E+01  0.14969058968E+03  0.12497668619E+03 0.  0.
         35    2    3    3    0    0 -0.79636634400E+02  0.20307760758E+02  0.83122085639E+03  0.11546375647E+04  0.79718592257E+03 0.  0.
         22    1    5    5    0    0 -0.37188344900E+03 -0.83311306024E+02  0.73843816028E+03  0.83098073979E+03  0.00000000000E+00 0. -1.
         22    1    5    5    0    0  0.29224681460E+03  0.10361906678E+03  0.92782696109E+02  0.32365682496E+03  0.00000000000E+00 0. -1.
          5    1    4    4  502    0  0.28130583118E+02  0.52470192352E+02  0.87507653549E+01  0.60358236276E+02  0.47000000000E+01 0. -1.
         -5    1    4    4    0  502  0.51506051282E+02 -0.72777953110E+02 -0.29454348839E+01  0.89332353401E+02  0.47000000000E+01 0. -1.
<mgrwt>
<rscale>  0 0.10003295E+04</rscale>
<asrwt>0</asrwt>
<pdfrwt beam="1">  1        1 0.16471956E+00 0.10003295E+04</pdfrwt>
<pdfrwt beam="2">  1       -1 0.35946306E-01 0.10003295E+04</pdfrwt>
<totfact> 0.10987138E+02</totfact>
</mgrwt>
</event>
<event>
 9    1  0.4307774E-036  0.1000434E+04  0.7818608E-02  0.8680624E-01
          2   -1    0    0  501    0  0.00000000000E+00  0.00000000000E+00  0.25377007356E+04  0.25377007356E+04  0.00000000000E+00 0. -1.
         -2   -1    0    0    0  501 -0.00000000000E+00 -0.00000000000E+00 -0.98599988250E+02  0.98599988250E+02  0.00000000000E+00 0. -1.
         36    2    1    2    0    0  0.14210854715E-13  0.14210854715E-13  0.24391007473E+04  0.26363007238E+04  0.10004344311E+04 0.  0.
         25    2    3    3    0    0  0.11133637952E+03  0.53897366609E+02  0.63578056625E+03  0.65934186499E+03  0.12334525113E+03 0.  0.
         35    2    3    3    0    0 -0.11133637952E+03 -0.53897366609E+02  0.18033201811E+04  0.19769588588E+04  0.80068841537E+03 0.  0.
         22    1    5    5    0    0 -0.41518174995E+03 -0.20124078349E+03  0.11987151030E+04  0.12844421499E+04  0.00000000000E+00 0.  1.
         22    1    5    5    0    0  0.30384537043E+03  0.14734341688E+03  0.60460507808E+03  0.69251670888E+03  0.00000000000E+00 0.  1.
          5    1    4    4  502    0  0.31622937727E+02  0.81919992354E+02  0.37505314306E+03  0.38522440921E+03  0.47000000000E+01 0.  1.
         -5    1    4    4    0  502  0.79713441795E+02 -0.28022625745E+02  0.26072742320E+03  0.27411745578E+03  0.47000000000E+01 0.  1.
<mgrwt>
<rscale>  0 0.10004344E+04</rscale>
<asrwt>0</asrwt>
<pdfrwt beam="1">  1        2 0.39041545E+00 0.10004344E+04</pdfrwt>
<pdfrwt beam="2">  1       -2 0.15169231E-01 0.10004344E+04</pdfrwt>
<totfact> 0.12960361E+02</totfact>
</mgrwt>
</event>
<event>
 9    1  0.4307774E-036  0.9997023E+03  0.7818608E-02  0.8681322E-01
         -2   -1    0    0    0  501 -0.00000000000E+00  0.00000000000E+00  0.20811946989E+03  0.20811946989E+03  0.00000000000E+00 0.  1.
          2   -1    0    0  501    0  0.00000000000E+00 -0.00000000000E+00 -0.12005179705E+04  0.12005179705E+04  0.00000000000E+00 0.  1.
         36    2    1    2    0    0  0.00000000000E+00  0.00000000000E+00 -0.99239850059E+03  0.14086374404E+04  0.99970228291E+03 0.  0.
         25    2    3    3    0    0  0.70647696679E+02 -0.68608550485E+02 -0.34811006546E+02  0.16257768181E+03  0.12458517648E+03 0.  0.
         35    2    3    3    0    0 -0.70647696679E+02  0.68608550485E+02 -0.95758749405E+03  0.12460597586E+04  0.79119712015E+03 0.  0.
         22    1    5    5    0    0 -0.21744880163E+03  0.37658828286E+03 -0.67549447195E+03  0.80336510862E+03  0.00000000000E+00 0.  1.
         22    1    5    5    0    0  0.14680110496E+03 -0.30797973238E+03 -0.28209302210E+03  0.44269464994E+03  0.00000000000E+00 0.  1.
          5    1    4    4  502    0  0.64555805142E+02 -0.10358433777E+03 -0.33869081823E+02  0.12675319212E+03  0.47000000000E+01 0. -1.
         -5    1    4    4    0  502  0.60918915373E+01  0.34975787289E+02 -0.94192472249E+00  0.35824489685E+02  0.47000000000E+01 0. -1.
<mgrwt>
<rscale>  0 0.99970228E+03</rscale>
<asrwt>0</asrwt>
<pdfrwt beam="1">  1        2 0.18469507E+00 0.99970228E+03</pdfrwt>
<pdfrwt beam="2">  1       -2 0.32018381E-01 0.99970228E+03</pdfrwt>
<totfact> 0.20682391E+02</totfact>
</mgrwt>
</event>
<event>
 9    1  0.4307774E-036  0.9973748E+03  0.7818608E-02  0.8683542E-01
          2   -1    0    0  501    0  0.00000000000E+00  0.00000000000E+00  0.24031513861E+03  0.24031513861E+03  0.00000000000E+00 0.  1.
         -2   -1    0    0    0  501 -0.00000000000E+00 -0.00000000000E+00 -0.10348457731E+04  0.10348457731E+04  0.00000000000E+00 0.  1.
         36    2    1    2    0    0 -0.14210854715E-13  0.28421709430E-13 -0.79453063452E+03  0.12751609117E+04  0.99737476489E+03 0.  0.
         25    2    3    3    0    0 -0.90761347181E+01 -0.99286738206E+02 -0.27820965462E+02  0.16229265362E+03  0.12499866677E+03 0.  0.
         35    2    3    3    0    0  0.90761347181E+01  0.99286738206E+02 -0.76670966906E+03  0.11128682581E+04  0.80043226491E+03 0.  0.
         22    1    5    5    0    0 -0.29721572019E+03 -0.18770007620E+03 -0.51472116324E+03  0.62330279866E+03  0.00000000000E+00 0.  1.
         22    1    5    5    0    0  0.30629185491E+03  0.28698681441E+03 -0.25198850582E+03  0.48956545946E+03  0.00000000000E+00 0.  1.
          5    1    4    4  502    0 -0.65789237571E+02 -0.40410087037E+02 -0.20852027709E+02  0.80113020004E+02  0.47000000000E+01 0. -1.
         -5    1    4    4    0  502  0.56713102853E+02 -0.58876651169E+02 -0.69689377535E+01  0.82179633617E+02  0.47000000000E+01 0. -1.
<mgrwt>
<rscale>  0 0.99737476E+03</rscale>
<asrwt>0</asrwt>
<pdfrwt beam="1">  1        2 0.36971560E-01 0.99737476E+03</pdfrwt>
<pdfrwt beam="2">  1       -2 0.15920704E+00 0.99737476E+03</pdfrwt>
<totfact> 0.40337992E+01</totfact>
</mgrwt>
</event>
<event>
 9    1  0.4307774E-036  0.9997204E+03  0.7818608E-02  0.8681304E-01
          1   -1    0    0  501    0  0.00000000000E+00  0.00000000000E+00  0.33037743005E+03  0.33037743005E+03  0.00000000000E+00 0.  1.
         -1   -1    0    0    0  501 -0.00000000000E+00 -0.00000000000E+00 -0.75628716822E+03  0.75628716822E+03  0.00000000000E+00 0.  1.
         36    2    1    2    0    0  0.00000000000E+00  0.17763568394E-13 -0.42590973817E+03  0.10866645983E+04  0.99972038294E+03 0.  0.
         25    2    3    3    0    0  0.93281450877E+02 -0.20251228447E+02  0.31106024944E+02  0.16003555316E+03  0.12462845645E+03 0.  0.
         35    2    3    3    0    0 -0.93281450877E+02  0.20251228447E+02 -0.45701576311E+03  0.92662904511E+03  0.80041641548E+03 0.  0.
         22    1    5    5    0    0  0.28618223629E+03 -0.19095591363E+03 -0.32360113124E+03  0.47231570529E+03  0.00000000000E+00 0.  1.
         22    1    5    5    0    0 -0.37946368717E+03  0.21120714208E+03 -0.13341463187E+03  0.45431333982E+03  0.00000000000E+00 0.  1.
          5    1    4    4  502    0 -0.86118517623E+01  0.21213879215E+02 -0.26857103833E+02  0.35603183684E+02  0.47000000000E+01 0. -1.
         -5    1    4    4    0  502  0.10189330264E+03 -0.41465107662E+02  0.57963128778E+02  0.12443236948E+03  0.47000000000E+01 0. -1.
<mgrwt>
<rscale>  0 0.99972038E+03</rscale>
<asrwt>0</asrwt>
<pdfrwt beam="1">  1        1 0.50827297E-01 0.99972038E+03</pdfrwt>
<pdfrwt beam="2">  1       -1 0.11635187E+00 0.99972038E+03</pdfrwt>
<totfact> 0.62025116E+01</totfact>
</mgrwt>
</event>
<event>
 9    1  0.4307774E-036  0.9978845E+03  0.7818608E-02  0.8683055E-01
          2   -1    0    0  501    0  0.00000000000E+00  0.00000000000E+00  0.15928439254E+04  0.15928439254E+04  0.00000000000E+00 0. -1.
         -2   -1    0    0    0  501 -0.00000000000E+00 -0.00000000000E+00 -0.15628861478E+03  0.15628861478E+03  0.00000000000E+00 0. -1.
         36    2    1    2    0    0  0.00000000000E+00  0.00000000000E+00  0.14365553106E+04  0.17491325402E+04  0.99788450366E+03 0.  0.
         25    2    3    3    0    0  0.12807246527E+03 -0.41268448791E+02  0.27251860764E+03  0.33012484938E+03  0.12888127653E+03 0.  0.
         35    2    3    3    0    0 -0.12807246527E+03  0.41268448791E+02  0.11640367030E+04  0.14190076908E+04  0.80030977718E+03 0.  0.
         22    1    5    5    0    0  0.16041803457E+03  0.69015949394E+02 -0.41188040352E+02  0.17942575554E+03  0.00000000000E+00 0.  1.
         22    1    5    5    0    0 -0.28849049983E+03 -0.27747500602E+02  0.12052247433E+04  0.12395819353E+04  0.00000000000E+00 0.  1.
          5    1    4    4  502    0  0.14562395476E+02 -0.66260715279E+02  0.78042077189E+02  0.10351425778E+03  0.47000000000E+01 0. -1.
         -5    1    4    4    0  502  0.11351006979E+03  0.24992266488E+02  0.19447653045E+03  0.22661059160E+03  0.47000000000E+01 0. -1.
<mgrwt>
<rscale>  0 0.99788450E+03</rscale>
<asrwt>0</asrwt>
<pdfrwt beam="1">  1        2 0.24505290E+00 0.99788450E+03</pdfrwt>
<pdfrwt beam="2">  1       -2 0.24044403E-01 0.99788450E+03</pdfrwt>
<totfact> 0.20636333E+02</totfact>
</mgrwt>
</event>
<event>
 9    1  0.4307774E-036  0.1000136E+04  0.7818608E-02  0.8680909E-01
         -3   -1    0    0    0  501 -0.00000000000E+00  0.00000000000E+00  0.10398301492E+04  0.10398301492E+04  0.00000000000E+00 0.  1.
          3   -1    0    0  501    0  0.00000000000E+00 -0.00000000000E+00 -0.24048920451E+03  0.24048920451E+03  0.00000000000E+00 0.  1.
         36    2    1    2    0    0 -0.14210854715E-13  0.24868995752E-13  0.79934094472E+03  0.12803193537E+04  0.10001358416E+04 0.  0.
         25    2    3    3    0    0 -0.52225440125E+02  0.26783904574E+02  0.31336240550E+03  0.34248066072E+03  0.12510847951E+03 0.  0.
         35    2    3    3    0    0  0.52225440125E+02 -0.26783904574E+02  0.48597853922E+03  0.93783869302E+03  0.79995087312E+03 0.  0.
         22    1    5    5    0    0 -0.11676273312E+03 -0.30047854267E+03 -0.36351024449E+02  0.32441067712E+03  0.00000000000E+00 0.  1.
         22    1    5    5    0    0  0.16898817325E+03  0.27369463809E+03  0.52232956367E+03  0.61342801590E+03  0.00000000000E+00 0.  1.
          5    1    4    4  502    0 -0.59091796274E+02  0.58504346188E+02  0.11828011993E+03  0.14466124457E+03  0.47000000000E+01 0. -1.
         -5    1    4    4    0  502  0.68663561492E+01 -0.31720441614E+02  0.19508228557E+03  0.19781941615E+03  0.47000000000E+01 0. -1.
<mgrwt>
<rscale>  0 0.10001358E+04</rscale>
<asrwt>0</asrwt>
<pdfrwt beam="1">  1        3 0.36998340E-01 0.10001358E+04</pdfrwt>
<pdfrwt beam="2">  1       -3 0.15997387E+00 0.10001358E+04</pdfrwt>
<totfact> 0.61464609E+00</totfact>
</mgrwt>
</event>
<event>
 9    1  0.4307774E-036  0.9966843E+03  0.7818608E-02  0.8684202E-01
         -2   -1    0    0    0  501 -0.00000000000E+00  0.00000000000E+00  0.57779628341E+03  0.57779628341E+03  0.00000000000E+00 0. -1.
          2   -1    0    0  501    0  0.00000000000E+00 -0.00000000000E+00 -0.42981396681E+03  0.42981396681E+03  0.00000000000E+00 0. -1.
         36    2    1    2    0    0 -0.24868995752E-13 -0.71054273576E-14  0.14798231660E+03  0.10076102502E+04  0.99668432833E+03 0.  0.
         25    2    3    3    0    0  0.10407415707E+02 -0.19560684929E+02 -0.10675338388E+03  0.16706482632E+03  0.12658371351E+03 0.  0.
         35    2    3    3    0    0 -0.10407415707E+02  0.19560684929E+02  0.25473570048E+03  0.84054542391E+03  0.80070930921E+03 0.  0.
         22    1    5    5    0    0 -0.29697614030E+03  0.18213980700E+03 -0.93943830884E+02  0.36082569277E+03  0.00000000000E+00 0. -1.
         22    1    5    5    0    0  0.28656872459E+03 -0.16257912207E+03  0.34867953137E+03  0.47971973114E+03  0.00000000000E+00 0. -1.
          5    1    4    4  502    0  0.41236976734E+02  0.39449151969E+02 -0.71436745945E+02  0.91553386133E+02  0.47000000000E+01 0. -1.
         -5    1    4    4    0  502 -0.30829561027E+02 -0.59009836898E+02 -0.35316637937E+02  0.75511440186E+02  0.47000000000E+01 0. -1.
<mgrwt>
<rscale>  0 0.99668433E+03</rscale>
<asrwt>0</asrwt>
<pdfrwt beam="1">  1        2 0.66125226E-01 0.99668433E+03</pdfrwt>
<pdfrwt beam="2">  1       -2 0.88891736E-01 0.99668433E+03</pdfrwt>
<totfact> 0.95329226E+01</totfact>
</mgrwt>
</event>
<event>
 9    1  0.4307774E-036  0.9988678E+03  0.7818608E-02  0.8682117E-01
         -1   -1    0    0    0  501 -0.00000000000E+00  0.00000000000E+00  0.13924101907E+04  0.13924101907E+04  0.00000000000E+00 0.  1.
          1   -1    0    0  501    0  0.00000000000E+00 -0.00000000000E+00 -0.17913847804E+03  0.17913847804E+03  0.00000000000E+00 0.  1.
         36    2    1    2    0    0  0.17763568394E-13  0.71054273576E-14  0.12132717126E+04  0.15715486687E+04  0.99886784384E+03 0.  0.
         25    2    3    3    0    0  0.18054058605E+02  0.15248928419E+01  0.44367988535E+03  0.46138378226E+03  0.12527920633E+03 0.  0.
         35    2    3    3    0    0 -0.18054058605E+02 -0.15248928419E+01  0.76959182728E+03  0.11101648865E+04  0.79991638323E+03 0.  0.
         22    1    5    5    0    0  0.36970450382E+03 -0.12015792466E+03  0.44395464791E+03  0.59009751432E+03  0.00000000000E+00 0. -1.
         22    1    5    5    0    0 -0.38775856242E+03  0.11863303182E+03  0.32563717937E+03  0.52006737214E+03  0.00000000000E+00 0. -1.
          5    1    4    4  502    0  0.26590675975E+02  0.27507455831E+02  0.42755506993E+03  0.42928912401E+03  0.47000000000E+01 0. -1.
         -5    1    4    4    0  502 -0.85366173697E+01 -0.25982562989E+02  0.16124815418E+02  0.32094658245E+02  0.47000000000E+01 0. -1.
<mgrwt>
<rscale>  0 0.99886784E+03</rscale>
<asrwt>0</asrwt>
<pdfrwt beam="1">  1        1 0.27559767E-01 0.99886784E+03</pdfrwt>
<pdfrwt beam="2">  1       -1 0.21421695E+00 0.99886784E+03</pdfrwt>
<totfact> 0.20213859E+01</totfact>
</mgrwt>
</event>
<event>
 9    1  0.4307774E-036  0.9998437E+03  0.7818608E-02  0.8681187E-01
          2   -1    0    0  501    0  0.00000000000E+00  0.00000000000E+00  0.47799568095E+03  0.47799568095E+03  0.00000000000E+00 0.  1.
         -2   -1    0    0    0  501 -0.00000000000E+00 -0.00000000000E+00 -0.52285380815E+03  0.52285380815E+03  0.00000000000E+00 0.  1.
         36    2    1    2    0    0 -0.21316282073E-13 -0.14210854715E-13 -0.44858127202E+02  0.10008494891E+04  0.99984371191E+03 0.  0.
         25    2    3    3    0    0 -0.12224736555E+02 -0.18973932180E+02  0.13175482078E+03  0.18160366897E+03  0.12292723661E+03 0.  0.
         35    2    3    3    0    0  0.12224736555E+02  0.18973932180E+02 -0.17661294798E+03  0.81924582012E+03  0.79966375815E+03 0.  0.
         22    1    5    5    0    0 -0.19628251035E+03 -0.12600229027E+03 -0.41170143328E+03  0.47318228114E+03  0.00000000000E+00 0. -1.
         22    1    5    5    0    0  0.20850724690E+03  0.14497622245E+03  0.23508848530E+03  0.34606353898E+03  0.00000000000E+00 0. -1.
          5    1    4    4  502    0 -0.60218817537E+02 -0.35586738636E+02  0.53471573283E+02  0.88170409445E+02  0.47000000000E+01 0.  1.
         -5    1    4    4    0  502  0.47994080982E+02  0.16612806456E+02  0.78283247494E+02  0.93433259527E+02  0.47000000000E+01 0.  1.
<mgrwt>
<rscale>  0 0.99984371E+03</rscale>
<asrwt>0</asrwt>
<pdfrwt beam="1">  1        2 0.73537797E-01 0.99984371E+03</pdfrwt>
<pdfrwt beam="2">  1       -2 0.80439047E-01 0.99984371E+03</pdfrwt>
<totfact> 0.10668930E+02</totfact>
</mgrwt>
</event>
<event>
 9    1  0.4307774E-036  0.1001774E+04  0.7818608E-02  0.8679350E-01
          2   -1    0    0  501    0  0.00000000000E+00  0.00000000000E+00  0.74540998424E+03  0.74540998424E+03  0.00000000000E+00 0. -1.
         -2   -1    0    0    0  501 -0.00000000000E+00 -0.00000000000E+00 -0.33657711108E+03  0.33657711108E+03  0.00000000000E+00 0. -1.
         36    2    1    2    0    0  0.28421709430E-13  0.00000000000E+00  0.40883287316E+03  0.10819870953E+04  0.10017743041E+04 0.  0.
         25    2    3    3    0    0  0.26014386480E+02 -0.12094732521E+03  0.82282167442E+00  0.17523900440E+03  0.12410893541E+03 0.  0.
         35    2    3    3    0    0 -0.26014386480E+02  0.12094732521E+03  0.40801005149E+03  0.90674809092E+03  0.80025926704E+03 0.  0.
         22    1    5    5    0    0 -0.21225264381E+03  0.35472154660E+03  0.44288990219E+03  0.60583003053E+03  0.00000000000E+00 0.  1.
         22    1    5    5    0    0  0.18623825733E+03 -0.23377422139E+03 -0.34879850705E+02  0.30091806039E+03  0.00000000000E+00 0.  1.
          5    1    4    4  502    0  0.57948736032E+02 -0.34369379542E+02 -0.35085259969E+02  0.76107658779E+02  0.47000000000E+01 0. -1.
         -5    1    4    4    0  502 -0.31934349552E+02 -0.86577945672E+02  0.35908081644E+02  0.99131345625E+02  0.47000000000E+01 0. -1.
<mgrwt>
<rscale>  0 0.10017743E+04</rscale>
<asrwt>0</asrwt>
<pdfrwt beam="1">  1        2 0.11467846E+00 0.10017743E+04</pdfrwt>
<pdfrwt beam="2">  1       -2 0.51781094E-01 0.10017743E+04</pdfrwt>
<totfact> 0.16116877E+02</totfact>
</mgrwt>
</event>
<event>
 9    1  0.4307774E-036  0.1000860E+04  0.7818608E-02  0.8680219E-01
         -1   -1    0    0    0  501 -0.00000000000E+00  0.00000000000E+00  0.65178293047E+02  0.65178293047E+02  0.00000000000E+00 0. -1.
          1   -1    0    0  501    0  0.00000000000E+00 -0.00000000000E+00 -0.38422361424E+04  0.38422361424E+04  0.00000000000E+00 0. -1.
         36    2    1    2    0    0 -0.28421709430E-13  0.35527136788E-14 -0.37770578494E+04  0.39074144355E+04  0.10008604163E+04 0.  0.
         25    2    3    3    0    0  0.11229813035E+03 -0.23312962814E+02 -0.99916733052E+03  0.10133856519E+04  0.12434130752E+03 0.  0.
         35    2    3    3    0    0 -0.11229813035E+03  0.23312962814E+02 -0.27778905188E+04  0.28940287836E+04  0.80347526480E+03 0.  0.
         22    1    5    5    0    0  0.15079411404E+03 -0.54158210640E+02 -0.74388892563E+02  0.17665130610E+03  0.00000000000E+00 0. -1.
         22    1    5    5    0    0 -0.26309224439E+03  0.77471173454E+02 -0.27035016263E+04  0.27173774775E+04  0.00000000000E+00 0. -1.
          5    1    4    4  502    0 -0.10751074241E+02 -0.23373051619E+02 -0.44200422335E+03  0.44277726749E+03  0.47000000000E+01 0. -1.
         -5    1    4    4    0  502  0.12304920459E+03  0.60088804712E-01 -0.55716310717E+03  0.57060838440E+03  0.47000000000E+01 0. -1.
<mgrwt>
<rscale>  0 0.10008604E+04</rscale>
<asrwt>0</asrwt>
<pdfrwt beam="1">  1        1 0.59111364E+00 0.10008604E+04</pdfrwt>
<pdfrwt beam="2">  1       -1 0.10027423E-01 0.10008604E+04</pdfrwt>
<totfact> 0.91236102E+00</totfact>
</mgrwt>
</event>
<event>
 9    1  0.4307774E-036  0.1000638E+04  0.7818608E-02  0.8680431E-01
         -2   -1    0    0    0  501 -0.00000000000E+00  0.00000000000E+00  0.42949116852E+03  0.42949116852E+03  0.00000000000E+00 0. -1.
          2   -1    0    0  501    0  0.00000000000E+00 -0.00000000000E+00 -0.58282678813E+03  0.58282678813E+03  0.00000000000E+00 0. -1.
         36    2    1    2    0    0  0.42632564146E-13 -0.14210854715E-13 -0.15333561961E+03  0.10123179567E+04  0.10006377132E+04 0.  0.
         25    2    3    3    0    0  0.74900408043E+02 -0.83126124969E+02  0.52099035028E+02  0.17873963584E+03  0.12928079592E+03 0.  0.
         35    2    3    3    0    0 -0.74900408043E+02  0.83126124969E+02 -0.20543465464E+03  0.83357832081E+03  0.80008086830E+03 0.  0.
         22    1    5    5    0    0 -0.42277282856E+03 -0.58363727340E+02 -0.15781227086E+03  0.45502516642E+03  0.00000000000E+00 0.  1.
         22    1    5    5    0    0  0.34787242052E+03  0.14148985231E+03 -0.47622383777E+02  0.37855315439E+03  0.00000000000E+00 0.  1.
          5    1    4    4  502    0  0.77028968184E+02 -0.11469151327E+03  0.35588768605E+02  0.14274542236E+03  0.47000000000E+01 0. -1.
         -5    1    4    4    0  502 -0.21285601412E+01  0.31565388298E+02  0.16510266423E+02  0.35994213479E+02  0.47000000000E+01 0. -1.
<mgrwt>
<rscale>  0 0.10006377E+04</rscale>
<asrwt>0</asrwt>
<pdfrwt beam="1">  1        2 0.89665659E-01 0.10006377E+04</pdfrwt>
<pdfrwt beam="2">  1       -2 0.66075565E-01 0.10006377E+04</pdfrwt>
<totfact> 0.13096114E+02</totfact>
</mgrwt>
</event>
<event>
 9    1  0.4307774E-036  0.9996014E+03  0.7818608E-02  0.8681418E-01
          2   -1    0    0  501    0  0.00000000000E+00  0.00000000000E+00  0.12628002734E+04  0.12628002734E+04  0.00000000000E+00 0. -1.
         -2   -1    0    0    0  501 -0.00000000000E+00 -0.00000000000E+00 -0.19781491250E+03  0.19781491250E+03  0.00000000000E+00 0. -1.
         36    2    1    2    0    0  0.00000000000E+00  0.28421709430E-13  0.10649853609E+04  0.14606151859E+04  0.99960137171E+03 0.  0.
         25    2    3    3    0    0 -0.10138409555E+02  0.13061431383E+03  0.12456018116E+03  0.21923582513E+03  0.12404121074E+03 0.  0.
         35    2    3    3    0    0  0.10138409555E+02 -0.13061431383E+03  0.94042517969E+03  0.12413793607E+04  0.79966262406E+03 0.  0.
         22    1    5    5    0    0 -0.14760601703E+03 -0.24158351100E+03  0.10001738967E+04  0.10394700345E+04  0.00000000000E+00 0.  1.
         22    1    5    5    0    0  0.15774442659E+03  0.11096919717E+03 -0.59748716976E+02  0.20190932623E+03  0.00000000000E+00 0.  1.
          5    1    4    4  502    0 -0.64845546482E+02  0.71445407748E+02  0.87799342272E+02  0.13053813883E+03  0.47000000000E+01 0.  1.
         -5    1    4    4    0  502  0.54707136927E+02  0.59168906084E+02  0.36760838889E+02  0.88697686293E+02  0.47000000000E+01 0.  1.
<mgrwt>
<rscale>  0 0.99960137E+03</rscale>
<asrwt>0</asrwt>
<pdfrwt beam="1">  1        2 0.19427696E+00 0.99960137E+03</pdfrwt>
<pdfrwt beam="2">  1       -2 0.30433064E-01 0.99960137E+03</pdfrwt>
<totfact> 0.20867333E+02</totfact>
</mgrwt>
</event>
<event>
 9    1  0.4307774E-036  0.9913650E+03  0.7818608E-02  0.8689305E-01
          2   -1    0    0  501    0  0.00000000000E+00  0.00000000000E+00  0.10705360658E+04  0.10705360658E+04  0.00000000000E+00 0. -1.
         -2   -1    0    0    0  501 -0.00000000000E+00 -0.00000000000E+00 -0.22951225649E+03  0.22951225649E+03  0.00000000000E+00 0. -1.
         36    2    1    2    0    0 -0.28421709430E-13  0.00000000000E+00  0.84102380935E+03  0.13000483223E+04  0.99136501476E+03 0.  0.
         25    2    3    3    0    0 -0.85833321565E+02  0.51555474840E+00  0.23984748589E+02  0.15311909063E+03  0.12450928826E+03 0.  0.
         35    2    3    3    0    0  0.85833321565E+02 -0.51555474840E+00  0.81703906076E+03  0.11469292317E+04  0.80032881419E+03 0.  0.
         22    1    5    5    0    0  0.73561428158E+02  0.17827674230E+03 -0.96727274398E+02  0.21575459710E+03  0.00000000000E+00 0. -1.
         22    1    5    5    0    0  0.12271893407E+02 -0.17879229705E+03  0.91376633516E+03  0.93117463460E+03  0.00000000000E+00 0. -1.
          5    1    4    4  502    0 -0.34488025531E+02  0.24155289720E+02  0.68821446367E+02  0.80816974742E+02  0.47000000000E+01 0.  1.
         -5    1    4    4    0  502 -0.51345296034E+02 -0.23639734972E+02 -0.44836697778E+02  0.72302115888E+02  0.47000000000E+01 0.  1.
<mgrwt>
<rscale>  0 0.99136501E+03</rscale>
<asrwt>0</asrwt>
<pdfrwt beam="1">  1        2 0.16469785E+00 0.99136501E+03</pdfrwt>
<pdfrwt beam="2">  1       -2 0.35309578E-01 0.99136501E+03</pdfrwt>
<totfact> 0.20650783E+02</totfact>
</mgrwt>
</event>
<event>
 9    1  0.4307774E-036  0.1000760E+04  0.7818608E-02  0.8680315E-01
          1   -1    0    0  501    0  0.00000000000E+00  0.00000000000E+00  0.12426140879E+04  0.12426140879E+04  0.00000000000E+00 0. -1.
         -1   -1    0    0    0  501 -0.00000000000E+00 -0.00000000000E+00 -0.20149465125E+03  0.20149465125E+03  0.00000000000E+00 0. -1.
         36    2    1    2    0    0  0.14210854715E-13  0.14210854715E-13  0.10411194366E+04  0.14441087391E+04  0.10007598958E+04 0.  0.
         25    2    3    3    0    0 -0.88800713551E+02  0.20074903180E+02  0.35272299297E+03  0.38480378373E+03  0.12398336073E+03 0.  0.
         35    2    3    3    0    0  0.88800713551E+02 -0.20074903180E+02  0.68839644365E+03  0.10593049554E+04  0.79996797211E+03 0.  0.
         22    1    5    5    0    0 -0.90331109287E+02  0.24423103285E+03 -0.40511639334E+02  0.26353310918E+03  0.00000000000E+00 0.  1.
         22    1    5    5    0    0  0.17913182284E+03 -0.26430593603E+03  0.72890808299E+03  0.79577184621E+03  0.00000000000E+00 0.  1.
          5    1    4    4  502    0 -0.58519990318E+02 -0.43581396419E+02  0.11059362328E+03  0.13257815390E+03  0.47000000000E+01 0. -1.
         -5    1    4    4    0  502 -0.30280723234E+02  0.63656299599E+02  0.24212936969E+03  0.25222562983E+03  0.47000000000E+01 0. -1.
<mgrwt>
<rscale>  0 0.10007599E+04</rscale>
<asrwt>0</asrwt>
<pdfrwt beam="1">  1        1 0.19117139E+00 0.10007599E+04</pdfrwt>
<pdfrwt beam="2">  1       -1 0.30999178E-01 0.10007599E+04</pdfrwt>
<totfact> 0.10530266E+02</totfact>
</mgrwt>
</event>
<event>
 9    1  0.4307774E-036  0.9996140E+03  0.7818608E-02  0.8681406E-01
          2   -1    0    0  501    0  0.00000000000E+00  0.00000000000E+00  0.56856636602E+03  0.56856636602E+03  0.00000000000E+00 0.  1.
         -2   -1    0    0    0  501 -0.00000000000E+00 -0.00000000000E+00 -0.43936306002E+03  0.43936306002E+03  0.00000000000E+00 0.  1.
         36    2    1    2    0    0  0.00000000000E+00  0.00000000000E+00  0.12920330600E+03  0.10079294260E+04  0.99961404231E+03 0.  0.
         25    2    3    3    0    0  0.58100390602E+02  0.12142709841E+03 -0.87567726632E+01  0.18420142810E+03  0.12543240981E+03 0.  0.
         35    2    3    3    0    0 -0.58100390602E+02 -0.12142709841E+03  0.13796007866E+03  0.82372799794E+03  0.80085868645E+03 0.  0.
         22    1    5    5    0    0 -0.18031010468E+03 -0.18620052577E+03 -0.28114241456E+03  0.38239171920E+03  0.00000000000E+00 0. -1.
         22    1    5    5    0    0  0.12220971408E+03  0.64773427360E+02  0.41910249322E+03  0.44133627874E+03  0.00000000000E+00 0. -1.
          5    1    4    4  502    0 -0.13576663820E+02  0.89767389934E+02 -0.40505718690E+02  0.99525440680E+02  0.47000000000E+01 0. -1.
         -5    1    4    4    0  502  0.71677054422E+02  0.31659708475E+02  0.31748946026E+02  0.84675987417E+02  0.47000000000E+01 0. -1.
<mgrwt>
<rscale>  0 0.99961404E+03</rscale>
<asrwt>0</asrwt>
<pdfrwt beam="1">  1        2 0.87471749E-01 0.99961404E+03</pdfrwt>
<pdfrwt beam="2">  1       -2 0.67594317E-01 0.99961404E+03</pdfrwt>
<totfact> 0.12842137E+02</totfact>
</mgrwt>
</event>
<event>
 9    1  0.4307774E-036  0.1000718E+04  0.7818608E-02  0.8680354E-01
          2   -1    0    0  501    0  0.00000000000E+00  0.00000000000E+00  0.19328255795E+04  0.19328255795E+04  0.00000000000E+00 0.  1.
         -2   -1    0    0    0  501 -0.00000000000E+00 -0.00000000000E+00 -0.12953015180E+03  0.12953015180E+03  0.00000000000E+00 0.  1.
         36    2    1    2    0    0  0.28421709430E-13  0.00000000000E+00  0.18032954277E+04  0.20623557313E+04  0.10007181236E+04 0.  0.
         25    2    3    3    0    0 -0.90086733566E+02  0.99026026218E+02  0.25428496961E+03  0.31397501396E+03  0.12648197573E+03 0.  0.
         35    2    3    3    0    0  0.90086733566E+02 -0.99026026218E+02  0.15490104581E+04  0.17483807174E+04  0.79967490899E+03 0.  0.
         22    1    5    5    0    0  0.34250562934E+03 -0.12299995433E+03  0.29351096562E+03  0.46753372267E+03  0.00000000000E+00 0. -1.
         22    1    5    5    0    0 -0.25241889577E+03  0.23973928109E+02  0.12554994925E+04  0.12808469947E+04  0.00000000000E+00 0. -1.
          5    1    4    4  502    0 -0.69896511928E+02  0.96549685372E+02  0.26492537597E+03  0.29054243917E+03  0.47000000000E+01 0. -1.
         -5    1    4    4    0  502 -0.20190221639E+02  0.24763408466E+01 -0.10640406357E+02  0.23432574789E+02  0.47000000000E+01 0. -1.
<mgrwt>
<rscale>  0 0.10007181E+04</rscale>
<asrwt>0</asrwt>
<pdfrwt beam="1">  1        2 0.29735776E+00 0.10007181E+04</pdfrwt>
<pdfrwt beam="2">  1       -2 0.19927717E-01 0.10007181E+04</pdfrwt>
<totfact> 0.18418501E+02</totfact>
</mgrwt>
</event>
<event>
 9    1  0.4307774E-036  0.1000031E+04  0.7818608E-02  0.8681008E-01
          2   -1    0    0  501    0  0.00000000000E+00  0.00000000000E+00  0.71904333842E+03  0.71904333842E+03  0.00000000000E+00 0. -1.
         -2   -1    0    0    0  501 -0.00000000000E+00 -0.00000000000E+00 -0.34770575810E+03  0.34770575810E+03  0.00000000000E+00 0. -1.
         36    2    1    2    0    0  0.14210854715E-13  0.00000000000E+00  0.37133758032E+03  0.10667490965E+04  0.10000310177E+04 0.  0.
         25    2    3    3    0    0 -0.10335984890E+03 -0.76439473230E+02  0.13195312477E+03  0.22203357209E+03  0.12393961660E+03 0.  0.
         35    2    3    3    0    0  0.10335984890E+03  0.76439473230E+02  0.23938445554E+03  0.84471552443E+03  0.79982069755E+03 0.  0.
         22    1    5    5    0    0  0.68591129704E+02  0.42137518117E+03  0.25571699902E+03  0.49764743540E+03  0.00000000000E+00 0.  1.
         22    1    5    5    0    0  0.34768719195E+02 -0.34493570794E+03 -0.16332543472E+02  0.34706808903E+03  0.00000000000E+00 0.  1.
          5    1    4    4  502    0 -0.10096744737E+03 -0.52650891629E+02  0.15234748336E+03  0.19025873831E+03  0.47000000000E+01 0.  1.
         -5    1    4    4    0  502 -0.23924015314E+01 -0.23788581601E+02 -0.20394358583E+02  0.31774833779E+02  0.47000000000E+01 0.  1.
<mgrwt>
<rscale>  0 0.10000310E+04</rscale>
<asrwt>0</asrwt>
<pdfrwt beam="1">  1        2 0.11062205E+00 0.10000310E+04</pdfrwt>
<pdfrwt beam="2">  1       -2 0.53493194E-01 0.10000310E+04</pdfrwt>
<totfact> 0.15783746E+02</totfact>
</mgrwt>
</event>
<event>
 9    1  0.4307774E-036  0.1000486E+04  0.7818608E-02  0.8680575E-01
          2   -1    0    0  501    0  0.00000000000E+00  0.00000000000E+00  0.10449592136E+04  0.10449592136E+04  0.00000000000E+00 0.  1.
         -2   -1    0    0    0  501 -0.00000000000E+00 -0.00000000000E+00 -0.23947654777E+03  0.23947654777E+03  0.00000000000E+00 0.  1.
         36    2    1    2    0    0  0.21316282073E-13  0.28421709430E-13  0.80548266587E+03  0.12844357614E+04  0.10004863318E+04 0.  0.
         25    2    3    3    0    0  0.16238487109E+02  0.14021065842E+03  0.13930547341E+03  0.23419666009E+03  0.12457665701E+03 0.  0.
         35    2    3    3    0    0 -0.16238487109E+02 -0.14021065842E+03  0.66617719246E+03  0.10502391013E+04  0.79955450158E+03 0.  0.
         22    1    5    5    0    0  0.30976506631E+03 -0.31292265899E+03  0.31983256604E+03  0.54421306224E+03  0.00000000000E+00 0. -1.
         22    1    5    5    0    0 -0.32600355342E+03  0.17271200056E+03  0.34634462641E+03  0.50602603908E+03  0.00000000000E+00 0. -1.
          5    1    4    4  502    0 -0.40040047825E+02  0.12154042728E+03  0.85344802680E+02  0.15388666687E+03  0.47000000000E+01 0.  1.
         -5    1    4    4    0  502  0.56278534934E+02  0.18670231140E+02  0.53960670733E+02  0.80309993220E+02  0.47000000000E+01 0.  1.
<mgrwt>
<rscale>  0 0.10004863E+04</rscale>
<asrwt>0</asrwt>
<pdfrwt beam="1">  1        2 0.16076295E+00 0.10004863E+04</pdfrwt>
<pdfrwt beam="2">  1       -2 0.36842546E-01 0.10004863E+04</pdfrwt>
<totfact> 0.19770147E+02</totfact>
</mgrwt>
</event>
<event>
 9    1  0.4307774E-036  0.9997164E+03  0.7818608E-02  0.8681308E-01
          2   -1    0    0  501    0  0.00000000000E+00  0.00000000000E+00  0.14303899804E+04  0.14303899804E+04  0.00000000000E+00 0. -1.
         -2   -1    0    0    0  501 -0.00000000000E+00 -0.00000000000E+00 -0.17467838300E+03  0.17467838300E+03  0.00000000000E+00 0. -1.
         36    2    1    2    0    0  0.00000000000E+00  0.00000000000E+00  0.12557115974E+04  0.16050683635E+04  0.99971637748E+03 0.  0.
         25    2    3    3    0    0  0.80378671023E+02 -0.41923524893E+02  0.38754858817E+03  0.41700891961E+03  0.12443559839E+03 0.  0.
         35    2    3    3    0    0 -0.80378671023E+02  0.41923524893E+02  0.86816300928E+03  0.11880594438E+04  0.80595280180E+03 0.  0.
         22    1    5    5    0    0  0.31254054609E+03  0.15250745229E+03  0.61853309332E+03  0.70959375948E+03  0.00000000000E+00 0.  1.
         22    1    5    5    0    0 -0.39291921711E+03 -0.11058392739E+03  0.24962991596E+03  0.47846568437E+03  0.00000000000E+00 0.  1.
          5    1    4    4  502    0 -0.20416347697E+02 -0.47803372126E+02  0.15119219708E+03  0.15994736664E+03  0.47000000000E+01 0.  1.
         -5    1    4    4    0  502  0.10079501872E+03  0.58798472330E+01  0.23635639109E+03  0.25706155296E+03  0.47000000000E+01 0.  1.
<mgrwt>
<rscale>  0 0.99971638E+03</rscale>
<asrwt>0</asrwt>
<pdfrwt beam="1">  1        2 0.22005999E+00 0.99971638E+03</pdfrwt>
<pdfrwt beam="2">  1       -2 0.26873598E-01 0.99971638E+03</pdfrwt>
<totfact> 0.20926601E+02</totfact>
</mgrwt>
</event>
<event>
 9    1  0.4307774E-036  0.9995946E+03  0.7818608E-02  0.8681424E-01
          2   -1    0    0  501    0  0.00000000000E+00  0.00000000000E+00  0.15692231482E+04  0.15692231482E+04  0.00000000000E+00 0. -1.
         -2   -1    0    0    0  501 -0.00000000000E+00 -0.00000000000E+00 -0.15918534350E+03  0.15918534350E+03  0.00000000000E+00 0. -1.
         36    2    1    2    0    0 -0.21316282073E-13  0.00000000000E+00  0.14100378047E+04  0.17284084917E+04  0.99959456956E+03 0.  0.
         25    2    3    3    0    0 -0.34295391563E+02 -0.13482171076E+03  0.27990640141E+03  0.33661350181E+03  0.12493193536E+03 0.  0.
         35    2    3    3    0    0  0.34295391563E+02  0.13482171076E+03  0.11301314033E+04  0.13917949899E+04  0.80033945148E+03 0.  0.
         22    1    5    5    0    0 -0.22738952358E+03  0.37651906432E+02  0.10847751612E+04  0.11089908980E+04  0.00000000000E+00 0. -1.
         22    1    5    5    0    0  0.26168491514E+03  0.97169804330E+02  0.45356242068E+02  0.28280409187E+03  0.00000000000E+00 0. -1.
          5    1    4    4  502    0 -0.58147260344E+02 -0.80683964054E+02  0.78921224360E+02  0.12704981541E+03  0.47000000000E+01 0.  1.
         -5    1    4    4    0  502  0.23851868781E+02 -0.54137746708E+02  0.20098517705E+03  0.20956368640E+03  0.47000000000E+01 0.  1.
<mgrwt>
<rscale>  0 0.99959457E+03</rscale>
<asrwt>0</asrwt>
<pdfrwt beam="1">  1        2 0.24141894E+00 0.99959457E+03</pdfrwt>
<pdfrwt beam="2">  1       -2 0.24490054E-01 0.99959457E+03</pdfrwt>
<totfact> 0.20599604E+02</totfact>
</mgrwt>
</event>
<event>
 9    1  0.4307774E-036  0.1001255E+04  0.7818608E-02  0.8679844E-01
         -2   -1    0    0    0  501 -0.00000000000E+00  0.00000000000E+00  0.15635784028E+03  0.15635784028E+03  0.00000000000E+00 0.  1.
          2   -1    0    0  501    0  0.00000000000E+00 -0.00000000000E+00 -0.16029120790E+04  0.16029120790E+04  0.00000000000E+00 0.  1.
         36    2    1    2    0    0  0.00000000000E+00 -0.71054273576E-14 -0.14465542388E+04  0.17592699193E+04  0.10012549542E+04 0.  0.
         25    2    3    3    0    0 -0.55383158800E+02 -0.54761021183E+02 -0.48401248684E+03  0.50590399032E+03  0.12491875873E+03 0.  0.
         35    2    3    3    0    0  0.55383158800E+02  0.54761021183E+02 -0.96254175191E+03  0.12533659290E+04  0.79898276832E+03 0.  0.
         22    1    5    5    0    0 -0.24439513351E+03 -0.32609145426E+02 -0.90226911022E+03  0.93535120939E+03  0.00000000000E+00 0. -1.
         22    1    5    5    0    0  0.29977829231E+03  0.87370166608E+02 -0.60272641696E+02  0.31801471961E+03  0.00000000000E+00 0. -1.
          5    1    4    4  502    0  0.17463875478E+02 -0.56780021750E+02 -0.11276296210E+03  0.12754032083E+03  0.47000000000E+01 0.  1.
         -5    1    4    4    0  502 -0.72847034278E+02  0.20190005670E+01 -0.37124952474E+03  0.37836366948E+03  0.47000000000E+01 0.  1.
<mgrwt>
<rscale>  0 0.10012550E+04</rscale>
<asrwt>0</asrwt>
<pdfrwt beam="1">  1        2 0.24660186E+00 0.10012550E+04</pdfrwt>
<pdfrwt beam="2">  1       -2 0.24055053E-01 0.10012550E+04</pdfrwt>
<totfact> 0.20352492E+02</totfact>
</mgrwt>
</event>
<event>
 9    1  0.4307774E-036  0.9993494E+03  0.7818608E-02  0.8681658E-01
          2   -1    0    0  501    0  0.00000000000E+00  0.00000000000E+00  0.27592947192E+04  0.27592947192E+04  0.00000000000E+00 0.  1.
         -2   -1    0    0    0  501 -0.00000000000E+00 -0.00000000000E+00 -0.90485015736E+02  0.90485015736E+02  0.00000000000E+00 0.  1.
         36    2    1    2    0    0  0.00000000000E+00 -0.71054273576E-14  0.26688097034E+04  0.28497797349E+04  0.99934944055E+03 0.  0.
         25    2    3    3    0    0 -0.66325168224E+02  0.55547776196E+02  0.19285135941E+03  0.24635387977E+03  0.12654644946E+03 0.  0.
         35    2    3    3    0    0  0.66325168224E+02 -0.55547776196E+02  0.24759583440E+04  0.26034258551E+04  0.79998242385E+03 0.  0.
         22    1    5    5    0    0  0.17892021837E+03 -0.84206000832E+01  0.24748879621E+04  0.24813612748E+04  0.00000000000E+00 0. -1.
         22    1    5    5    0    0 -0.11259505015E+03 -0.47127176113E+02  0.10703818661E+01  0.12206458030E+03  0.00000000000E+00 0. -1.
          5    1    4    4  502    0 -0.86011543950E+02  0.15662578670E+02  0.59903266269E+02  0.10608389780E+03  0.47000000000E+01 0. -1.
         -5    1    4    4    0  502  0.19686375726E+02  0.39885197526E+02  0.13294809315E+03  0.14026998197E+03  0.47000000000E+01 0. -1.
<mgrwt>
<rscale>  0 0.99934944E+03</rscale>
<asrwt>0</asrwt>
<pdfrwt beam="1">  1        2 0.42450681E+00 0.99934944E+03</pdfrwt>
<pdfrwt beam="2">  1       -2 0.13920774E-01 0.99934944E+03</pdfrwt>
<totfact> 0.10879824E+02</totfact>
</mgrwt>
</event>
<event>
 9    1  0.4307774E-036  0.9998911E+03  0.7818608E-02  0.8681142E-01
          2   -1    0    0  501    0  0.00000000000E+00  0.00000000000E+00  0.29115272257E+04  0.29115272257E+04  0.00000000000E+00 0.  1.
         -2   -1    0    0    0  501 -0.00000000000E+00 -0.00000000000E+00 -0.85846891534E+02  0.85846891534E+02  0.00000000000E+00 0.  1.
         36    2    1    2    0    0  0.14210854715E-13  0.71054273576E-14  0.28256803342E+04  0.29973741173E+04  0.99989111797E+03 0.  0.
         25    2    3    3    0    0 -0.84666733710E+02  0.47660804390E+02  0.84172863179E+03  0.85615550009E+03  0.12269939966E+03 0.  0.
         35    2    3    3    0    0  0.84666733710E+02 -0.47660804390E+02  0.19839517024E+04  0.21412186172E+04  0.79957038527E+03 0.  0.
         22    1    5    5    0    0 -0.31764839312E+03 -0.94556990010E+02  0.47736932371E+03  0.58113939570E+03  0.00000000000E+00 0. -1.
         22    1    5    5    0    0  0.40231512683E+03  0.46896185620E+02  0.15065823787E+04  0.15600792215E+04  0.00000000000E+00 0. -1.
          5    1    4    4  502    0 -0.65420460772E+02  0.36340686554E+02  0.19342921488E+03  0.20745465374E+03  0.47000000000E+01 0. -1.
         -5    1    4    4    0  502 -0.19246272937E+02  0.11320117836E+02  0.64829941691E+03  0.64870084635E+03  0.47000000000E+01 0. -1.
<mgrwt>
<rscale>  0 0.99989112E+03</rscale>
<asrwt>0</asrwt>
<pdfrwt beam="1">  1        2 0.44792719E+00 0.99989112E+03</pdfrwt>
<pdfrwt beam="2">  1       -2 0.13207216E-01 0.99989112E+03</pdfrwt>
<totfact> 0.94678189E+01</totfact>
</mgrwt>
</event>
<event>
 9    1  0.4307774E-036  0.9996198E+03  0.7818608E-02  0.8681400E-01
          1   -1    0    0  501    0  0.00000000000E+00  0.00000000000E+00  0.48964285131E+03  0.48964285131E+03  0.00000000000E+00 0.  1.
         -1   -1    0    0    0  501 -0.00000000000E+00 -0.00000000000E+00 -0.51018808496E+03  0.51018808496E+03  0.00000000000E+00 0.  1.
         36    2    1    2    0    0 -0.14210854715E-13  0.00000000000E+00 -0.20545233652E+02  0.99983093628E+03  0.99961982499E+03 0.  0.
         25    2    3    3    0    0 -0.97687499417E+02  0.90554836464E+02  0.67480579971E+02  0.19488389100E+03  0.12523208993E+03 0.  0.
         35    2    3    3    0    0  0.97687499417E+02 -0.90554836464E+02 -0.88025813622E+02  0.80494704528E+03  0.78895384902E+03 0.  0.
         22    1    5    5    0    0 -0.22620839224E+03  0.53890505773E+02  0.23110999732E+03  0.32785096339E+03  0.00000000000E+00 0.  1.
         22    1    5    5    0    0  0.32389589166E+03 -0.14444534224E+03 -0.31913581094E+03  0.47709608189E+03  0.00000000000E+00 0.  1.
          5    1    4    4  502    0 -0.58759398827E+02 -0.21382341250E+01 -0.19225852029E+02  0.62040006302E+02  0.47000000000E+01 0.  1.
         -5    1    4    4    0  502 -0.38928100590E+02  0.92693070589E+02  0.86706432000E+02  0.13284388470E+03  0.47000000000E+01 0.  1.
<mgrwt>
<rscale>  0 0.99961982E+03</rscale>
<asrwt>0</asrwt>
<pdfrwt beam="1">  1        1 0.75329670E-01 0.99961982E+03</pdfrwt>
<pdfrwt beam="2">  1       -1 0.78490474E-01 0.99961982E+03</pdfrwt>
<totfact> 0.87580997E+01</totfact>
</mgrwt>
</event>
<event>
 9    1  0.4307774E-036  0.1000221E+04  0.7818608E-02  0.8680828E-01
          1   -1    0    0  501    0  0.00000000000E+00  0.00000000000E+00  0.59669798648E+03  0.59669798648E+03  0.00000000000E+00 0.  1.
         -1   -1    0    0    0  501 -0.00000000000E+00 -0.00000000000E+00 -0.41915740505E+03  0.41915740505E+03  0.00000000000E+00 0.  1.
         36    2    1    2    0    0 -0.17763568394E-14 -0.71054273576E-14  0.17754058143E+03  0.10158553915E+04  0.10002207349E+04 0.  0.
         25    2    3    3    0    0 -0.10433609917E+02  0.12031454089E+02 -0.10663195359E+03  0.16511076468E+03  0.12505028982E+03 0.  0.
         35    2    3    3    0    0  0.10433609917E+02 -0.12031454089E+02  0.28417253502E+03  0.85074462684E+03  0.80172237984E+03 0.  0.
         22    1    5    5    0    0 -0.33680764063E+02 -0.10278814779E+03 -0.26822095396E+03  0.28920974627E+03  0.00000000000E+00 0. -1.
         22    1    5    5    0    0  0.44114373980E+02  0.90756693703E+02  0.55239348898E+03  0.56153488058E+03  0.00000000000E+00 0. -1.
          5    1    4    4  502    0  0.19355828533E+01  0.67955504296E+02 -0.50896243306E+02  0.85054186421E+02  0.47000000000E+01 0.  1.
         -5    1    4    4    0  502 -0.12369192770E+02 -0.55924050207E+02 -0.55735710283E+02  0.80056578256E+02  0.47000000000E+01 0.  1.
<mgrwt>
<rscale>  0 0.10002207E+04</rscale>
<asrwt>0</asrwt>
<pdfrwt beam="1">  1        1 0.91799690E-01 0.10002207E+04</pdfrwt>
<pdfrwt beam="2">  1       -1 0.64485755E-01 0.10002207E+04</pdfrwt>
<totfact> 0.98020265E+01</totfact>
</mgrwt>
</event>
<event>
 9    1  0.4307774E-036  0.1000821E+04  0.7818608E-02  0.8680256E-01
         -2   -1    0    0    0  501 -0.00000000000E+00  0.00000000000E+00  0.57345853825E+03  0.57345853825E+03  0.00000000000E+00 0.  1.
          2   -1    0    0  501    0  0.00000000000E+00 -0.00000000000E+00 -0.43666784279E+03  0.43666784279E+03  0.00000000000E+00 0.  1.
         36    2    1    2    0    0  0.28421709430E-13  0.14210854715E-13  0.13679069546E+03  0.10101263810E+04  0.10008214683E+04 0.  0.
         25    2    3    3    0    0  0.11725293150E+03 -0.76030489260E+02  0.11720169727E+02  0.18871944559E+03  0.12628848530E+03 0.  0.
         35    2    3    3    0    0 -0.11725293150E+03  0.76030489260E+02  0.12507052573E+03  0.82140693546E+03  0.79971109282E+03 0.  0.
         22    1    5    5    0    0  0.26173767749E+03  0.20794743165E+03 -0.11532075772E+03  0.35362073371E+03  0.00000000000E+00 0. -1.
         22    1    5    5    0    0 -0.37899060899E+03 -0.13191694239E+03  0.24039128345E+03  0.46778620176E+03  0.00000000000E+00 0. -1.
          5    1    4    4  502    0  0.10357068824E+03 -0.48472074926E+02  0.61563596465E+02  0.12995613075E+03  0.47000000000E+01 0.  1.
         -5    1    4    4    0  502  0.13682243266E+02 -0.27558414334E+02 -0.49843426739E+02  0.58763314836E+02  0.47000000000E+01 0.  1.
<mgrwt>
<rscale>  0 0.10008215E+04</rscale>
<asrwt>0</asrwt>
<pdfrwt beam="1">  1        2 0.67179668E-01 0.10008215E+04</pdfrwt>
<pdfrwt beam="2">  1       -2 0.88224391E-01 0.10008215E+04</pdfrwt>
<totfact> 0.95290893E+01</totfact>
</mgrwt>
</event>
<event>
 9    1  0.4307774E-036  0.9999990E+03  0.7818608E-02  0.8681039E-01
         -1   -1    0    0    0  501 -0.00000000000E+00  0.00000000000E+00  0.14797717568E+03  0.14797717568E+03  0.00000000000E+00 0. -1.
          1   -1    0    0  501    0  0.00000000000E+00 -0.00000000000E+00 -0.16894464506E+04  0.16894464506E+04  0.00000000000E+00 0. -1.
         36    2    1    2    0    0 -0.17763568394E-14  0.14210854715E-13 -0.15414692749E+04  0.18374236263E+04  0.99999902843E+03 0.  0.
         25    2    3    3    0    0 -0.70799108957E+01  0.12620697343E+03 -0.41419785772E+03  0.45023316531E+03  0.12317350576E+03 0.  0.
         35    2    3    3    0    0  0.70799108957E+01 -0.12620697343E+03 -0.11272714172E+04  0.13871904610E+04  0.79848494142E+03 0.  0.
         22    1    5    5    0    0  0.21399546810E+02  0.31268891928E+03 -0.23174359745E+03  0.38979147734E+03  0.00000000000E+00 0.  1.
         22    1    5    5    0    0 -0.14319635915E+02 -0.43889589271E+03 -0.89552781973E+03  0.99739898362E+03  0.00000000000E+00 0.  1.
          5    1    4    4  502    0  0.89253125821E+01  0.12113325646E+03 -0.19127808002E+03  0.22663256809E+03  0.47000000000E+01 0.  1.
         -5    1    4    4    0  502 -0.16005223478E+02  0.50737169699E+01 -0.22291977770E+03  0.22360059721E+03  0.47000000000E+01 0.  1.
<mgrwt>
<rscale>  0 0.99999903E+03</rscale>
<asrwt>0</asrwt>
<pdfrwt beam="1">  1        1 0.25991484E+00 0.99999903E+03</pdfrwt>
<pdfrwt beam="2">  1       -1 0.22765719E-01 0.99999903E+03</pdfrwt>
<totfact> 0.84869193E+01</totfact>
</mgrwt>
</event>
<event>
 9    1  0.4307774E-036  0.9998416E+03  0.7818608E-02  0.8681189E-01
          2   -1    0    0  501    0  0.00000000000E+00  0.00000000000E+00  0.14921140771E+04  0.14921140771E+04  0.00000000000E+00 0. -1.
         -2   -1    0    0    0  501 -0.00000000000E+00 -0.00000000000E+00 -0.16749444853E+03  0.16749444853E+03  0.00000000000E+00 0. -1.
         36    2    1    2    0    0  0.14210854715E-13  0.00000000000E+00  0.13246196285E+04  0.16596085256E+04  0.99984163643E+03 0.  0.
         25    2    3    3    0    0  0.61221793722E+02  0.82905855170E+02  0.94575132991E+02  0.18865235942E+03  0.12658502316E+03 0.  0.
         35    2    3    3    0    0 -0.61221793722E+02 -0.82905855170E+02  0.12300444956E+04  0.14709561662E+04  0.80005068148E+03 0.  0.
         22    1    5    5    0    0  0.13413506875E+03  0.32473757267E+03  0.60425139979E+03  0.69897529421E+03  0.00000000000E+00 0. -1.
         22    1    5    5    0    0 -0.19535686247E+03 -0.40764342784E+03  0.62579309576E+03  0.77198087197E+03  0.00000000000E+00 0. -1.
          5    1    4    4  502    0  0.92747952837E+02  0.26304807397E+02  0.69863857913E+02  0.11915189587E+03  0.47000000000E+01 0. -1.
         -5    1    4    4    0  502 -0.31526159115E+02  0.56601047773E+02  0.24711275078E+02  0.69500463549E+02  0.47000000000E+01 0. -1.
<mgrwt>
<rscale>  0 0.99984164E+03</rscale>
<asrwt>0</asrwt>
<pdfrwt beam="1">  1        2 0.22955600E+00 0.99984164E+03</pdfrwt>
<pdfrwt beam="2">  1       -2 0.25768378E-01 0.99984164E+03</pdfrwt>
<totfact> 0.20808254E+02</totfact>
</mgrwt>
</event>
<event>
 9    1  0.4307774E-036  0.1000905E+04  0.7818608E-02  0.8680177E-01
          3   -1    0    0  501    0  0.00000000000E+00  0.00000000000E+00  0.50047936400E+03  0.50047936400E+03  0.00000000000E+00 0.  1.
         -3   -1    0    0    0  501 -0.00000000000E+00 -0.00000000000E+00 -0.50042541597E+03  0.50042541597E+03  0.00000000000E+00 0.  1.
         36    2    1    2    0    0  0.28421709430E-13 -0.35527136788E-14  0.53948032492E-01  0.10009047800E+04  0.10009047785E+04 0.  0.
         25    2    3    3    0    0  0.12544213185E+03  0.28777055303E+02 -0.58387031895E+02  0.18857248491E+03  0.12484666282E+03 0.  0.
         35    2    3    3    0    0 -0.12544213185E+03 -0.28777055303E+02  0.58440979927E+02  0.81233229506E+03  0.79994034909E+03 0.  0.
         22    1    5    5    0    0 -0.32256782863E+03 -0.42172578539E+02 -0.27418627657E+03  0.42544875685E+03  0.00000000000E+00 0. -1.
         22    1    5    5    0    0  0.19712569677E+03  0.13395523236E+02  0.33262725650E+03  0.38688353821E+03  0.00000000000E+00 0. -1.
          5    1    4    4  502    0  0.49804781806E+02 -0.51330774635E+00  0.37771141822E+02  0.62685954807E+02  0.47000000000E+01 0.  1.
         -5    1    4    4    0  502  0.75637350045E+02  0.29290363049E+02 -0.96158173717E+02  0.12588653011E+03  0.47000000000E+01 0.  1.
<mgrwt>
<rscale>  0 0.10009048E+04</rscale>
<asrwt>0</asrwt>
<pdfrwt beam="1">  1        3 0.76996826E-01 0.10009048E+04</pdfrwt>
<pdfrwt beam="2">  1       -3 0.76988525E-01 0.10009048E+04</pdfrwt>
<totfact> 0.99811916E+00</totfact>
</mgrwt>
</event>
<event>
 9    1  0.4307774E-036  0.9998547E+03  0.7818608E-02  0.8681176E-01
         -2   -1    0    0    0  501 -0.00000000000E+00  0.00000000000E+00  0.27557284217E+03  0.27557284217E+03  0.00000000000E+00 0.  1.
          2   -1    0    0  501    0  0.00000000000E+00 -0.00000000000E+00 -0.90693760003E+03  0.90693760003E+03  0.00000000000E+00 0.  1.
         36    2    1    2    0    0  0.28421709430E-13  0.00000000000E+00 -0.63136475786E+03  0.11825104422E+04  0.99985473367E+03 0.  0.
         25    2    3    3    0    0 -0.11136194395E+03  0.79882978604E+02 -0.99557820698E+02  0.21051170278E+03  0.12498257685E+03 0.  0.
         35    2    3    3    0    0  0.11136194395E+03 -0.79882978604E+02 -0.53180693716E+03  0.97199873942E+03  0.80198513589E+03 0.  0.
         22    1    5    5    0    0  0.42672115492E+03  0.11516884624E+03 -0.31082255326E+03  0.54033828924E+03  0.00000000000E+00 0.  1.
         22    1    5    5    0    0 -0.31535921097E+03 -0.19505182485E+03 -0.22098438390E+03  0.43166045018E+03  0.00000000000E+00 0.  1.
          5    1    4    4  502    0 -0.10702893999E+03  0.18682780487E+01 -0.60103465320E+02  0.12285438943E+03  0.47000000000E+01 0. -1.
         -5    1    4    4    0  502 -0.43330039580E+01  0.78014700555E+02 -0.39454355378E+02  0.87657313353E+02  0.47000000000E+01 0. -1.
<mgrwt>
<rscale>  0 0.99985473E+03</rscale>
<asrwt>0</asrwt>
<pdfrwt beam="1">  1        2 0.13952886E+00 0.99985473E+03</pdfrwt>
<pdfrwt beam="2">  1       -2 0.42395822E-01 0.99985473E+03</pdfrwt>
<totfact> 0.18504715E+02</totfact>
</mgrwt>
</event>
<event>
 9    1  0.4307774E-036  0.9990854E+03  0.7818608E-02  0.8681909E-01
          1   -1    0    0  501    0  0.00000000000E+00  0.00000000000E+00  0.11540298057E+04  0.11540298057E+04  0.00000000000E+00 0. -1.
         -1   -1    0    0    0  501 -0.00000000000E+00 -0.00000000000E+00 -0.21623612415E+03  0.21623612415E+03  0.00000000000E+00 0. -1.
         36    2    1    2    0    0  0.28421709430E-13  0.00000000000E+00  0.93779368156E+03  0.13702659299E+04  0.99908544648E+03 0.  0.
         25    2    3    3    0    0  0.12713176723E+03 -0.30418274957E+02  0.10538443156E+03  0.20807606659E+03  0.12289024933E+03 0.  0.
         35    2    3    3    0    0 -0.12713176723E+03  0.30418274957E+02  0.83240925000E+03  0.11621898633E+04  0.80043260873E+03 0.  0.
         22    1    5    5    0    0  0.31302866950E+03  0.88376277877E+02  0.54062077757E+03  0.63092641374E+03  0.00000000000E+00 0. -1.
         22    1    5    5    0    0 -0.44016043673E+03 -0.57958002921E+02  0.29178847244E+03  0.53126344954E+03  0.00000000000E+00 0. -1.
          5    1    4    4  502    0  0.89803965845E+02 -0.65111753037E+02  0.11050277060E+03  0.15664368795E+03  0.47000000000E+01 0. -1.
         -5    1    4    4    0  502  0.37327801387E+02  0.34693478080E+02 -0.51183390382E+01  0.51432378636E+02  0.47000000000E+01 0. -1.
<mgrwt>
<rscale>  0 0.99908545E+03</rscale>
<asrwt>0</asrwt>
<pdfrwt beam="1">  1        1 0.17754304E+00 0.99908545E+03</pdfrwt>
<pdfrwt beam="2">  1       -1 0.33267097E-01 0.99908545E+03</pdfrwt>
<totfact> 0.10859409E+02</totfact>
</mgrwt>
</event>
<event>
 9    1  0.4307774E-036  0.9997679E+03  0.7818608E-02  0.8681259E-01
         -2   -1    0    0    0  501 -0.00000000000E+00  0.00000000000E+00  0.24103190653E+03  0.24103190653E+03  0.00000000000E+00 0. -1.
          2   -1    0    0  501    0  0.00000000000E+00 -0.00000000000E+00 -0.10367257187E+04  0.10367257187E+04  0.00000000000E+00 0. -1.
         36    2    1    2    0    0 -0.14210854715E-13  0.71054273576E-14 -0.79569381216E+03  0.12777576252E+04  0.99976792611E+03 0.  0.
         25    2    3    3    0    0 -0.11514818105E+03 -0.59919334957E+02 -0.75949218459E+02  0.19542257369E+03  0.12478889463E+03 0.  0.
         35    2    3    3    0    0  0.11514818105E+03  0.59919334957E+02 -0.71974459370E+03  0.10823350515E+04  0.79785177402E+03 0.  0.
         22    1    5    5    0    0  0.40994131504E+03  0.14453242552E+03 -0.19916800282E+03  0.47813115058E+03  0.00000000000E+00 0. -1.
         22    1    5    5    0    0 -0.29479313400E+03 -0.84613090567E+02 -0.52057659088E+03  0.60420390094E+03  0.00000000000E+00 0. -1.
          5    1    4    4  502    0 -0.13231803977E+03 -0.28015140940E+02 -0.33502492571E+02  0.13941814365E+03  0.47000000000E+01 0. -1.
         -5    1    4    4    0  502  0.17169858728E+02 -0.31904194017E+02 -0.42446725888E+02  0.56004430032E+02  0.47000000000E+01 0. -1.
<mgrwt>
<rscale>  0 0.99976793E+03</rscale>
<asrwt>0</asrwt>
<pdfrwt beam="1">  1        2 0.15949626E+00 0.99976793E+03</pdfrwt>
<pdfrwt beam="2">  1       -2 0.37081832E-01 0.99976793E+03</pdfrwt>
<totfact> 0.19760947E+02</totfact>
</mgrwt>
</event>
<event>
 9    1  0.4307774E-036  0.9999981E+03  0.7818608E-02  0.8681040E-01
          2   -1    0    0  501    0  0.00000000000E+00  0.00000000000E+00  0.22802573695E+04  0.22802573695E+04  0.00000000000E+00 0.  1.
         -2   -1    0    0    0  501 -0.00000000000E+00 -0.00000000000E+00 -0.10963631977E+03  0.10963631977E+03  0.00000000000E+00 0.  1.
         36    2    1    2    0    0 -0.10658141036E-13 -0.28421709430E-13  0.21706210498E+04  0.23898936893E+04  0.99999805225E+03 0.  0.
         25    2    3    3    0    0  0.11630248067E+02  0.11523586424E+03  0.21836566345E+03  0.27735462533E+03  0.12580722611E+03 0.  0.
         35    2    3    3    0    0 -0.11630248067E+02 -0.11523586424E+03  0.19522553863E+04  0.21125390640E+04  0.79881514529E+03 0.  0.
         22    1    5    5    0    0  0.18616080458E+03  0.52954196315E+02  0.18024017093E+04  0.18127636122E+04  0.00000000000E+00 0. -1.
         22    1    5    5    0    0 -0.19779105265E+03 -0.16819006055E+03  0.14985367706E+03  0.29977545181E+03  0.00000000000E+00 0. -1.
          5    1    4    4  502    0 -0.22670838699E+02  0.23458609652E+02  0.15968646171E+03  0.16305253555E+03  0.47000000000E+01 0. -1.
         -5    1    4    4    0  502  0.34301086765E+02  0.91777254587E+02  0.58679201739E+02  0.11430208979E+03  0.47000000000E+01 0. -1.
<mgrwt>
<rscale>  0 0.99999805E+03</rscale>
<asrwt>0</asrwt>
<pdfrwt beam="1">  1        2 0.35080879E+00 0.99999805E+03</pdfrwt>
<pdfrwt beam="2">  1       -2 0.16867128E-01 0.99999805E+03</pdfrwt>
<totfact> 0.15460068E+02</totfact>
</mgrwt>
</event>
<event>
 9    1  0.4307774E-036  0.9992016E+03  0.7818608E-02  0.8681799E-01
          1   -1    0    0  501    0  0.00000000000E+00  0.00000000000E+00  0.43321086055E+03  0.43321086055E+03  0.00000000000E+00 0. -1.
         -1   -1    0    0    0  501 -0.00000000000E+00 -0.00000000000E+00 -0.57616506834E+03  0.57616506834E+03  0.00000000000E+00 0. -1.
         36    2    1    2    0    0 -0.21316282073E-13  0.71054273576E-14 -0.14295420779E+03  0.10093759289E+04  0.99920161143E+03 0.  0.
         25    2    3    3    0    0  0.52770119914E+02 -0.43230141358E+02 -0.14875588018E+03  0.20605496959E+03  0.12520706022E+03 0.  0.
         35    2    3    3    0    0 -0.52770119914E+02  0.43230141358E+02  0.58016723867E+01  0.80332095929E+03  0.80039825934E+03 0.  0.
         22    1    5    5    0    0  0.13229951986E+03  0.17838881889E+03  0.33516685826E+03  0.40207282491E+03  0.00000000000E+00 0.  1.
         22    1    5    5    0    0 -0.18506963978E+03 -0.13515867753E+03 -0.32936518587E+03  0.40124813438E+03  0.00000000000E+00 0.  1.
          5    1    4    4  502    0  0.44639120365E+02 -0.67805457769E+02 -0.15838481040E+03  0.17803951622E+03  0.47000000000E+01 0.  1.
         -5    1    4    4    0  502  0.81309995489E+01  0.24575316411E+02  0.96289302233E+01  0.28015453372E+02  0.47000000000E+01 0.  1.
<mgrwt>
<rscale>  0 0.99920161E+03</rscale>
<asrwt>0</asrwt>
<pdfrwt beam="1">  1        1 0.66647824E-01 0.99920161E+03</pdfrwt>
<pdfrwt beam="2">  1       -1 0.88640780E-01 0.99920161E+03</pdfrwt>
<totfact> 0.80073225E+01</totfact>
</mgrwt>
</event>
<event>
 9    1  0.4307774E-036  0.9993317E+03  0.7818608E-02  0.8681675E-01
          2   -1    0    0  501    0  0.00000000000E+00  0.00000000000E+00  0.35811280724E+03  0.35811280724E+03  0.00000000000E+00 0. -1.
         -2   -1    0    0    0  501 -0.00000000000E+00 -0.00000000000E+00 -0.69717122770E+03  0.69717122770E+03  0.00000000000E+00 0. -1.
         36    2    1    2    0    0 -0.14210854715E-13 -0.14210854715E-13 -0.33905842045E+03  0.10552840349E+04  0.99933166763E+03 0.  0.
         25    2    3    3    0    0  0.31657400230E+02 -0.11331779633E+03 -0.14044270277E+03  0.22218263192E+03  0.12568951909E+03 0.  0.
         35    2    3    3    0    0 -0.31657400230E+02  0.11331779633E+03 -0.19861571769E+03  0.83310140302E+03  0.80047900063E+03 0.  0.
         22    1    5    5    0    0  0.29770123672E+03 -0.19601523118E+03 -0.10595871622E+03  0.37185379754E+03  0.00000000000E+00 0. -1.
         22    1    5    5    0    0 -0.32935863696E+03  0.30933302751E+03 -0.92657001466E+02  0.46124760549E+03  0.00000000000E+00 0. -1.
          5    1    4    4  502    0  0.65093587286E+02 -0.99887662889E+02 -0.14241360573E+03  0.18579140292E+03  0.47000000000E+01 0.  1.
         -5    1    4    4    0  502 -0.33436187056E+02 -0.13430133445E+02  0.19709029621E+01  0.36391228994E+02  0.47000000000E+01 0.  1.
<mgrwt>
<rscale>  0 0.99933167E+03</rscale>
<asrwt>0</asrwt>
<pdfrwt beam="1">  1        2 0.55094279E-01 0.99933167E+03</pdfrwt>
<pdfrwt beam="2">  1       -2 0.10725711E+00 0.99933167E+03</pdfrwt>
<totfact> 0.74311287E+01</totfact>
</mgrwt>
</event>
<event>
 9    1  0.4307774E-036  0.1000324E+04  0.7818608E-02  0.8680730E-01
         -1   -1    0    0    0  501 -0.00000000000E+00  0.00000000000E+00  0.21769214414E+03  0.21769214414E+03  0.00000000000E+00 0. -1.
          1   -1    0    0  501    0  0.00000000000E+00 -0.00000000000E+00 -0.11491546142E+04  0.11491546142E+04  0.00000000000E+00 0. -1.
         36    2    1    2    0    0  0.71054273576E-14 -0.14210854715E-13 -0.93146247003E+03  0.13668467583E+04  0.10003238114E+04 0.  0.
         25    2    3    3    0    0  0.32849881642E+02  0.10543730987E+03 -0.55340888111E+02  0.17529070861E+03  0.12437072643E+03 0.  0.
         35    2    3    3    0    0 -0.32849881642E+02 -0.10543730987E+03 -0.87612158192E+03  0.11915560497E+04  0.80001290753E+03 0.  0.
         22    1    5    5    0    0 -0.34575171095E+03  0.17454484855E+02 -0.12400680736E+03  0.36773168607E+03  0.00000000000E+00 0.  1.
         22    1    5    5    0    0  0.31290182931E+03 -0.12289179472E+03 -0.75211477456E+03  0.82382436363E+03  0.00000000000E+00 0.  1.
          5    1    4    4  502    0  0.23269371748E+02 -0.13142859238E+02 -0.49062172312E+02  0.56065900175E+02  0.47000000000E+01 0. -1.
         -5    1    4    4    0  502  0.95805098938E+01  0.11858016910E+03 -0.62787157997E+01  0.11922480844E+03  0.47000000000E+01 0. -1.
<mgrwt>
<rscale>  0 0.10003238E+04</rscale>
<asrwt>0</asrwt>
<pdfrwt beam="1">  1        1 0.17679302E+00 0.10003238E+04</pdfrwt>
<pdfrwt beam="2">  1       -1 0.33491100E-01 0.10003238E+04</pdfrwt>
<totfact> 0.10824106E+02</totfact>
</mgrwt>
</event>
<event>
 9    1  0.4307774E-036  0.9998597E+03  0.7818608E-02  0.8681172E-01
         -2   -1    0    0    0  501 -0.00000000000E+00  0.00000000000E+00  0.24798277911E+03  0.24798277911E+03  0.00000000000E+00 0.  1.
          2   -1    0    0  501    0  0.00000000000E+00 -0.00000000000E+00 -0.10078517422E+04  0.10078517422E+04  0.00000000000E+00 0.  1.
         36    2    1    2    0    0 -0.14210854715E-13  0.35527136788E-14 -0.75986896309E+03  0.12558345213E+04  0.99985974209E+03 0.  0.
         25    2    3    3    0    0 -0.77823480056E+02 -0.17185480321E+02  0.22067983462E+01  0.14779452038E+03  0.12444482920E+03 0.  0.
         35    2    3    3    0    0  0.77823480056E+02  0.17185480321E+02 -0.76207576144E+03  0.11080400009E+04  0.80040073883E+03 0.  0.
         22    1    5    5    0    0  0.11954431768E+02 -0.16875190887E+02  0.17088754510E+03  0.17213434746E+03  0.00000000000E+00 0.  1.
         22    1    5    5    0    0  0.65869048287E+02  0.34060671208E+02 -0.93296330654E+03  0.93590565347E+03  0.00000000000E+00 0.  1.
          5    1    4    4  502    0 -0.22933363145E+02 -0.64204364149E+02 -0.21408622244E+02  0.71613955534E+02  0.47000000000E+01 0. -1.
         -5    1    4    4    0  502 -0.54890116910E+02  0.47018883827E+02  0.23615420590E+02  0.76180564847E+02  0.47000000000E+01 0. -1.
<mgrwt>
<rscale>  0 0.99985974E+03</rscale>
<asrwt>0</asrwt>
<pdfrwt beam="1">  1        2 0.15505412E+00 0.99985974E+03</pdfrwt>
<pdfrwt beam="2">  1       -2 0.38151197E-01 0.99985974E+03</pdfrwt>
<totfact> 0.19518232E+02</totfact>
</mgrwt>
</event>
<event>
 9    1  0.4307774E-036  0.9961365E+03  0.7818608E-02  0.8684726E-01
          2   -1    0    0  501    0  0.00000000000E+00  0.00000000000E+00  0.10934006672E+04  0.10934006672E+04  0.00000000000E+00 0.  1.
         -2   -1    0    0    0  501 -0.00000000000E+00 -0.00000000000E+00 -0.22688112665E+03  0.22688112665E+03  0.00000000000E+00 0.  1.
         36    2    1    2    0    0  0.00000000000E+00 -0.28421709430E-13  0.86651954051E+03  0.13202817938E+04  0.99613648713E+03 0.  0.
         25    2    3    3    0    0  0.89572428253E+02 -0.10199744473E+03  0.18881527342E+03  0.26322932590E+03  0.12333601218E+03 0.  0.
         35    2    3    3    0    0 -0.89572428253E+02  0.10199744473E+03  0.67770426709E+03  0.10570524679E+04  0.79978131240E+03 0.  0.
         22    1    5    5    0    0  0.31993396549E+03  0.25742856439E+02  0.83965260988E+02  0.33176889846E+03  0.00000000000E+00 0. -1.
         22    1    5    5    0    0 -0.40950639374E+03  0.76254588296E+02  0.59373900610E+03  0.72528356946E+03  0.00000000000E+00 0. -1.
          5    1    4    4  502    0  0.73542886449E+02 -0.34959539995E+00  0.11467123882E+03  0.13630943246E+03  0.47000000000E+01 0.  1.
         -5    1    4    4    0  502  0.16029541804E+02 -0.10164784933E+03  0.74144034598E+02  0.12691989344E+03  0.47000000000E+01 0.  1.
<mgrwt>
<rscale>  0 0.99613649E+03</rscale>
<asrwt>0</asrwt>
<pdfrwt beam="1">  1        2 0.16821548E+00 0.99613649E+03</pdfrwt>
<pdfrwt beam="2">  1       -2 0.34904789E-01 0.99613649E+03</pdfrwt>
<totfact> 0.20432525E+02</totfact>
</mgrwt>
</event>
<event>
 9    1  0.4307774E-036  0.1000047E+04  0.7818608E-02  0.8680993E-01
          2   -1    0    0  501    0  0.00000000000E+00  0.00000000000E+00  0.29293739426E+03  0.29293739426E+03  0.00000000000E+00 0. -1.
         -2   -1    0    0    0  501 -0.00000000000E+00 -0.00000000000E+00 -0.85350534497E+03  0.85350534497E+03  0.00000000000E+00 0. -1.
         36    2    1    2    0    0 -0.71054273576E-14 -0.21316282073E-13 -0.56056795070E+03  0.11464427392E+04  0.10000472624E+04 0.  0.
         25    2    3    3    0    0  0.35758167072E+02  0.61668800558E+02 -0.23933181062E+03  0.27865444003E+03  0.12364017915E+03 0.  0.
         35    2    3    3    0    0 -0.35758167072E+02 -0.61668800558E+02 -0.32123614008E+03  0.86778829920E+03  0.80298330434E+03 0.  0.
         22    1    5    5    0    0  0.31427506420E+03  0.62552872313E+02 -0.37415083626E+03  0.49261600267E+03  0.00000000000E+00 0. -1.
         22    1    5    5    0    0 -0.35003323128E+03 -0.12422167287E+03  0.52914696173E+02  0.37517229652E+03  0.00000000000E+00 0. -1.
          5    1    4    4  502    0 -0.40004107321E+02 -0.30555162057E+01 -0.46862899092E+02  0.61869912665E+02  0.47000000000E+01 0. -1.
         -5    1    4    4    0  502  0.75762274394E+02  0.64724316764E+02 -0.19246891153E+03  0.21678452737E+03  0.47000000000E+01 0. -1.
<mgrwt>
<rscale>  0 0.10000473E+04</rscale>
<asrwt>0</asrwt>
<pdfrwt beam="1">  1        2 0.45067292E-01 0.10000473E+04</pdfrwt>
<pdfrwt beam="2">  1       -2 0.13130851E+00 0.10000473E+04</pdfrwt>
<totfact> 0.55051470E+01</totfact>
</mgrwt>
</event>
<event>
 9    1  0.4307774E-036  0.9999190E+03  0.7818608E-02  0.8681115E-01
          2   -1    0    0  501    0  0.00000000000E+00  0.00000000000E+00  0.11030782786E+04  0.11030782786E+04  0.00000000000E+00 0. -1.
         -2   -1    0    0    0  501 -0.00000000000E+00 -0.00000000000E+00 -0.22660180019E+03  0.22660180019E+03  0.00000000000E+00 0. -1.
         36    2    1    2    0    0  0.28421709430E-13 -0.14210854715E-13  0.87647647842E+03  0.13296800788E+04  0.99991904410E+03 0.  0.
         25    2    3    3    0    0 -0.61013336510E+02  0.99340158884E+02  0.26767362755E+03  0.31772187372E+03  0.12532726659E+03 0.  0.
         35    2    3    3    0    0  0.61013336510E+02 -0.99340158884E+02  0.60880285086E+03  0.10119582051E+04  0.79989211974E+03 0.  0.
         22    1    5    5    0    0  0.39308993393E+03 -0.53711756942E+02  0.11127979009E+03  0.41205320126E+03  0.00000000000E+00 0.  1.
         22    1    5    5    0    0 -0.33207659742E+03 -0.45628401942E+02  0.49752306077E+03  0.59990500382E+03  0.00000000000E+00 0.  1.
          5    1    4    4  502    0 -0.16482486150E+02  0.95848659802E+02  0.25199112910E+03  0.27014858334E+03  0.47000000000E+01 0. -1.
         -5    1    4    4    0  502 -0.44530850360E+02  0.34914990821E+01  0.15682498454E+02  0.47573290378E+02  0.47000000000E+01 0. -1.
<mgrwt>
<rscale>  0 0.99991904E+03</rscale>
<asrwt>0</asrwt>
<pdfrwt beam="1">  1        2 0.16970435E+00 0.99991904E+03</pdfrwt>
<pdfrwt beam="2">  1       -2 0.34861816E-01 0.99991904E+03</pdfrwt>
<totfact> 0.20203913E+02</totfact>
</mgrwt>
</event>
<event>
 9    1  0.4307774E-036  0.9996481E+03  0.7818608E-02  0.8681373E-01
          2   -1    0    0  501    0  0.00000000000E+00  0.00000000000E+00  0.76442634953E+03  0.76442634953E+03  0.00000000000E+00 0. -1.
         -2   -1    0    0    0  501 -0.00000000000E+00 -0.00000000000E+00 -0.32681248142E+03  0.32681248142E+03  0.00000000000E+00 0. -1.
         36    2    1    2    0    0  0.35527136788E-13 -0.28421709430E-13  0.43761386811E+03  0.10912388309E+04  0.99964808238E+03 0.  0.
         25    2    3    3    0    0 -0.10101433261E+02  0.13222999662E+03  0.23148581969E+02  0.18339030056E+03  0.12453647872E+03 0.  0.
         35    2    3    3    0    0  0.10101433261E+02 -0.13222999662E+03  0.41446528614E+03  0.90784853039E+03  0.79675634278E+03 0.  0.
         22    1    5    5    0    0 -0.34452225219E+03  0.56943798452E+02  0.28086275013E+02  0.35032416028E+03  0.00000000000E+00 0.  1.
         22    1    5    5    0    0  0.35462368545E+03 -0.18917379507E+03  0.38637901113E+03  0.55752437011E+03  0.00000000000E+00 0.  1.
          5    1    4    4  502    0 -0.36640958276E+02  0.57411619635E+02  0.64357590136E+02  0.93822402978E+02  0.47000000000E+01 0.  1.
         -5    1    4    4    0  502  0.26539525015E+02  0.74818376982E+02 -0.41209008167E+02  0.89567897577E+02  0.47000000000E+01 0.  1.
<mgrwt>
<rscale>  0 0.99964808E+03</rscale>
<asrwt>0</asrwt>
<pdfrwt beam="1">  1        2 0.11760405E+00 0.99964808E+03</pdfrwt>
<pdfrwt beam="2">  1       -2 0.50278843E-01 0.99964808E+03</pdfrwt>
<totfact> 0.16565326E+02</totfact>
</mgrwt>
</event>
<event>
 9    1  0.4307774E-036  0.9999618E+03  0.7818608E-02  0.8681074E-01
         -1   -1    0    0    0  501 -0.00000000000E+00  0.00000000000E+00  0.54486601205E+03  0.54486601205E+03  0.00000000000E+00 0. -1.
          1   -1    0    0  501    0  0.00000000000E+00 -0.00000000000E+00 -0.45879338054E+03  0.45879338054E+03  0.00000000000E+00 0. -1.
         36    2    1    2    0    0 -0.25757174171E-13  0.14210854715E-13  0.86072631511E+02  0.10036593926E+04  0.99996183849E+03 0.  0.
         25    2    3    3    0    0  0.21233001189E+01 -0.32700307444E+02 -0.11806396579E+03  0.17714484450E+03  0.12793505151E+03 0.  0.
         35    2    3    3    0    0 -0.21233001189E+01  0.32700307444E+02  0.20413659730E+03  0.82651454808E+03  0.80023792045E+03 0.  0.
         22    1    5    5    0    0 -0.18862617483E+03  0.29219347378E+03 -0.12328580130E+03  0.36899356194E+03  0.00000000000E+00 0. -1.
         22    1    5    5    0    0  0.18650287471E+03 -0.25949316634E+03  0.32742239860E+03  0.45752098614E+03  0.00000000000E+00 0. -1.
          5    1    4    4  502    0  0.43183785715E+01  0.26309733581E+02 -0.11465642156E+03  0.11780931831E+03  0.47000000000E+01 0.  1.
         -5    1    4    4    0  502 -0.21950784527E+01 -0.59010041025E+02 -0.34075442269E+01  0.59335526195E+02  0.47000000000E+01 0.  1.
<mgrwt>
<rscale>  0 0.99996184E+03</rscale>
<asrwt>0</asrwt>
<pdfrwt beam="1">  1        1 0.70583597E-01 0.99996184E+03</pdfrwt>
<pdfrwt beam="2">  1       -1 0.83825541E-01 0.99996184E+03</pdfrwt>
<totfact> 0.83421093E+01</totfact>
</mgrwt>
</event>
<event>
 9    1  0.4307774E-036  0.1000225E+04  0.7818608E-02  0.8680824E-01
          1   -1    0    0  501    0  0.00000000000E+00  0.00000000000E+00  0.15339801676E+04  0.15339801676E+04  0.00000000000E+00 0.  1.
         -1   -1    0    0    0  501 -0.00000000000E+00 -0.00000000000E+00 -0.16304797374E+03  0.16304797374E+03  0.00000000000E+00 0.  1.
         36    2    1    2    0    0 -0.14210854715E-13  0.00000000000E+00  0.13709321938E+04  0.16970281413E+04  0.10002246909E+04 0.  0.
         25    2    3    3    0    0  0.10896303795E+03 -0.79648923051E+02  0.19233271473E+03  0.26623292168E+03  0.12518466700E+03 0.  0.
         35    2    3    3    0    0 -0.10896303795E+03  0.79648923051E+02  0.11785994791E+04  0.14307952196E+04  0.79991332892E+03 0.  0.
         22    1    5    5    0    0  0.88130203215E+02 -0.47496726233E+02 -0.93660938559E+02  0.13709574440E+03  0.00000000000E+00 0. -1.
         22    1    5    5    0    0 -0.19709324117E+03  0.12714564928E+03  0.12722604177E+04  0.12936994752E+04  0.00000000000E+00 0. -1.
          5    1    4    4  502    0  0.38415885693E+02 -0.90121614655E+01  0.15424027351E+03  0.15927696413E+03  0.47000000000E+01 0. -1.
         -5    1    4    4    0  502  0.70547152257E+02 -0.70636761585E+02  0.38092441211E+02  0.10695595755E+03  0.47000000000E+01 0. -1.
<mgrwt>
<rscale>  0 0.10002247E+04</rscale>
<asrwt>0</asrwt>
<pdfrwt beam="1">  1        1 0.23599694E+00 0.10002247E+04</pdfrwt>
<pdfrwt beam="2">  1       -1 0.25084305E-01 0.10002247E+04</pdfrwt>
<totfact> 0.92951507E+01</totfact>
</mgrwt>
</event>
<event>
 9    1  0.4307774E-036  0.9999627E+03  0.7818608E-02  0.8681073E-01
         -1   -1    0    0    0  501 -0.00000000000E+00  0.00000000000E+00  0.37175477101E+03  0.37175477101E+03  0.00000000000E+00 0.  1.
          1   -1    0    0  501    0  0.00000000000E+00 -0.00000000000E+00 -0.67243617942E+03  0.67243617942E+03  0.00000000000E+00 0.  1.
         36    2    1    2    0    0  0.71054273576E-14  0.14210854715E-13 -0.30068140842E+03  0.10441909504E+04  0.99996271510E+03 0.  0.
         25    2    3    3    0    0 -0.44488947278E+01 -0.71307883829E+02 -0.18179862080E+03  0.23191352705E+03  0.12501415337E+03 0.  0.
         35    2    3    3    0    0  0.44488947278E+01  0.71307883829E+02 -0.11888278762E+03  0.81227742338E+03  0.80034797956E+03 0.  0.
         22    1    5    5    0    0  0.18420032169E+03  0.19174432435E+03  0.26260169770E+03  0.37370482478E+03  0.00000000000E+00 0.  1.
         22    1    5    5    0    0 -0.17975142696E+03 -0.12043644052E+03 -0.38148448532E+03  0.43857259860E+03  0.00000000000E+00 0.  1.
          5    1    4    4  502    0  0.13203520426E+02  0.33453484164E+02 -0.33109252279E+02  0.49109888422E+02  0.47000000000E+01 0.  1.
         -5    1    4    4    0  502 -0.17652415154E+02 -0.10476136799E+03 -0.14868936852E+03  0.18280363863E+03  0.47000000000E+01 0.  1.
<mgrwt>
<rscale>  0 0.99996272E+03</rscale>
<asrwt>0</asrwt>
<pdfrwt beam="1">  1        1 0.10345172E+00 0.99996272E+03</pdfrwt>
<pdfrwt beam="2">  1       -1 0.57193041E-01 0.99996272E+03</pdfrwt>
<totfact> 0.10338024E+02</totfact>
</mgrwt>
</event>
<event>
 9    1  0.4307774E-036  0.9995173E+03  0.7818608E-02  0.8681498E-01
         -2   -1    0    0    0  501 -0.00000000000E+00  0.00000000000E+00  0.12668162390E+03  0.12668162390E+03  0.00000000000E+00 0.  1.
          2   -1    0    0  501    0  0.00000000000E+00 -0.00000000000E+00 -0.19715463079E+04  0.19715463079E+04  0.00000000000E+00 0.  1.
         36    2    1    2    0    0  0.14210854715E-13 -0.26645352591E-14 -0.18448646840E+04  0.20982279318E+04  0.99951725924E+03 0.  0.
         25    2    3    3    0    0 -0.11111768065E+03  0.39429310150E+01 -0.18190163049E+03  0.24661014355E+03  0.12395835617E+03 0.  0.
         35    2    3    3    0    0  0.11111768065E+03 -0.39429310150E+01 -0.16629630535E+04  0.18516177882E+04  0.80664715383E+03 0.  0.
         22    1    5    5    0    0  0.35693198266E+03 -0.27278802262E+03 -0.95776266661E+03  0.10578861333E+04  0.00000000000E+00 0.  1.
         22    1    5    5    0    0 -0.24581430201E+03  0.26884509161E+03 -0.70520038689E+03  0.79373165492E+03  0.00000000000E+00 0.  1.
          5    1    4    4  502    0 -0.80748203295E+02 -0.51524717936E+00 -0.19635193615E+03  0.21235986119E+03  0.47000000000E+01 0. -1.
         -5    1    4    4    0  502 -0.30369477357E+02  0.44581781944E+01  0.14450305658E+02  0.34250282355E+02  0.47000000000E+01 0. -1.
<mgrwt>
<rscale>  0 0.99951726E+03</rscale>
<asrwt>0</asrwt>
<pdfrwt beam="1">  1        2 0.30331481E+00 0.99951726E+03</pdfrwt>
<pdfrwt beam="2">  1       -2 0.19489481E-01 0.99951726E+03</pdfrwt>
<totfact> 0.18195105E+02</totfact>
</mgrwt>
</event>
<event>
 9    1  0.4307774E-036  0.1000149E+04  0.7818608E-02  0.8680896E-01
          2   -1    0    0  501    0  0.00000000000E+00  0.00000000000E+00  0.73960871209E+03  0.73960871209E+03  0.00000000000E+00 0. -1.
         -2   -1    0    0    0  501 -0.00000000000E+00 -0.00000000000E+00 -0.33811708280E+03  0.33811708280E+03  0.00000000000E+00 0. -1.
         36    2    1    2    0    0  0.00000000000E+00 -0.28421709430E-13  0.40149162929E+03  0.10777257949E+04  0.10001486692E+04 0.  0.
         25    2    3    3    0    0  0.60832921728E+02 -0.11361801475E+03  0.19340586504E+02  0.18162821950E+03  0.12651108328E+03 0.  0.
         35    2    3    3    0    0 -0.60832921728E+02  0.11361801475E+03  0.38215104278E+03  0.89609757538E+03  0.80021356366E+03 0.  0.
         22    1    5    5    0    0 -0.38153346566E+03  0.24030525508E+03  0.13111689807E+03  0.46958070872E+03  0.00000000000E+00 0.  1.
         22    1    5    5    0    0  0.32070054393E+03 -0.12668724033E+03  0.25103414471E+03  0.42651686667E+03  0.00000000000E+00 0.  1.
          5    1    4    4  502    0 -0.27722241935E+01 -0.18369979020E+02  0.57661956686E+02  0.60762921301E+02  0.47000000000E+01 0. -1.
         -5    1    4    4    0  502  0.63605145922E+02 -0.95248035725E+02 -0.38321370182E+02  0.12086529820E+03  0.47000000000E+01 0. -1.
<mgrwt>
<rscale>  0 0.10001487E+04</rscale>
<asrwt>0</asrwt>
<pdfrwt beam="1">  1        2 0.11378596E+00 0.10001487E+04</pdfrwt>
<pdfrwt beam="2">  1       -2 0.52018013E-01 0.10001487E+04</pdfrwt>
<totfact> 0.16126970E+02</totfact>
</mgrwt>
</event>
<event>
 9    1  0.4307774E-036  0.9993926E+03  0.7818608E-02  0.8681617E-01
          1   -1    0    0  501    0  0.00000000000E+00  0.00000000000E+00  0.41102078745E+03  0.41102078745E+03  0.00000000000E+00 0.  1.
         -1   -1    0    0    0  501 -0.00000000000E+00 -0.00000000000E+00 -0.60750306881E+03  0.60750306881E+03  0.00000000000E+00 0.  1.
         36    2    1    2    0    0  0.00000000000E+00  0.21316282073E-13 -0.19648228136E+03  0.10185238563E+04  0.99939259497E+03 0.  0.
         25    2    3    3    0    0  0.12962759215E+03  0.29508634735E+02 -0.76820745860E+02  0.19829326838E+03  0.12547797066E+03 0.  0.
         35    2    3    3    0    0 -0.12962759215E+03 -0.29508634735E+02 -0.11966153550E+03  0.82023058787E+03  0.80049063831E+03 0.  0.
         22    1    5    5    0    0 -0.37020099340E+03  0.20628450186E+03  0.76168637708E+02  0.43058533718E+03  0.00000000000E+00 0. -1.
         22    1    5    5    0    0  0.24057340125E+03 -0.23579313659E+03 -0.19583017320E+03  0.38964525069E+03  0.00000000000E+00 0. -1.
          5    1    4    4  502    0  0.46230971755E+02  0.68672957980E+02 -0.64848666214E+02  0.10526498666E+03  0.47000000000E+01 0. -1.
         -5    1    4    4    0  502  0.83396620398E+02 -0.39164323245E+02 -0.11972079646E+02  0.93028281722E+02  0.47000000000E+01 0. -1.
<mgrwt>
<rscale>  0 0.99939259E+03</rscale>
<asrwt>0</asrwt>
<pdfrwt beam="1">  1        1 0.63233967E-01 0.99939259E+03</pdfrwt>
<pdfrwt beam="2">  1       -1 0.93462011E-01 0.99939259E+03</pdfrwt>
<totfact> 0.76681420E+01</totfact>
</mgrwt>
</event>
<event>
 9    1  0.4307774E-036  0.1000700E+04  0.7818608E-02  0.8680372E-01
         -2   -1    0    0    0  501 -0.00000000000E+00  0.00000000000E+00  0.79775462417E+02  0.79775462417E+02  0.00000000000E+00 0.  1.
          2   -1    0    0  501    0  0.00000000000E+00 -0.00000000000E+00 -0.31381853340E+04  0.31381853340E+04  0.00000000000E+00 0.  1.
         36    2    1    2    0    0 -0.28421709430E-13 -0.14210854715E-13 -0.30584098716E+04  0.32179607964E+04  0.10007001273E+04 0.  0.
         25    2    3    3    0    0 -0.11447737066E+03 -0.49170174805E+02 -0.76118258952E+03  0.78171412559E+03  0.12710336377E+03 0.  0.
         35    2    3    3    0    0  0.11447737066E+03  0.49170174805E+02 -0.22972272821E+04  0.24362466708E+04  0.80157462607E+03 0.  0.
         22    1    5    5    0    0  0.35551256877E+03 -0.26855628967E+02 -0.20566113476E+04  0.20872854731E+04  0.00000000000E+00 0. -1.
         22    1    5    5    0    0 -0.24103519811E+03  0.76025803772E+02 -0.24061593450E+03  0.34896119770E+03  0.00000000000E+00 0. -1.
          5    1    4    4  502    0 -0.30206909438E+02 -0.81915919424E+02 -0.37949433942E+03  0.38943641186E+03  0.47000000000E+01 0. -1.
         -5    1    4    4    0  502 -0.84270461225E+02  0.32745744619E+02 -0.38168825010E+03  0.39227771373E+03  0.47000000000E+01 0. -1.
<mgrwt>
<rscale>  0 0.10007001E+04</rscale>
<asrwt>0</asrwt>
<pdfrwt beam="1">  1        2 0.48279773E+00 0.10007001E+04</pdfrwt>
<pdfrwt beam="2">  1       -2 0.12273148E-01 0.10007001E+04</pdfrwt>
<totfact> 0.75276773E+01</totfact>
</mgrwt>
</event>
<event>
 9    1  0.4307774E-036  0.9998086E+03  0.7818608E-02  0.8681220E-01
          1   -1    0    0  501    0  0.00000000000E+00  0.00000000000E+00  0.13116364631E+04  0.13116364631E+04  0.00000000000E+00 0.  1.
         -1   -1    0    0    0  501 -0.00000000000E+00 -0.00000000000E+00 -0.19052863187E+03  0.19052863187E+03  0.00000000000E+00 0.  1.
         36    2    1    2    0    0 -0.12434497876E-13  0.00000000000E+00  0.11211078313E+04  0.15021650950E+04  0.99980858333E+03 0.  0.
         25    2    3    3    0    0  0.15098288658E+02  0.30857472196E+02  0.62574450955E+01  0.12946139195E+03  0.12466336461E+03 0.  0.
         35    2    3    3    0    0 -0.15098288658E+02 -0.30857472196E+02  0.11148503862E+04  0.13727037031E+04  0.80015244230E+03 0.  0.
         22    1    5    5    0    0  0.36394576667E+03 -0.73682934211E+02  0.78506783145E+03  0.86845678985E+03  0.00000000000E+00 0.  1.
         22    1    5    5    0    0 -0.37904405532E+03  0.42825462016E+02  0.32978255473E+03  0.50424691321E+03  0.00000000000E+00 0.  1.
          5    1    4    4  502    0 -0.15792491645E+02 -0.21274412145E+02 -0.43339961598E+02  0.51014171323E+02  0.47000000000E+01 0.  1.
         -5    1    4    4    0  502  0.30890780302E+02  0.52131884340E+02  0.49597406694E+02  0.78447220622E+02  0.47000000000E+01 0.  1.
<mgrwt>
<rscale>  0 0.99980858E+03</rscale>
<asrwt>0</asrwt>
<pdfrwt beam="1">  1        1 0.20179022E+00 0.99980858E+03</pdfrwt>
<pdfrwt beam="2">  1       -1 0.29312098E-01 0.99980858E+03</pdfrwt>
<totfact> 0.10314019E+02</totfact>
</mgrwt>
</event>
<event>
 9    1  0.4307774E-036  0.1000154E+04  0.7818608E-02  0.8680891E-01
          2   -1    0    0  501    0  0.00000000000E+00  0.00000000000E+00  0.24609714023E+04  0.24609714023E+04  0.00000000000E+00 0. -1.
         -2   -1    0    0    0  501 -0.00000000000E+00 -0.00000000000E+00 -0.10161727835E+03  0.10161727835E+03  0.00000000000E+00 0. -1.
         36    2    1    2    0    0 -0.42632564146E-13  0.35527136788E-13  0.23593541239E+04  0.25625886806E+04  0.10001544201E+04 0.  0.
         25    2    3    3    0    0  0.91566260863E+02 -0.51150898219E+02  0.19194246733E+03  0.24979421803E+03  0.12064180900E+03 0.  0.
         35    2    3    3    0    0 -0.91566260863E+02  0.51150898219E+02  0.21674116566E+04  0.23127944626E+04  0.80021506017E+03 0.  0.
         22    1    5    5    0    0 -0.30298373655E+03 -0.28091576081E+03  0.11374226763E+04  0.12101417908E+04  0.00000000000E+00 0.  1.
         22    1    5    5    0    0  0.21141747569E+03  0.33206665903E+03  0.10299889802E+04  0.11026526717E+04  0.00000000000E+00 0.  1.
          5    1    4    4  502    0  0.77052311367E+02 -0.19960193644E+02  0.31653337164E+02  0.85787480269E+02  0.47000000000E+01 0. -1.
         -5    1    4    4    0  502  0.14513949497E+02 -0.31190704575E+02  0.16028913017E+03  0.16400673776E+03  0.47000000000E+01 0. -1.
<mgrwt>
<rscale>  0 0.10001544E+04</rscale>
<asrwt>0</asrwt>
<pdfrwt beam="1">  1        2 0.37861094E+00 0.10001544E+04</pdfrwt>
<pdfrwt beam="2">  1       -2 0.15633429E-01 0.10001544E+04</pdfrwt>
<totfact> 0.13718526E+02</totfact>
</mgrwt>
</event>
<event>
 9    1  0.4307774E-036  0.1000550E+04  0.7818608E-02  0.8680514E-01
         -2   -1    0    0    0  501 -0.00000000000E+00  0.00000000000E+00  0.28387157758E+03  0.28387157758E+03  0.00000000000E+00 0. -1.
          2   -1    0    0  501    0  0.00000000000E+00 -0.00000000000E+00 -0.88164890735E+03  0.88164890735E+03  0.00000000000E+00 0. -1.
         36    2    1    2    0    0  0.21316282073E-13 -0.14210854715E-13 -0.59777732977E+03  0.11655204849E+04  0.10005499812E+04 0.  0.
         25    2    3    3    0    0  0.57110427387E+02  0.38984540055E+02 -0.25476630783E+03  0.29254424506E+03  0.12607485250E+03 0.  0.
         35    2    3    3    0    0 -0.57110427387E+02 -0.38984540055E+02 -0.34301102194E+03  0.87297623987E+03  0.79978094434E+03 0.  0.
         22    1    5    5    0    0 -0.26415702028E+03 -0.25380000595E+03 -0.42741179407E+03  0.56291581617E+03  0.00000000000E+00 0. -1.
         22    1    5    5    0    0  0.20704659289E+03  0.21481546589E+03  0.84400772126E+02  0.31006042371E+03  0.00000000000E+00 0. -1.
          5    1    4    4  502    0  0.10232786837E+00 -0.43476581946E+01 -0.20526731317E+03  0.20536716500E+03  0.47000000000E+01 0. -1.
         -5    1    4    4    0  502  0.57008099518E+02  0.43332198250E+02 -0.49498994654E+02  0.87177080059E+02  0.47000000000E+01 0. -1.
<mgrwt>
<rscale>  0 0.10005500E+04</rscale>
<asrwt>0</asrwt>
<pdfrwt beam="1">  1        2 0.13563829E+00 0.10005500E+04</pdfrwt>
<pdfrwt beam="2">  1       -2 0.43672550E-01 0.10005500E+04</pdfrwt>
<totfact> 0.18154237E+02</totfact>
</mgrwt>
</event>
<event>
 9    1  0.4307774E-036  0.9998985E+03  0.7818608E-02  0.8681135E-01
         -2   -1    0    0    0  501 -0.00000000000E+00  0.00000000000E+00  0.13656185181E+03  0.13656185181E+03  0.00000000000E+00 0. -1.
          2   -1    0    0  501    0  0.00000000000E+00 -0.00000000000E+00 -0.18303007077E+04  0.18303007077E+04  0.00000000000E+00 0. -1.
         36    2    1    2    0    0 -0.14210854715E-13 -0.71054273576E-14 -0.16937388559E+04  0.19668625595E+04  0.99989850286E+03 0.  0.
         25    2    3    3    0    0  0.91625679711E+02 -0.26340941115E+02 -0.51557127324E+03  0.53919000194E+03  0.12578954660E+03 0.  0.
         35    2    3    3    0    0 -0.91625679711E+02  0.26340941115E+02 -0.11781675826E+04  0.14276725575E+04  0.80067532025E+03 0.  0.
         22    1    5    5    0    0 -0.14791669365E+03 -0.67099180687E+02 -0.12728838157E+04  0.12832049161E+04  0.00000000000E+00 0.  1.
         22    1    5    5    0    0  0.56291013944E+02  0.93440121802E+02  0.94716233111E+02  0.14446764146E+03  0.00000000000E+00 0.  1.
          5    1    4    4  502    0  0.89833963703E+02 -0.26765255925E+02 -0.52236318344E+03  0.53072771303E+03  0.47000000000E+01 0.  1.
         -5    1    4    4    0  502  0.17917160076E+01  0.42431480996E+00  0.67919102039E+01  0.84622889060E+01  0.47000000000E+01 0.  1.
<mgrwt>
<rscale>  0 0.99989850E+03</rscale>
<asrwt>0</asrwt>
<pdfrwt beam="1">  1        2 0.28158471E+00 0.99989850E+03</pdfrwt>
<pdfrwt beam="2">  1       -2 0.21009517E-01 0.99989850E+03</pdfrwt>
<totfact> 0.19207163E+02</totfact>
</mgrwt>
</event>
<event>
 9    1  0.4307774E-036  0.1000727E+04  0.7818608E-02  0.8680346E-01
          1   -1    0    0  501    0  0.00000000000E+00  0.00000000000E+00  0.80692918380E+03  0.80692918380E+03  0.00000000000E+00 0. -1.
         -1   -1    0    0    0  501 -0.00000000000E+00 -0.00000000000E+00 -0.31026744496E+03  0.31026744496E+03  0.00000000000E+00 0. -1.
         36    2    1    2    0    0  0.14210854715E-13 -0.14210854715E-13  0.49666173883E+03  0.11171966288E+04  0.10007274477E+04 0.  0.
         25    2    3    3    0    0 -0.78611488749E+02  0.11028670132E+03  0.43760470016E+02  0.18760960281E+03  0.12222709060E+03 0.  0.
         35    2    3    3    0    0  0.78611488749E+02 -0.11028670132E+03  0.45290126881E+03  0.92958702595E+03  0.80041836365E+03 0.  0.
         22    1    5    5    0    0  0.24018079582E+03  0.21299356350E+03 -0.34440236255E+02  0.32286096489E+03  0.00000000000E+00 0. -1.
         22    1    5    5    0    0 -0.16156930708E+03 -0.32328026482E+03  0.48734150507E+03  0.60672606107E+03  0.00000000000E+00 0. -1.
          5    1    4    4  502    0 -0.26060069512E+02  0.85860398173E+02  0.78983616146E+02  0.11963125351E+03  0.47000000000E+01 0.  1.
         -5    1    4    4    0  502 -0.52551419237E+02  0.24426303150E+02 -0.35223146130E+02  0.67978349294E+02  0.47000000000E+01 0.  1.
<mgrwt>
<rscale>  0 0.10007274E+04</rscale>
<asrwt>0</asrwt>
<pdfrwt beam="1">  1        1 0.12414295E+00 0.10007274E+04</pdfrwt>
<pdfrwt beam="2">  1       -1 0.47733453E-01 0.10007274E+04</pdfrwt>
<totfact> 0.10877792E+02</totfact>
</mgrwt>
</event>
<event>
 9    1  0.4307774E-036  0.1000899E+04  0.7818608E-02  0.8680182E-01
         -1   -1    0    0    0  501 -0.00000000000E+00  0.00000000000E+00  0.58103063526E+03  0.58103063526E+03  0.00000000000E+00 0.  1.
          1   -1    0    0  501    0  0.00000000000E+00 -0.00000000000E+00 -0.43104383499E+03  0.43104383499E+03  0.00000000000E+00 0.  1.
         36    2    1    2    0    0  0.00000000000E+00  0.00000000000E+00  0.14998680028E+03  0.10120744703E+04  0.10008989425E+04 0.  0.
         25    2    3    3    0    0  0.16266875595E+02 -0.20829822146E+02  0.16977628154E+03  0.21224113210E+03  0.12459462127E+03 0.  0.
         35    2    3    3    0    0 -0.16266875595E+02  0.20829822146E+02 -0.19789481262E+02  0.79983333815E+03  0.79915158294E+03 0.  0.
         22    1    5    5    0    0 -0.85963713108E+02  0.16283569736E+03 -0.37125497082E+03  0.41440979437E+03  0.00000000000E+00 0.  1.
         22    1    5    5    0    0  0.69696837513E+02 -0.14200587521E+03  0.35146548956E+03  0.38542354379E+03  0.00000000000E+00 0.  1.
          5    1    4    4  502    0  0.16882018649E+02 -0.30368321590E+02  0.18794117629E+03  0.19118371597E+03  0.47000000000E+01 0.  1.
         -5    1    4    4    0  502 -0.61514305407E+00  0.95384994433E+01 -0.18164894748E+02  0.21057416124E+02  0.47000000000E+01 0.  1.
<mgrwt>
<rscale>  0 0.10008989E+04</rscale>
<asrwt>0</asrwt>
<pdfrwt beam="1">  1        1 0.66314437E-01 0.10008989E+04</pdfrwt>
<pdfrwt beam="2">  1       -1 0.89389328E-01 0.10008989E+04</pdfrwt>
<totfact> 0.79164669E+01</totfact>
</mgrwt>
</event>
<event>
 9    1  0.4307774E-036  0.1000502E+04  0.7818608E-02  0.8680560E-01
         -2   -1    0    0    0  501 -0.00000000000E+00  0.00000000000E+00  0.73053615639E+03  0.73053615639E+03  0.00000000000E+00 0. -1.
          2   -1    0    0  501    0  0.00000000000E+00 -0.00000000000E+00 -0.34255840289E+03  0.34255840289E+03  0.00000000000E+00 0. -1.
         36    2    1    2    0    0  0.14210854715E-13  0.00000000000E+00  0.38797775349E+03  0.10730945593E+04  0.10005024717E+04 0.  0.
         25    2    3    3    0    0 -0.77687781857E+00 -0.10634513361E+03  0.17140263039E+03  0.23751611111E+03  0.12539996153E+03 0.  0.
         35    2    3    3    0    0  0.77687781857E+00  0.10634513361E+03  0.21657512310E+03  0.83557844817E+03  0.79998541744E+03 0.  0.
         22    1    5    5    0    0 -0.20963606264E+03  0.39251900746E+03  0.66339501449E+02  0.44991041267E+03  0.00000000000E+00 0. -1.
         22    1    5    5    0    0  0.21041294046E+03 -0.28617387385E+03  0.15023562165E+03  0.38566803549E+03  0.00000000000E+00 0. -1.
          5    1    4    4  502    0  0.54265973047E+02 -0.27980002439E+02  0.10267337015E+03  0.11954742701E+03  0.47000000000E+01 0. -1.
         -5    1    4    4    0  502 -0.55042850865E+02 -0.78365131172E+02  0.68729260240E+02  0.11796868410E+03  0.47000000000E+01 0. -1.
<mgrwt>
<rscale>  0 0.10005025E+04</rscale>
<asrwt>0</asrwt>
<pdfrwt beam="1">  1        2 0.52701293E-01 0.10005025E+04</pdfrwt>
<pdfrwt beam="2">  1       -2 0.11239018E+00 0.10005025E+04</pdfrwt>
<totfact> 0.69403497E+01</totfact>
</mgrwt>
</event>
<event>
 9    1  0.4307774E-036  0.1001207E+04  0.7818608E-02  0.8679890E-01
         -1   -1    0    0    0  501 -0.00000000000E+00  0.00000000000E+00  0.29030714762E+03  0.29030714762E+03  0.00000000000E+00 0. -1.
          1   -1    0    0  501    0  0.00000000000E+00 -0.00000000000E+00 -0.86323663664E+03  0.86323663664E+03  0.00000000000E+00 0. -1.
         36    2    1    2    0    0  0.35527136788E-13  0.14210854715E-13 -0.57292948902E+03  0.11535437843E+04  0.10012068032E+04 0.  0.
         25    2    3    3    0    0  0.18119208252E+02  0.12398843386E+03 -0.29168239240E+02  0.17928312301E+03  0.12486078078E+03 0.  0.
         35    2    3    3    0    0 -0.18119208252E+02 -0.12398843386E+03 -0.54376124978E+03  0.97426066125E+03  0.79862763655E+03 0.  0.
         22    1    5    5    0    0 -0.28867474322E+03 -0.26665328063E+03 -0.54064228324E+03  0.66837950138E+03  0.00000000000E+00 0. -1.
         22    1    5    5    0    0  0.27055553497E+03  0.14266484677E+03 -0.31189665420E+01  0.30588115987E+03  0.00000000000E+00 0. -1.
          5    1    4    4  502    0  0.30796899369E+02 -0.14649035525E+02 -0.19706045792E+02  0.39666881568E+02  0.47000000000E+01 0. -1.
         -5    1    4    4    0  502 -0.12677691116E+02  0.13863746938E+03 -0.94621934474E+01  0.13961624144E+03  0.47000000000E+01 0. -1.
<mgrwt>
<rscale>  0 0.10012068E+04</rscale>
<asrwt>0</asrwt>
<pdfrwt beam="1">  1        1 0.13280564E+00 0.10012068E+04</pdfrwt>
<pdfrwt beam="2">  1       -1 0.44662638E-01 0.10012068E+04</pdfrwt>
<totfact> 0.10977317E+02</totfact>
</mgrwt>
</event>
<event>
 9    1  0.4307774E-036  0.1002147E+04  0.7818608E-02  0.8678996E-01
          2   -1    0    0  501    0  0.00000000000E+00  0.00000000000E+00  0.14024942590E+04  0.14024942590E+04  0.00000000000E+00 0. -1.
         -2   -1    0    0    0  501 -0.00000000000E+00 -0.00000000000E+00 -0.17902013781E+03  0.17902013781E+03  0.00000000000E+00 0. -1.
         36    2    1    2    0    0  0.00000000000E+00  0.00000000000E+00  0.12234741212E+04  0.15815143968E+04  0.10021471260E+04 0.  0.
         25    2    3    3    0    0  0.61062565132E+00 -0.37833339851E+02  0.44767971629E+03  0.46639400863E+03  0.12519787712E+03 0.  0.
         35    2    3    3    0    0 -0.61062565132E+00  0.37833339851E+02  0.77579440488E+03  0.11151203882E+04  0.80012798163E+03 0.  0.
         22    1    5    5    0    0  0.21881013338E+03 -0.50693853031E+02 -0.71261729271E+02  0.23563950277E+03  0.00000000000E+00 0. -1.
         22    1    5    5    0    0 -0.21942075903E+03  0.88527192882E+02  0.84705613415E+03  0.87948088540E+03  0.00000000000E+00 0. -1.
          5    1    4    4  502    0  0.10274419676E+02  0.36295294664E+02  0.28223217084E+03  0.28478061797E+03  0.47000000000E+01 0.  1.
         -5    1    4    4    0  502 -0.96637940250E+01 -0.74128634516E+02  0.16544754546E+03  0.18161339066E+03  0.47000000000E+01 0.  1.
<mgrwt>
<rscale>  0 0.10021471E+04</rscale>
<asrwt>0</asrwt>
<pdfrwt beam="1">  1        2 0.21576834E+00 0.10021471E+04</pdfrwt>
<pdfrwt beam="2">  1       -2 0.27541561E-01 0.10021471E+04</pdfrwt>
<totfact> 0.20771111E+02</totfact>
</mgrwt>
</event>
<event>
 9    1  0.4307774E-036  0.9996680E+03  0.7818608E-02  0.8681354E-01
         -2   -1    0    0    0  501 -0.00000000000E+00  0.00000000000E+00  0.19052855464E+03  0.19052855464E+03  0.00000000000E+00 0.  1.
          2   -1    0    0  501    0  0.00000000000E+00 -0.00000000000E+00 -0.13112681665E+04  0.13112681665E+04  0.00000000000E+00 0.  1.
         36    2    1    2    0    0 -0.14210854715E-13 -0.35527136788E-13 -0.11207396118E+04  0.15017967211E+04  0.99966800189E+03 0.  0.
         25    2    3    3    0    0 -0.53343820202E+02  0.15527922497E+02 -0.40298277608E+03  0.42547768868E+03  0.12469749884E+03 0.  0.
         35    2    3    3    0    0  0.53343820202E+02 -0.15527922497E+02 -0.71775683576E+03  0.10763190324E+04  0.80012568061E+03 0.  0.
         22    1    5    5    0    0 -0.16064770866E+03 -0.28495373887E+03 -0.57979981790E+02  0.33221679350E+03  0.00000000000E+00 0. -1.
         22    1    5    5    0    0  0.21399152886E+03  0.26942581638E+03 -0.65977685397E+03  0.74410223894E+03  0.00000000000E+00 0. -1.
          5    1    4    4  502    0 -0.11603773655E+02 -0.37828136775E+02 -0.40969759257E+02  0.57150911353E+02  0.47000000000E+01 0.  1.
         -5    1    4    4    0  502 -0.41740046547E+02  0.53356059272E+02 -0.36201301682E+03  0.36832677733E+03  0.47000000000E+01 0.  1.
<mgrwt>
<rscale>  0 0.99966800E+03</rscale>
<asrwt>0</asrwt>
<pdfrwt beam="1">  1        2 0.20173357E+00 0.99966800E+03</pdfrwt>
<pdfrwt beam="2">  1       -2 0.29312085E-01 0.99966800E+03</pdfrwt>
<totfact> 0.20939983E+02</totfact>
</mgrwt>
</event>
<event>
 9    1  0.4307774E-036  0.1000924E+04  0.7818608E-02  0.8680159E-01
         -1   -1    0    0    0  501 -0.00000000000E+00  0.00000000000E+00  0.39513909223E+03  0.39513909223E+03  0.00000000000E+00 0.  1.
          1   -1    0    0  501    0  0.00000000000E+00 -0.00000000000E+00 -0.63385795989E+03  0.63385795989E+03  0.00000000000E+00 0.  1.
         36    2    1    2    0    0  0.00000000000E+00  0.00000000000E+00 -0.23871886766E+03  0.10289970521E+04  0.10009236911E+04 0.  0.
         25    2    3    3    0    0 -0.68523460784E+02  0.23548578003E+02 -0.17080225549E+03  0.22284847840E+03  0.12344243047E+03 0.  0.
         35    2    3    3    0    0  0.68523460784E+02 -0.23548578003E+02 -0.67916612166E+02  0.80614857371E+03  0.80000803526E+03 0.  0.
         22    1    5    5    0    0  0.38852984390E+03  0.25941093739E+01  0.15175169547E+03  0.41712197986E+03  0.00000000000E+00 0.  1.
         22    1    5    5    0    0 -0.32000638312E+03 -0.26142687377E+02 -0.21966830764E+03  0.38902659385E+03  0.00000000000E+00 0.  1.
          5    1    4    4  502    0 -0.10127407976E+03 -0.18894897527E+01 -0.12062303096E+03  0.15758177242E+03  0.47000000000E+01 0.  1.
         -5    1    4    4    0  502  0.32750618975E+02  0.25438067756E+02 -0.50179224536E+02  0.65266705979E+02  0.47000000000E+01 0.  1.
<mgrwt>
<rscale>  0 0.10009237E+04</rscale>
<asrwt>0</asrwt>
<pdfrwt beam="1">  1        1 0.97516608E-01 0.10009237E+04</pdfrwt>
<pdfrwt beam="2">  1       -1 0.60790630E-01 0.10009237E+04</pdfrwt>
<totfact> 0.10051577E+02</totfact>
</mgrwt>
</event>
<event>
 9    1  0.4307774E-036  0.9997286E+03  0.7818608E-02  0.8681296E-01
          1   -1    0    0  501    0  0.00000000000E+00  0.00000000000E+00  0.29761750601E+03  0.29761750601E+03  0.00000000000E+00 0. -1.
         -1   -1    0    0    0  501 -0.00000000000E+00 -0.00000000000E+00 -0.83954851151E+03  0.83954851151E+03  0.00000000000E+00 0. -1.
         36    2    1    2    0    0 -0.28421709430E-13 -0.56843418861E-13 -0.54193100550E+03  0.11371660175E+04  0.99972863153E+03 0.  0.
         25    2    3    3    0    0  0.35054141836E+02 -0.12986759649E+03 -0.68361441806E+02  0.19575619035E+03  0.12471092116E+03 0.  0.
         35    2    3    3    0    0 -0.35054141836E+02  0.12986759649E+03 -0.47356956369E+03  0.94140982718E+03  0.80242753291E+03 0.  0.
         22    1    5    5    0    0 -0.41168473962E+03 -0.21783641032E-01 -0.19677697352E+03  0.45629541157E+03  0.00000000000E+00 0. -1.
         22    1    5    5    0    0  0.37663059778E+03  0.12988938013E+03 -0.27679259017E+03  0.48511441561E+03  0.00000000000E+00 0. -1.
          5    1    4    4  502    0  0.16775009692E+02 -0.15169660657E+03 -0.67334336168E+02  0.16688098820E+03  0.47000000000E+01 0.  1.
         -5    1    4    4    0  502  0.18279132145E+02  0.21829010081E+02 -0.10271056385E+01  0.28875202147E+02  0.47000000000E+01 0.  1.
<mgrwt>
<rscale>  0 0.99972863E+03</rscale>
<asrwt>0</asrwt>
<pdfrwt beam="1">  1        1 0.45787310E-01 0.99972863E+03</pdfrwt>
<pdfrwt beam="2">  1       -1 0.12916131E+00 0.99972863E+03</pdfrwt>
<totfact> 0.54718259E+01</totfact>
</mgrwt>
</event>
<event>
 9    1  0.4307774E-036  0.1010084E+04  0.7818608E-02  0.8671494E-01
          2   -1    0    0  501    0  0.00000000000E+00  0.00000000000E+00  0.12363488448E+04  0.12363488448E+04  0.00000000000E+00 0. -1.
         -2   -1    0    0    0  501 -0.00000000000E+00 -0.00000000000E+00 -0.20630689644E+03  0.20630689644E+03  0.00000000000E+00 0. -1.
         36    2    1    2    0    0  0.00000000000E+00 -0.28421709430E-13  0.10300419484E+04  0.14426557413E+04  0.10100837452E+04 0.  0.
         25    2    3    3    0    0 -0.16358232744E+02  0.14555693939E+03  0.25860413226E+03  0.32209943756E+03  0.12416737122E+03 0.  0.
         35    2    3    3    0    0  0.16358232744E+02 -0.14555693939E+03  0.77143781611E+03  0.11205563037E+04  0.79942211080E+03 0.  0.
         22    1    5    5    0    0  0.98918405344E+02 -0.46664905838E+03  0.51021515737E+03  0.69847383732E+03  0.00000000000E+00 0. -1.
         22    1    5    5    0    0 -0.82560172600E+02  0.32109211900E+03  0.26122265875E+03  0.42208246638E+03  0.00000000000E+00 0. -1.
          5    1    4    4  502    0  0.45440544458E+02  0.26174808352E+02  0.10813963947E+03  0.12027566378E+03  0.47000000000E+01 0. -1.
         -5    1    4    4    0  502 -0.61798777202E+02  0.11938213104E+03  0.15046449279E+03  0.20182377378E+03  0.47000000000E+01 0. -1.
<mgrwt>
<rscale>  0 0.10100837E+04</rscale>
<asrwt>0</asrwt>
<pdfrwt beam="1">  1        2 0.19020751E+00 0.10100837E+04</pdfrwt>
<pdfrwt beam="2">  1       -2 0.31739523E-01 0.10100837E+04</pdfrwt>
<totfact> 0.20020360E+02</totfact>
</mgrwt>
</event>
<event>
 9    1  0.4307774E-036  0.9999098E+03  0.7818608E-02  0.8681124E-01
         -1   -1    0    0    0  501 -0.00000000000E+00  0.00000000000E+00  0.93706801452E+02  0.93706801452E+02  0.00000000000E+00 0. -1.
          1   -1    0    0  501    0  0.00000000000E+00 -0.00000000000E+00 -0.26674145213E+04  0.26674145213E+04  0.00000000000E+00 0. -1.
         36    2    1    2    0    0 -0.14210854715E-13  0.00000000000E+00 -0.25737077198E+04  0.27611213227E+04  0.99990976180E+03 0.  0.
         25    2    3    3    0    0 -0.79158084934E+02 -0.80377989685E+02 -0.25140370925E+03  0.30229115433E+03  0.12429599077E+03 0.  0.
         35    2    3    3    0    0  0.79158084934E+02  0.80377989685E+02 -0.23223040106E+04  0.24588301684E+04  0.80001453480E+03 0.  0.
         22    1    5    5    0    0  0.33358857594E+03  0.17332661781E+03 -0.55157094296E+03  0.66749828431E+03  0.00000000000E+00 0. -1.
         22    1    5    5    0    0 -0.25443049101E+03 -0.92948628122E+02 -0.17707330676E+04  0.17913318841E+04  0.00000000000E+00 0. -1.
          5    1    4    4  502    0 -0.10799314901E+03 -0.43059403525E+02 -0.14578478251E+03  0.18652593728E+03  0.47000000000E+01 0.  1.
         -5    1    4    4    0  502  0.28835064074E+02 -0.37318586160E+02 -0.10561892674E+03  0.11576521705E+03  0.47000000000E+01 0.  1.
<mgrwt>
<rscale>  0 0.99990976E+03</rscale>
<asrwt>0</asrwt>
<pdfrwt beam="1">  1        1 0.41037150E+00 0.99990976E+03</pdfrwt>
<pdfrwt beam="2">  1       -1 0.14416430E-01 0.99990976E+03</pdfrwt>
<totfact> 0.36919383E+01</totfact>
</mgrwt>
</event>
<event>
 9    1  0.4307774E-036  0.1001707E+04  0.7818608E-02  0.8679414E-01
         -2   -1    0    0    0  501 -0.00000000000E+00  0.00000000000E+00  0.17191892713E+03  0.17191892713E+03  0.00000000000E+00 0.  1.
          2   -1    0    0  501    0  0.00000000000E+00 -0.00000000000E+00 -0.14591433998E+04  0.14591433998E+04  0.00000000000E+00 0.  1.
         36    2    1    2    0    0 -0.71054273576E-14 -0.14210854715E-13 -0.12872244726E+04  0.16310623269E+04  0.10017072782E+04 0.  0.
         25    2    3    3    0    0 -0.58384632378E+02 -0.54402443499E+02 -0.51424049040E+02  0.15677582075E+03  0.12476311152E+03 0.  0.
         35    2    3    3    0    0  0.58384632378E+02  0.54402443499E+02 -0.12358004236E+04  0.14742865061E+04  0.79996851443E+03 0.  0.
         22    1    5    5    0    0  0.26669542516E+03 -0.73537909103E+02 -0.73070720650E+02  0.28613563932E+03  0.00000000000E+00 0. -1.
         22    1    5    5    0    0 -0.20831079278E+03  0.12794035260E+03 -0.11627297029E+04  0.11881508668E+04  0.00000000000E+00 0. -1.
          5    1    4    4  502    0  0.13707400759E+02 -0.33172138544E+02 -0.70364930485E+02  0.79130253717E+02  0.47000000000E+01 0.  1.
         -5    1    4    4    0  502 -0.72092033137E+02 -0.21230304956E+02  0.18940881445E+02  0.77645567035E+02  0.47000000000E+01 0.  1.
<mgrwt>
<rscale>  0 0.10017073E+04</rscale>
<asrwt>0</asrwt>
<pdfrwt beam="1">  1        2 0.22448360E+00 0.10017073E+04</pdfrwt>
<pdfrwt beam="2">  1       -2 0.26449066E-01 0.10017073E+04</pdfrwt>
<totfact> 0.20735532E+02</totfact>
</mgrwt>
</event>
<event>
 9    1  0.4307774E-036  0.9958962E+03  0.7818608E-02  0.8684956E-01
         -1   -1    0    0    0  501 -0.00000000000E+00  0.00000000000E+00  0.67173841657E+02  0.67173841657E+02  0.00000000000E+00 0.  1.
          1   -1    0    0  501    0  0.00000000000E+00 -0.00000000000E+00 -0.36912034812E+04  0.36912034812E+04  0.00000000000E+00 0.  1.
         36    2    1    2    0    0  0.00000000000E+00  0.00000000000E+00 -0.36240296395E+04  0.37583773229E+04  0.99589621582E+03 0.  0.
         25    2    3    3    0    0 -0.24779380612E+02 -0.92590390669E+02 -0.10320231648E+04  0.10441074501E+04  0.12610137417E+03 0.  0.
         35    2    3    3    0    0  0.24779380612E+02  0.92590390669E+02 -0.25920064747E+04  0.27142698727E+04  0.79973519292E+03 0.  0.
         22    1    5    5    0    0 -0.30058143934E+02  0.35535767642E+03 -0.55532863838E+03  0.65997914120E+03  0.00000000000E+00 0.  1.
         22    1    5    5    0    0  0.54837524545E+02 -0.26276728575E+03 -0.20366778364E+04  0.20542907315E+04  0.00000000000E+00 0.  1.
          5    1    4    4  502    0 -0.68538026819E+02 -0.39981024023E+02 -0.73408814480E+03  0.73837892558E+03  0.47000000000E+01 0. -1.
         -5    1    4    4    0  502  0.43758646207E+02 -0.52609366646E+02 -0.29793501999E+03  0.30572852453E+03  0.47000000000E+01 0. -1.
<mgrwt>
<rscale>  0 0.99589622E+03</rscale>
<asrwt>0</asrwt>
<pdfrwt beam="1">  1        1 0.56787750E+00 0.99589622E+03</pdfrwt>
<pdfrwt beam="2">  1       -1 0.10334436E-01 0.99589622E+03</pdfrwt>
<totfact> 0.11272513E+01</totfact>
</mgrwt>
</event>
<event>
 9    1  0.4307774E-036  0.1001121E+04  0.7818608E-02  0.8679971E-01
         -3   -1    0    0    0  501 -0.00000000000E+00  0.00000000000E+00  0.35268372472E+03  0.35268372472E+03  0.00000000000E+00 0. -1.
          3   -1    0    0  501    0  0.00000000000E+00 -0.00000000000E+00 -0.71044027369E+03  0.71044027369E+03  0.00000000000E+00 0. -1.
         36    2    1    2    0    0  0.00000000000E+00 -0.42632564146E-13 -0.35775654897E+03  0.10631239984E+04  0.10011208157E+04 0.  0.
         25    2    3    3    0    0 -0.50531732506E+02  0.29140615874E+02 -0.20444882727E+03  0.24652099739E+03  0.12478240141E+03 0.  0.
         35    2    3    3    0    0  0.50531732506E+02 -0.29140615874E+02 -0.15330772171E+03  0.81660300102E+03  0.79995910662E+03 0.  0.
         22    1    5    5    0    0  0.10048170171E+03 -0.40512967838E+03 -0.33087594552E+02  0.41871400454E+03  0.00000000000E+00 0. -1.
         22    1    5    5    0    0 -0.49949969208E+02  0.37598906251E+03 -0.12022012715E+03  0.39788899648E+03  0.00000000000E+00 0. -1.
          5    1    4    4  502    0 -0.37594306048E+02 -0.45209039265E+02 -0.64168478173E+02  0.87160040554E+02  0.47000000000E+01 0.  1.
         -5    1    4    4    0  502 -0.12937426458E+02  0.74349655139E+02 -0.14028034909E+03  0.15936095684E+03  0.47000000000E+01 0.  1.
<mgrwt>
<rscale>  0 0.10011208E+04</rscale>
<asrwt>0</asrwt>
<pdfrwt beam="1">  1        3 0.10929850E+00 0.10011208E+04</pdfrwt>
<pdfrwt beam="2">  1       -3 0.54259035E-01 0.10011208E+04</pdfrwt>
<totfact> 0.99128447E+00</totfact>
</mgrwt>
</event>
<event>
 9    1  0.4307774E-036  0.1000120E+04  0.7818608E-02  0.8680924E-01
          2   -1    0    0  501    0  0.00000000000E+00  0.00000000000E+00  0.47306447468E+03  0.47306447468E+03  0.00000000000E+00 0. -1.
         -2   -1    0    0    0  501 -0.00000000000E+00 -0.00000000000E+00 -0.52859588410E+03  0.52859588410E+03  0.00000000000E+00 0. -1.
         36    2    1    2    0    0  0.00000000000E+00  0.71054273576E-14 -0.55531409427E+02  0.10016603588E+04  0.10001198613E+04 0.  0.
         25    2    3    3    0    0 -0.13015436810E+03  0.48453675936E+02 -0.35519979856E+02  0.19023251331E+03  0.12505527540E+03 0.  0.
         35    2    3    3    0    0  0.13015436810E+03 -0.48453675936E+02 -0.20011429571E+02  0.81142784547E+03  0.79920383685E+03 0.  0.
         22    1    5    5    0    0  0.48873438443E+01  0.11206768398E+03  0.36175982247E+03  0.37875218953E+03  0.00000000000E+00 0. -1.
         22    1    5    5    0    0  0.12526702425E+03 -0.16052135992E+03 -0.38177125204E+03  0.43267565594E+03  0.00000000000E+00 0. -1.
          5    1    4    4  502    0 -0.44219966077E+02  0.28384120460E+02  0.46006868294E+02  0.69998468729E+02  0.47000000000E+01 0.  1.
         -5    1    4    4    0  502 -0.85934402019E+02  0.20069555476E+02 -0.81526848149E+02  0.12023404458E+03  0.47000000000E+01 0.  1.
<mgrwt>
<rscale>  0 0.10001199E+04</rscale>
<asrwt>0</asrwt>
<pdfrwt beam="1">  1        2 0.72779150E-01 0.10001199E+04</pdfrwt>
<pdfrwt beam="2">  1       -2 0.81322444E-01 0.10001199E+04</pdfrwt>
<totfact> 0.10527005E+02</totfact>
</mgrwt>
</event>
<event>
 9    1  0.4307774E-036  0.9999331E+03  0.7818608E-02  0.8681102E-01
          2   -1    0    0  501    0  0.00000000000E+00  0.00000000000E+00  0.16602528916E+03  0.16602528916E+03  0.00000000000E+00 0. -1.
         -2   -1    0    0    0  501 -0.00000000000E+00 -0.00000000000E+00 -0.15055932785E+04  0.15055932785E+04  0.00000000000E+00 0. -1.
         36    2    1    2    0    0 -0.19539925233E-13 -0.14210854715E-13 -0.13395679893E+04  0.16716185676E+04  0.99993311661E+03 0.  0.
         25    2    3    3    0    0 -0.10116734666E+02  0.76117682705E+02 -0.52532492526E+02  0.15487028829E+03  0.12380990866E+03 0.  0.
         35    2    3    3    0    0  0.10116734666E+02 -0.76117682705E+02 -0.12870354968E+04  0.15167482794E+04  0.79885463195E+03 0.  0.
         22    1    5    5    0    0 -0.28025673109E+03  0.23854204790E+03 -0.69053879388E+03  0.78248959724E+03  0.00000000000E+00 0. -1.
         22    1    5    5    0    0  0.29037346575E+03 -0.31465973060E+03 -0.59649670291E+03  0.73425868212E+03  0.00000000000E+00 0. -1.
          5    1    4    4  502    0 -0.13385182461E+02  0.11010006028E+03 -0.43641840097E+02  0.11928070502E+03  0.47000000000E+01 0. -1.
         -5    1    4    4    0  502  0.32684477949E+01 -0.33982377575E+02 -0.88906524294E+01  0.35589583269E+02  0.47000000000E+01 0. -1.
<mgrwt>
<rscale>  0 0.99993312E+03</rscale>
<asrwt>0</asrwt>
<pdfrwt beam="1">  1        2 0.25542352E-01 0.99993312E+03</pdfrwt>
<pdfrwt beam="2">  1       -2 0.23162973E+00 0.99993312E+03</pdfrwt>
<totfact> 0.19202451E+01</totfact>
</mgrwt>
</event>
<event>
 9    1  0.4307774E-036  0.1000587E+04  0.7818608E-02  0.8680479E-01
          2   -1    0    0  501    0  0.00000000000E+00  0.00000000000E+00  0.25758044343E+04  0.25758044343E+04  0.00000000000E+00 0. -1.
         -2   -1    0    0    0  501 -0.00000000000E+00 -0.00000000000E+00 -0.97171101104E+02  0.97171101104E+02  0.00000000000E+00 0. -1.
         36    2    1    2    0    0  0.00000000000E+00  0.14210854715E-13  0.24786333332E+04  0.26729755354E+04  0.10005873337E+04 0.  0.
         25    2    3    3    0    0 -0.12745189549E+03 -0.51771791102E+02  0.48538387348E+03  0.52045976006E+03  0.12789274095E+03 0.  0.
         35    2    3    3    0    0  0.12745189549E+03  0.51771791102E+02  0.19932494597E+04  0.21525157753E+04  0.80084733278E+03 0.  0.
         22    1    5    5    0    0  0.81294206599E+02  0.32331126264E+03  0.17608657698E+04  0.17921459706E+04  0.00000000000E+00 0.  1.
         22    1    5    5    0    0  0.46157688894E+02 -0.27153947154E+03  0.23238368989E+03  0.36036980475E+03  0.00000000000E+00 0.  1.
          5    1    4    4  502    0 -0.96887547584E+02  0.26290678507E+02  0.31253275268E+03  0.32829439251E+03  0.47000000000E+01 0. -1.
         -5    1    4    4    0  502 -0.30564347909E+02 -0.78062469609E+02  0.17285112080E+03  0.19216536755E+03  0.47000000000E+01 0. -1.
<mgrwt>
<rscale>  0 0.10005873E+04</rscale>
<asrwt>0</asrwt>
<pdfrwt beam="1">  1        2 0.39627755E+00 0.10005873E+04</pdfrwt>
<pdfrwt beam="2">  1       -2 0.14949402E-01 0.10005873E+04</pdfrwt>
<totfact> 0.12584957E+02</totfact>
</mgrwt>
</event>
<event>
 9    1  0.4307774E-036  0.1008713E+04  0.7818608E-02  0.8672785E-01
          2   -1    0    0  501    0  0.00000000000E+00  0.00000000000E+00  0.52679833677E+03  0.52679833677E+03  0.00000000000E+00 0.  1.
         -2   -1    0    0    0  501 -0.00000000000E+00 -0.00000000000E+00 -0.48287040543E+03  0.48287040543E+03  0.00000000000E+00 0.  1.
         36    2    1    2    0    0  0.00000000000E+00 -0.71054273576E-14  0.43927931339E+02  0.10096687422E+04  0.10087126974E+04 0.  0.
         25    2    3    3    0    0  0.14173113152E+03 -0.34346618939E+02 -0.23791895038E+02  0.19357080576E+03  0.12504478677E+03 0.  0.
         35    2    3    3    0    0 -0.14173113152E+03  0.34346618939E+02  0.67719826377E+02  0.81609793644E+03  0.80010153300E+03 0.  0.
         22    1    5    5    0    0 -0.35907766125E+03 -0.24667212312E+03 -0.57485758239E+02  0.43941838325E+03  0.00000000000E+00 0.  1.
         22    1    5    5    0    0  0.21734652973E+03  0.28101874206E+03  0.12520558462E+03  0.37667955319E+03  0.00000000000E+00 0.  1.
          5    1    4    4  502    0  0.70821076176E+02 -0.56675051398E+02 -0.61883107257E+02  0.10990584719E+03  0.47000000000E+01 0.  1.
         -5    1    4    4    0  502  0.70910055343E+02  0.22328432459E+02  0.38091212219E+02  0.83664958573E+02  0.47000000000E+01 0.  1.
<mgrwt>
<rscale>  0 0.10087127E+04</rscale>
<asrwt>0</asrwt>
<pdfrwt beam="1">  1        2 0.81045898E-01 0.10087127E+04</pdfrwt>
<pdfrwt beam="2">  1       -2 0.74287755E-01 0.10087127E+04</pdfrwt>
<totfact> 0.11416833E+02</totfact>
</mgrwt>
</event>
<event>
 9    1  0.4307774E-036  0.9994661E+03  0.7818608E-02  0.8681547E-01
         -2   -1    0    0    0  501 -0.00000000000E+00  0.00000000000E+00  0.41595011358E+03  0.41595011358E+03  0.00000000000E+00 0.  1.
          2   -1    0    0  501    0  0.00000000000E+00 -0.00000000000E+00 -0.60039201417E+03  0.60039201417E+03  0.00000000000E+00 0.  1.
         36    2    1    2    0    0 -0.56843418861E-13  0.00000000000E+00 -0.18444190059E+03  0.10163421278E+04  0.99946611046E+03 0.  0.
         25    2    3    3    0    0  0.96412048060E+02  0.99283086312E+02 -0.41360410302E+02  0.19247940491E+03  0.12722115994E+03 0.  0.
         35    2    3    3    0    0 -0.96412048060E+02 -0.99283086312E+02 -0.14308149029E+03  0.82386272285E+03  0.79945297485E+03 0.  0.
         22    1    5    5    0    0 -0.44678889113E+03 -0.89325056070E+01 -0.46080095006E+02  0.44924768007E+03  0.00000000000E+00 0.  1.
         22    1    5    5    0    0  0.35037684307E+03 -0.90350580705E+02 -0.97001395282E+02  0.37461504278E+03  0.00000000000E+00 0.  1.
          5    1    4    4  502    0 -0.21253301746E+02  0.16970836062E+02 -0.40244706043E+02  0.48799984388E+02  0.47000000000E+01 0. -1.
         -5    1    4    4    0  502  0.11766534981E+03  0.82312250250E+02 -0.11157042591E+01  0.14367942052E+03  0.47000000000E+01 0. -1.
<mgrwt>
<rscale>  0 0.99946611E+03</rscale>
<asrwt>0</asrwt>
<pdfrwt beam="1">  1        2 0.92368001E-01 0.99946611E+03</pdfrwt>
<pdfrwt beam="2">  1       -2 0.63992326E-01 0.99946611E+03</pdfrwt>
<totfact> 0.13537099E+02</totfact>
</mgrwt>
</event>
<event>
 9    1  0.4307774E-036  0.1001702E+04  0.7818608E-02  0.8679419E-01
          1   -1    0    0  501    0  0.00000000000E+00  0.00000000000E+00  0.22382870518E+04  0.22382870518E+04  0.00000000000E+00 0. -1.
         -1   -1    0    0    0  501 -0.00000000000E+00 -0.00000000000E+00 -0.11207311198E+03  0.11207311198E+03  0.00000000000E+00 0. -1.
         36    2    1    2    0    0  0.71054273576E-14  0.00000000000E+00  0.21262139398E+04  0.23503601638E+04  0.10017021421E+04 0.  0.
         25    2    3    3    0    0  0.21187474242E+02 -0.13456529885E+03  0.30858532787E+03  0.35977886917E+03  0.12513673084E+03 0.  0.
         35    2    3    3    0    0 -0.21187474242E+02  0.13456529885E+03  0.18176286119E+04  0.19905812946E+04  0.80005211750E+03 0.  0.
         22    1    5    5    0    0 -0.40240398152E+03 -0.66566067982E+01  0.98346738991E+03  0.10626294659E+04  0.00000000000E+00 0. -1.
         22    1    5    5    0    0  0.38121650728E+03  0.14122190565E+03  0.83416122204E+03  0.92795182871E+03  0.00000000000E+00 0. -1.
          5    1    4    4  502    0  0.11431042386E+02 -0.15464811039E+03  0.29477500998E+03  0.33310824559E+03  0.47000000000E+01 0.  1.
         -5    1    4    4    0  502  0.97564318559E+01  0.20082811536E+02  0.13810317897E+02  0.26670623580E+02  0.47000000000E+01 0.  1.
<mgrwt>
<rscale>  0 0.10017021E+04</rscale>
<asrwt>0</asrwt>
<pdfrwt beam="1">  1        1 0.34435182E+00 0.10017021E+04</pdfrwt>
<pdfrwt beam="2">  1       -1 0.17242019E-01 0.10017021E+04</pdfrwt>
<totfact> 0.55300007E+01</totfact>
</mgrwt>
</event>
<event>
 9    1  0.4307774E-036  0.9991399E+03  0.7818608E-02  0.8681857E-01
          2   -1    0    0  501    0  0.00000000000E+00  0.00000000000E+00  0.21564220442E+04  0.21564220442E+04  0.00000000000E+00 0.  1.
         -2   -1    0    0    0  501 -0.00000000000E+00 -0.00000000000E+00 -0.11573344388E+03  0.11573344388E+03  0.00000000000E+00 0.  1.
         36    2    1    2    0    0  0.00000000000E+00 -0.21316282073E-13  0.20406886003E+04  0.22721554880E+04  0.99913992938E+03 0.  0.
         25    2    3    3    0    0  0.12760645314E+03  0.56914282133E+02  0.40155003305E+03  0.44331057394E+03  0.12553562656E+03 0.  0.
         35    2    3    3    0    0 -0.12760645314E+03 -0.56914282133E+02  0.16391385672E+04  0.18288449141E+04  0.79898425191E+03 0.  0.
         22    1    5    5    0    0  0.13471892239E+03  0.12809260115E+03  0.30364614322E+02  0.18835846761E+03  0.00000000000E+00 0.  1.
         22    1    5    5    0    0 -0.26232537553E+03 -0.18500688328E+03  0.16087739529E+04  0.16404864465E+04  0.00000000000E+00 0.  1.
          5    1    4    4  502    0  0.44972827503E+02  0.88380577783E+02  0.21469895279E+03  0.23654050831E+03  0.47000000000E+01 0.  1.
         -5    1    4    4    0  502  0.82633625638E+02 -0.31466295650E+02  0.18685108026E+03  0.20677006563E+03  0.47000000000E+01 0.  1.
<mgrwt>
<rscale>  0 0.99913993E+03</rscale>
<asrwt>0</asrwt>
<pdfrwt beam="1">  1        2 0.33175721E+00 0.99913993E+03</pdfrwt>
<pdfrwt beam="2">  1       -2 0.17805147E-01 0.99913993E+03</pdfrwt>
<totfact> 0.16649252E+02</totfact>
</mgrwt>
</event>
<event>
 9    1  0.4307774E-036  0.1000476E+04  0.7818608E-02  0.8680585E-01
          2   -1    0    0  501    0  0.00000000000E+00  0.00000000000E+00  0.14599592904E+04  0.14599592904E+04  0.00000000000E+00 0. -1.
         -2   -1    0    0    0  501 -0.00000000000E+00 -0.00000000000E+00 -0.17140068196E+03  0.17140068196E+03  0.00000000000E+00 0. -1.
         36    2    1    2    0    0 -0.14210854715E-13 -0.10658141036E-13  0.12885586084E+04  0.16313599724E+04  0.10004759228E+04 0.  0.
         25    2    3    3    0    0  0.70982741123E+02  0.27562816933E+02  0.48724523853E+02  0.15376706023E+03  0.12438637857E+03 0.  0.
         35    2    3    3    0    0 -0.70982741123E+02 -0.27562816933E+02  0.12398340846E+04  0.14775929121E+04  0.80018372782E+03 0.  0.
         22    1    5    5    0    0 -0.30361591571E+03 -0.30849375154E+03  0.76336338067E+03  0.87753898486E+03  0.00000000000E+00 0.  1.
         22    1    5    5    0    0  0.23263317459E+03  0.28093093460E+03  0.47647070391E+03  0.60005392726E+03  0.00000000000E+00 0.  1.
          5    1    4    4  502    0  0.87403087284E+02  0.49841813561E+02  0.66354832513E+02  0.12061741103E+03  0.47000000000E+01 0. -1.
         -5    1    4    4    0  502 -0.16420346160E+02 -0.22278996627E+02 -0.17630308660E+02  0.33149649202E+02  0.47000000000E+01 0. -1.
<mgrwt>
<rscale>  0 0.10004759E+04</rscale>
<asrwt>0</asrwt>
<pdfrwt beam="1">  1        2 0.22460911E+00 0.10004759E+04</pdfrwt>
<pdfrwt beam="2">  1       -2 0.26369337E-01 0.10004759E+04</pdfrwt>
<totfact> 0.20825662E+02</totfact>
</mgrwt>
</event>
<event>
 9    1  0.4307774E-036  0.9981719E+03  0.7818608E-02  0.8682781E-01
          2   -1    0    0  501    0  0.00000000000E+00  0.00000000000E+00  0.56733158201E+03  0.56733158201E+03  0.00000000000E+00 0. -1.
         -2   -1    0    0    0  501 -0.00000000000E+00 -0.00000000000E+00 -0.43904975670E+03  0.43904975670E+03  0.00000000000E+00 0. -1.
         36    2    1    2    0    0  0.71054273576E-14  0.00000000000E+00  0.12828182532E+03  0.10063813387E+04  0.99817191515E+03 0.  0.
         25    2    3    3    0    0 -0.43810474293E+02  0.12576704818E+03 -0.72845066044E+01  0.18237033373E+03  0.12437510411E+03 0.  0.
         35    2    3    3    0    0  0.43810474293E+02 -0.12576704818E+03  0.13556633192E+03  0.82401100498E+03  0.80179747936E+03 0.  0.
         22    1    5    5    0    0 -0.11463608304E+02 -0.21650525442E+03  0.44599647341E+03  0.49590200020E+03  0.00000000000E+00 0.  1.
         22    1    5    5    0    0  0.55274082597E+02  0.90738206233E+02 -0.31043014149E+03  0.32810900479E+03  0.00000000000E+00 0.  1.
          5    1    4    4  502    0 -0.21809114633E+02 -0.22355424843E+02  0.52868796361E+01  0.32022548263E+02  0.47000000000E+01 0.  1.
         -5    1    4    4    0  502 -0.22001359660E+02  0.14812247303E+03 -0.12571386241E+02  0.15034778546E+03  0.47000000000E+01 0.  1.
<mgrwt>
<rscale>  0 0.99817192E+03</rscale>
<asrwt>0</asrwt>
<pdfrwt beam="1">  1        2 0.87281782E-01 0.99817192E+03</pdfrwt>
<pdfrwt beam="2">  1       -2 0.67546116E-01 0.99817192E+03</pdfrwt>
<totfact> 0.12895191E+02</totfact>
</mgrwt>
</event>
<event>
 9    1  0.4307774E-036  0.9997993E+03  0.7818608E-02  0.8681229E-01
         -1   -1    0    0    0  501 -0.00000000000E+00  0.00000000000E+00  0.15925980068E+03  0.15925980068E+03  0.00000000000E+00 0.  1.
          1   -1    0    0  501    0  0.00000000000E+00 -0.00000000000E+00 -0.15691321901E+04  0.15691321901E+04  0.00000000000E+00 0.  1.
         36    2    1    2    0    0  0.14210854715E-13  0.71054273576E-14 -0.14098723894E+04  0.17283919908E+04  0.99979933953E+03 0.  0.
         25    2    3    3    0    0  0.53682329530E+02  0.31725116022E+01 -0.48819633262E+03  0.50702410617E+03  0.12588060896E+03 0.  0.
         35    2    3    3    0    0 -0.53682329530E+02 -0.31725116022E+01 -0.92167605680E+03  0.12213678846E+04  0.79960046182E+03 0.  0.
         22    1    5    5    0    0  0.12624703734E+03 -0.88833425477E+02 -0.99658828064E+03  0.10084730502E+04  0.00000000000E+00 0.  1.
         22    1    5    5    0    0 -0.17992936687E+03  0.85660913874E+02  0.74912223836E+02  0.21289483439E+03  0.00000000000E+00 0.  1.
          5    1    4    4  502    0  0.36053605454E+01 -0.57575022281E+02 -0.19539202640E+03  0.20378423834E+03  0.47000000000E+01 0.  1.
         -5    1    4    4    0  502  0.50076968984E+02  0.60747533883E+02 -0.29280430623E+03  0.30323986783E+03  0.47000000000E+01 0.  1.
<mgrwt>
<rscale>  0 0.99979934E+03</rscale>
<asrwt>0</asrwt>
<pdfrwt beam="1">  1        1 0.24140495E+00 0.99979934E+03</pdfrwt>
<pdfrwt beam="2">  1       -1 0.24501508E-01 0.99979934E+03</pdfrwt>
<totfact> 0.91294648E+01</totfact>
</mgrwt>
</event>
<event>
 9    1  0.4307774E-036  0.9993523E+03  0.7818608E-02  0.8681655E-01
          2   -1    0    0  501    0  0.00000000000E+00  0.00000000000E+00  0.13267487619E+04  0.13267487619E+04  0.00000000000E+00 0. -1.
         -2   -1    0    0    0  501 -0.00000000000E+00 -0.00000000000E+00 -0.18818653124E+03  0.18818653124E+03  0.00000000000E+00 0. -1.
         36    2    1    2    0    0 -0.14210854715E-13  0.28421709430E-13  0.11385622307E+04  0.15149352932E+04  0.99935228490E+03 0.  0.
         25    2    3    3    0    0  0.42813960778E+02  0.12464921996E+03  0.27966373311E+03  0.33346384127E+03  0.12496346084E+03 0.  0.
         35    2    3    3    0    0 -0.42813960778E+02 -0.12464921996E+03  0.85889849760E+03  0.11814714519E+04  0.80049840676E+03 0.  0.
         22    1    5    5    0    0 -0.14075516156E+03 -0.44513070621E+03  0.41034411024E+03  0.62155904781E+03  0.00000000000E+00 0. -1.
         22    1    5    5    0    0  0.97941200778E+02  0.32048148625E+03  0.44855438736E+03  0.55991240410E+03  0.00000000000E+00 0. -1.
          5    1    4    4  502    0 -0.10676045101E+02  0.60921311706E+02  0.27433460827E+02  0.67823808002E+02  0.47000000000E+01 0. -1.
         -5    1    4    4    0  502  0.53490005878E+02  0.63727908252E+02  0.25223027228E+03  0.26564003327E+03  0.47000000000E+01 0. -1.
<mgrwt>
<rscale>  0 0.99935228E+03</rscale>
<asrwt>0</asrwt>
<pdfrwt beam="1">  1        2 0.20411519E+00 0.99935228E+03</pdfrwt>
<pdfrwt beam="2">  1       -2 0.28951775E-01 0.99935228E+03</pdfrwt>
<totfact> 0.20978370E+02</totfact>
</mgrwt>
</event>
<event>
 9    1  0.4307774E-036  0.1000222E+04  0.7818608E-02  0.8680827E-01
         -1   -1    0    0    0  501 -0.00000000000E+00  0.00000000000E+00  0.29545224744E+03  0.29545224744E+03  0.00000000000E+00 0. -1.
          1   -1    0    0  501    0  0.00000000000E+00 -0.00000000000E+00 -0.84653567400E+03  0.84653567400E+03  0.00000000000E+00 0. -1.
         36    2    1    2    0    0  0.00000000000E+00  0.00000000000E+00 -0.55108342656E+03  0.11419879214E+04  0.10002217103E+04 0.  0.
         25    2    3    3    0    0 -0.13302123791E+03 -0.39989530094E+02 -0.76147480949E+02  0.20151338379E+03  0.12456079937E+03 0.  0.
         35    2    3    3    0    0  0.13302123791E+03  0.39989530094E+02 -0.47493594561E+03  0.94047453765E+03  0.79977146191E+03 0.  0.
         22    1    5    5    0    0  0.20630412147E+03  0.45265469470E+02  0.18238489643E+03  0.27906021520E+03  0.00000000000E+00 0. -1.
         22    1    5    5    0    0 -0.73282883557E+02 -0.52759393755E+01 -0.65732084204E+03  0.66141432245E+03  0.00000000000E+00 0. -1.
          5    1    4    4  502    0 -0.93507040286E+02  0.29184458147E+02 -0.11362584844E+02  0.98724351174E+02  0.47000000000E+01 0. -1.
         -5    1    4    4    0  502 -0.39514197624E+02 -0.69173988241E+02 -0.64784896105E+02  0.10278903262E+03  0.47000000000E+01 0. -1.
<mgrwt>
<rscale>  0 0.10002217E+04</rscale>
<asrwt>0</asrwt>
<pdfrwt beam="1">  1        1 0.13023626E+00 0.10002217E+04</pdfrwt>
<pdfrwt beam="2">  1       -1 0.45454192E-01 0.10002217E+04</pdfrwt>
<totfact> 0.10988600E+02</totfact>
</mgrwt>
</event>
<event>
 9    1  0.4307774E-036  0.1000157E+04  0.7818608E-02  0.8680888E-01
          1   -1    0    0  501    0  0.00000000000E+00  0.00000000000E+00  0.23897427158E+04  0.23897427158E+04  0.00000000000E+00 0.  1.
         -1   -1    0    0    0  501 -0.00000000000E+00 -0.00000000000E+00 -0.10464664468E+03  0.10464664468E+03  0.00000000000E+00 0.  1.
         36    2    1    2    0    0  0.00000000000E+00  0.00000000000E+00  0.22850960712E+04  0.24943893605E+04  0.10001571014E+04 0.  0.
         25    2    3    3    0    0  0.11176670469E+03 -0.81451436062E+02  0.37705949009E+03  0.42062959963E+03  0.12501707206E+03 0.  0.
         35    2    3    3    0    0 -0.11176670469E+03  0.81451436062E+02  0.19080365811E+04  0.20737597609E+04  0.80046849936E+03 0.  0.
         22    1    5    5    0    0 -0.12220326424E+03 -0.19626786408E+03  0.11300569382E+03  0.25734218290E+03  0.00000000000E+00 0. -1.
         22    1    5    5    0    0  0.10436559559E+02  0.27771930014E+03  0.17950308873E+04  0.18164175780E+04  0.00000000000E+00 0. -1.
          5    1    4    4  502    0  0.75777492910E+02 -0.11376766950E+03  0.29689336124E+03  0.32688387694E+03  0.47000000000E+01 0.  1.
         -5    1    4    4    0  502  0.35989211776E+02  0.32316233439E+02  0.80166128857E+02  0.93745722696E+02  0.47000000000E+01 0.  1.
<mgrwt>
<rscale>  0 0.10001571E+04</rscale>
<asrwt>0</asrwt>
<pdfrwt beam="1">  1        1 0.36765268E+00 0.10001571E+04</pdfrwt>
<pdfrwt beam="2">  1       -1 0.16099486E-01 0.10001571E+04</pdfrwt>
<totfact> 0.48394614E+01</totfact>
</mgrwt>
</event>
<event>
 9    1  0.4307774E-036  0.1000438E+04  0.7818608E-02  0.8680621E-01
         -2   -1    0    0    0  501 -0.00000000000E+00  0.00000000000E+00  0.10921572940E+03  0.10921572940E+03  0.00000000000E+00 0. -1.
          2   -1    0    0  501    0  0.00000000000E+00 -0.00000000000E+00 -0.22910543545E+04  0.22910543545E+04  0.00000000000E+00 0. -1.
         36    2    1    2    0    0 -0.71054273576E-14  0.35527136788E-14 -0.21818386251E+04  0.24002700839E+04  0.10004382488E+04 0.  0.
         25    2    3    3    0    0  0.15965347600E+02 -0.10633807642E+02 -0.74486135150E+03  0.75551345342E+03  0.12495669307E+03 0.  0.
         35    2    3    3    0    0 -0.15965347600E+02  0.10633807642E+02 -0.14369772736E+04  0.16447566305E+04  0.79997044851E+03 0.  0.
         22    1    5    5    0    0  0.11900007663E+03 -0.53972250462E+02  0.57534168127E+02  0.14277325576E+03  0.00000000000E+00 0.  1.
         22    1    5    5    0    0 -0.13496542423E+03  0.64606058104E+02 -0.14945114418E+04  0.15019833748E+04  0.00000000000E+00 0.  1.
          5    1    4    4  502    0  0.57430293132E+02 -0.21195648281E+02 -0.20650429072E+03  0.21543817248E+03  0.47000000000E+01 0. -1.
         -5    1    4    4    0  502 -0.41464945532E+02  0.10561840639E+02 -0.53835706078E+03  0.54007528093E+03  0.47000000000E+01 0. -1.
<mgrwt>
<rscale>  0 0.10004382E+04</rscale>
<asrwt>0</asrwt>
<pdfrwt beam="1">  1        2 0.35246989E+00 0.10004382E+04</pdfrwt>
<pdfrwt beam="2">  1       -2 0.16802420E-01 0.10004382E+04</pdfrwt>
<totfact> 0.15335179E+02</totfact>
</mgrwt>
</event>
<event>
 9    1  0.4307774E-036  0.1000108E+04  0.7818608E-02  0.8680935E-01
          2   -1    0    0  501    0  0.00000000000E+00  0.00000000000E+00  0.21896354254E+04  0.21896354254E+04  0.00000000000E+00 0. -1.
         -2   -1    0    0    0  501 -0.00000000000E+00 -0.00000000000E+00 -0.11419898014E+03  0.11419898014E+03  0.00000000000E+00 0. -1.
         36    2    1    2    0    0  0.00000000000E+00 -0.28421709430E-13  0.20754364453E+04  0.23038344056E+04  0.10001082591E+04 0.  0.
         25    2    3    3    0    0 -0.73459892609E+02  0.11058895887E+03  0.28244477657E+03  0.33605640843E+03  0.12462978854E+03 0.  0.
         35    2    3    3    0    0  0.73459892609E+02 -0.11058895887E+03  0.17929916687E+04  0.19677779971E+04  0.79981550890E+03 0.  0.
         22    1    5    5    0    0  0.11931970055E+03 -0.39353278909E+03  0.15099554188E+04  0.15649506746E+04  0.00000000000E+00 0.  1.
         22    1    5    5    0    0 -0.45859807939E+02  0.28294383023E+03  0.28303624992E+03  0.40282732258E+03  0.00000000000E+00 0.  1.
          5    1    4    4  502    0  0.28537556522E+02  0.62777226718E+02  0.99214838813E+02  0.12091751969E+03  0.47000000000E+01 0.  1.
         -5    1    4    4    0  502 -0.10199744913E+03  0.47811732148E+02  0.18322993775E+03  0.21513888874E+03  0.47000000000E+01 0.  1.
<mgrwt>
<rscale>  0 0.10001083E+04</rscale>
<asrwt>0</asrwt>
<pdfrwt beam="1">  1        2 0.33686696E+00 0.10001083E+04</pdfrwt>
<pdfrwt beam="2">  1       -2 0.17569076E-01 0.10001083E+04</pdfrwt>
<totfact> 0.16294070E+02</totfact>
</mgrwt>
</event>
<event>
 9    1  0.4307774E-036  0.1001185E+04  0.7818608E-02  0.8679910E-01
          1   -1    0    0  501    0  0.00000000000E+00  0.00000000000E+00  0.93560602989E+03  0.93560602989E+03  0.00000000000E+00 0. -1.
         -1   -1    0    0    0  501 -0.00000000000E+00 -0.00000000000E+00 -0.26784007464E+03  0.26784007464E+03  0.00000000000E+00 0. -1.
         36    2    1    2    0    0  0.00000000000E+00 -0.28421709430E-13  0.66776595525E+03  0.12034461045E+04  0.10011848758E+04 0.  0.
         25    2    3    3    0    0  0.12750313909E+03  0.56035206718E+02  0.10361807966E+03  0.21476952425E+03  0.12646045723E+03 0.  0.
         35    2    3    3    0    0 -0.12750313909E+03 -0.56035206718E+02  0.56414787559E+03  0.98867658029E+03  0.79988846723E+03 0.  0.
         22    1    5    5    0    0  0.13755279608E+03  0.31711603900E+03  0.17268611037E+03  0.38639855928E+03  0.00000000000E+00 0.  1.
         22    1    5    5    0    0 -0.26505593517E+03 -0.37315124572E+03  0.39146176522E+03  0.60227802100E+03  0.00000000000E+00 0.  1.
          5    1    4    4  502    0  0.65926778974E+02  0.70365050619E+02  0.11522319630E+03  0.15031984400E+03  0.47000000000E+01 0. -1.
         -5    1    4    4    0  502  0.61576360119E+02 -0.14329843902E+02 -0.11605116639E+02  0.64449680247E+02  0.47000000000E+01 0. -1.
<mgrwt>
<rscale>  0 0.10011849E+04</rscale>
<asrwt>0</asrwt>
<pdfrwt beam="1">  1        1 0.14393939E+00 0.10011849E+04</pdfrwt>
<pdfrwt beam="2">  1       -1 0.41206166E-01 0.10011849E+04</pdfrwt>
<totfact> 0.11046061E+02</totfact>
</mgrwt>
</event>
<event>
 9    1  0.4307774E-036  0.1000225E+04  0.7818608E-02  0.8680824E-01
         -2   -1    0    0    0  501 -0.00000000000E+00  0.00000000000E+00  0.19067523541E+03  0.19067523541E+03  0.00000000000E+00 0. -1.
          2   -1    0    0  501    0  0.00000000000E+00 -0.00000000000E+00 -0.13117200258E+04  0.13117200258E+04  0.00000000000E+00 0. -1.
         36    2    1    2    0    0  0.00000000000E+00  0.35527136788E-14 -0.11210447904E+04  0.15023952612E+04  0.10002250241E+04 0.  0.
         25    2    3    3    0    0 -0.39031725675E+02  0.14740312946E+02 -0.40301537768E+03  0.42398062126E+03  0.12488963177E+03 0.  0.
         35    2    3    3    0    0  0.39031725675E+02 -0.14740312946E+02 -0.71802941271E+03  0.10784146399E+04  0.80353664864E+03 0.  0.
         22    1    5    5    0    0 -0.11531603886E+03  0.12381880384E+03  0.12492193298E+03  0.21031969556E+03  0.00000000000E+00 0.  1.
         22    1    5    5    0    0  0.15434776453E+03 -0.13855911678E+03 -0.84295134569E+03  0.86809494439E+03  0.00000000000E+00 0.  1.
          5    1    4    4  502    0 -0.24065226627E+02 -0.52560083146E+01 -0.55247116615E+01  0.25678263083E+02  0.47000000000E+01 0.  1.
         -5    1    4    4    0  502 -0.14966499048E+02  0.19996321260E+02 -0.39749066602E+03  0.39830235817E+03  0.47000000000E+01 0.  1.
<mgrwt>
<rscale>  0 0.10002250E+04</rscale>
<asrwt>0</asrwt>
<pdfrwt beam="1">  1        2 0.20180308E+00 0.10002250E+04</pdfrwt>
<pdfrwt beam="2">  1       -2 0.29334652E-01 0.10002250E+04</pdfrwt>
<totfact> 0.20898108E+02</totfact>
</mgrwt>
</event>
<event>
 9    1  0.4307774E-036  0.9993594E+03  0.7818608E-02  0.8681648E-01
          2   -1    0    0  501    0  0.00000000000E+00  0.00000000000E+00  0.17054458020E+04  0.17054458020E+04  0.00000000000E+00 0. -1.
         -2   -1    0    0    0  501 -0.00000000000E+00 -0.00000000000E+00 -0.14640149310E+03  0.14640149310E+03  0.00000000000E+00 0. -1.
         36    2    1    2    0    0 -0.56843418861E-13 -0.14210854715E-13  0.15590443089E+04  0.18518472951E+04  0.99935941845E+03 0.  0.
         25    2    3    3    0    0  0.87047380815E+02 -0.94070020211E+02  0.35907774114E+03  0.40126820009E+03  0.12511166619E+03 0.  0.
         35    2    3    3    0    0 -0.87047380815E+02  0.94070020211E+02  0.11999665678E+04  0.14505790950E+04  0.80488106694E+03 0.  0.
         22    1    5    5    0    0  0.36006648186E+03  0.13301305685E+02  0.55216320997E+03  0.65932465944E+03  0.00000000000E+00 0.  1.
         22    1    5    5    0    0 -0.44711386268E+03  0.80768714526E+02  0.64780335782E+03  0.79125443559E+03  0.00000000000E+00 0.  1.
          5    1    4    4  502    0 -0.12078679581E+02 -0.34735974319E+02  0.18173105555E+02  0.41289637657E+02  0.47000000000E+01 0.  1.
         -5    1    4    4    0  502  0.99126060396E+02 -0.59334045892E+02  0.34090463558E+03  0.35997856244E+03  0.47000000000E+01 0.  1.
<mgrwt>
<rscale>  0 0.99935942E+03</rscale>
<asrwt>0</asrwt>
<pdfrwt beam="1">  1        2 0.26237626E+00 0.99935942E+03</pdfrwt>
<pdfrwt beam="2">  1       -2 0.22523308E-01 0.99935942E+03</pdfrwt>
<totfact> 0.20003415E+02</totfact>
</mgrwt>
</event>
<event>
 9    1  0.4307774E-036  0.9992557E+03  0.7818608E-02  0.8681747E-01
         -2   -1    0    0    0  501 -0.00000000000E+00  0.00000000000E+00  0.12971285426E+03  0.12971285426E+03  0.00000000000E+00 0.  1.
          2   -1    0    0  501    0  0.00000000000E+00 -0.00000000000E+00 -0.19244659624E+04  0.19244659624E+04  0.00000000000E+00 0.  1.
         36    2    1    2    0    0 -0.21316282073E-13  0.00000000000E+00 -0.17947531081E+04  0.20541788166E+04  0.99925566878E+03 0.  0.
         25    2    3    3    0    0  0.31805758350E+02  0.11936844906E+03 -0.46203720650E+03  0.49463322708E+03  0.12618722697E+03 0.  0.
         35    2    3    3    0    0 -0.31805758350E+02 -0.11936844906E+03 -0.13327159016E+04  0.15595455895E+04  0.80049380919E+03 0.  0.
         22    1    5    5    0    0  0.20026197215E+03  0.88505704897E+02 -0.12018338784E+04  0.12216148283E+04  0.00000000000E+00 0. -1.
         22    1    5    5    0    0 -0.23206773050E+03 -0.20787415396E+03 -0.13088202317E+03  0.33793076126E+03  0.00000000000E+00 0. -1.
          5    1    4    4  502    0  0.40009058163E+02  0.13370109146E+03 -0.29134933434E+03  0.32308393835E+03  0.47000000000E+01 0.  1.
         -5    1    4    4    0  502 -0.82032998129E+01 -0.14332642405E+02 -0.17068787215E+03  0.17154928874E+03  0.47000000000E+01 0.  1.
<mgrwt>
<rscale>  0 0.99925567E+03</rscale>
<asrwt>0</asrwt>
<pdfrwt beam="1">  1        2 0.29607166E+00 0.99925567E+03</pdfrwt>
<pdfrwt beam="2">  1       -2 0.19955825E-01 0.99925567E+03</pdfrwt>
<totfact> 0.18575534E+02</totfact>
</mgrwt>
</event>
<event>
 9    1  0.4307774E-036  0.9998622E+03  0.7818608E-02  0.8681169E-01
         -2   -1    0    0    0  501 -0.00000000000E+00  0.00000000000E+00  0.14590101719E+03  0.14590101719E+03  0.00000000000E+00 0. -1.
          2   -1    0    0  501    0  0.00000000000E+00 -0.00000000000E+00 -0.17130181219E+04  0.17130181219E+04  0.00000000000E+00 0. -1.
         36    2    1    2    0    0  0.00000000000E+00 -0.14210854715E-13 -0.15671171047E+04  0.18589191391E+04  0.99986216339E+03 0.  0.
         25    2    3    3    0    0  0.13048964335E+03  0.52991693315E+02 -0.30568036709E+03  0.35874527139E+03  0.12418541112E+03 0.  0.
         35    2    3    3    0    0 -0.13048964335E+03 -0.52991693315E+02 -0.12614367376E+04  0.15001738677E+04  0.79966450698E+03 0.  0.
         22    1    5    5    0    0 -0.14163765443E+03  0.20678657809E+03 -0.43003618680E+02  0.25430537794E+03  0.00000000000E+00 0.  1.
         22    1    5    5    0    0  0.11148011081E+02 -0.25977827141E+03 -0.12184331189E+04  0.12458684897E+04  0.00000000000E+00 0.  1.
          5    1    4    4  502    0  0.10054390283E+03  0.93319814586E+02 -0.22757591641E+03  0.26576409073E+03  0.47000000000E+01 0.  1.
         -5    1    4    4    0  502  0.29945740522E+02 -0.40328121272E+02 -0.78104450678E+02  0.92981180658E+02  0.47000000000E+01 0.  1.
<mgrwt>
<rscale>  0 0.99986216E+03</rscale>
<asrwt>0</asrwt>
<pdfrwt beam="1">  1        2 0.26354126E+00 0.99986216E+03</pdfrwt>
<pdfrwt beam="2">  1       -2 0.22446309E-01 0.99986216E+03</pdfrwt>
<totfact> 0.19927193E+02</totfact>
</mgrwt>
</event>
<event>
 9    1  0.4307774E-036  0.1000519E+04  0.7818608E-02  0.8680544E-01
          3   -1    0    0  501    0  0.00000000000E+00  0.00000000000E+00  0.30353306564E+03  0.30353306564E+03  0.00000000000E+00 0. -1.
         -3   -1    0    0    0  501 -0.00000000000E+00 -0.00000000000E+00 -0.82448793084E+03  0.82448793084E+03  0.00000000000E+00 0. -1.
         36    2    1    2    0    0 -0.14210854715E-13  0.00000000000E+00 -0.52095486520E+03  0.11280209965E+04  0.10005185640E+04 0.  0.
         25    2    3    3    0    0  0.55183415152E+01  0.13661918252E+03 -0.58966697136E+02  0.19459969444E+03  0.12528653791E+03 0.  0.
         35    2    3    3    0    0 -0.55183415152E+01 -0.13661918252E+03 -0.46198816807E+03  0.93342130204E+03  0.79946670133E+03 0.  0.
         22    1    5    5    0    0 -0.16979873034E+03 -0.80208749970E+02 -0.65051415313E+03  0.67707733371E+03  0.00000000000E+00 0. -1.
         22    1    5    5    0    0  0.16428038883E+03 -0.56410432548E+02  0.18852598507E+03  0.25634396833E+03  0.00000000000E+00 0. -1.
          5    1    4    4  502    0 -0.59585828035E+02  0.69880005942E+02 -0.33075425920E+02  0.97722873130E+02  0.47000000000E+01 0. -1.
         -5    1    4    4    0  502  0.65104169550E+02  0.66739176576E+02 -0.25891271215E+02  0.96876821314E+02  0.47000000000E+01 0. -1.
<mgrwt>
<rscale>  0 0.10005186E+04</rscale>
<asrwt>0</asrwt>
<pdfrwt beam="1">  1        3 0.46697395E-01 0.10005186E+04</pdfrwt>
<pdfrwt beam="2">  1       -3 0.12684430E+00 0.10005186E+04</pdfrwt>
<totfact> 0.77285270E+00</totfact>
</mgrwt>
</event>
<event>
 9    1  0.4307774E-036  0.1000520E+04  0.7818608E-02  0.8680542E-01
          2   -1    0    0  501    0  0.00000000000E+00  0.00000000000E+00  0.11753311610E+04  0.11753311610E+04  0.00000000000E+00 0. -1.
         -2   -1    0    0    0  501 -0.00000000000E+00 -0.00000000000E+00 -0.21292748673E+03  0.21292748673E+03  0.00000000000E+00 0. -1.
         36    2    1    2    0    0 -0.28421709430E-13 -0.14210854715E-13  0.96240367422E+03  0.13882586477E+04  0.10005204849E+04 0.  0.
         25    2    3    3    0    0  0.12696198529E+02  0.97387766092E+02  0.32568224594E+03  0.36232089362E+03  0.12474748171E+03 0.  0.
         35    2    3    3    0    0 -0.12696198529E+02 -0.97387766092E+02  0.63672142829E+03  0.10259377541E+04  0.79842878677E+03 0.  0.
         22    1    5    5    0    0 -0.31693816302E+03  0.20291734809E+03  0.31833510848E+03  0.49291225449E+03  0.00000000000E+00 0.  1.
         22    1    5    5    0    0  0.30424196449E+03 -0.30030511418E+03  0.31838631981E+03  0.53302549958E+03  0.00000000000E+00 0.  1.
          5    1    4    4  502    0  0.33517719756E+02 -0.43723362277E+01  0.20264641435E+02  0.39690056113E+02  0.47000000000E+01 0. -1.
         -5    1    4    4    0  502 -0.20821521227E+02  0.10176010232E+03  0.30541760450E+03  0.32263083751E+03  0.47000000000E+01 0. -1.
<mgrwt>
<rscale>  0 0.10005205E+04</rscale>
<asrwt>0</asrwt>
<pdfrwt beam="1">  1        2 0.18082018E+00 0.10005205E+04</pdfrwt>
<pdfrwt beam="2">  1       -2 0.32758075E-01 0.10005205E+04</pdfrwt>
<totfact> 0.20523523E+02</totfact>
</mgrwt>
</event>
<event>
 9    1  0.4307774E-036  0.9994039E+03  0.7818608E-02  0.8681606E-01
         -2   -1    0    0    0  501 -0.00000000000E+00  0.00000000000E+00  0.57784863708E+03  0.57784863708E+03  0.00000000000E+00 0.  1.
          2   -1    0    0  501    0  0.00000000000E+00 -0.00000000000E+00 -0.43212360448E+03  0.43212360448E+03  0.00000000000E+00 0.  1.
         36    2    1    2    0    0  0.00000000000E+00 -0.14210854715E-13  0.14572503260E+03  0.10099722416E+04  0.99940389413E+03 0.  0.
         25    2    3    3    0    0  0.80636491501E+02 -0.96289199528E+02  0.85703873432E+02  0.19709314267E+03  0.12540613724E+03 0.  0.
         35    2    3    3    0    0 -0.80636491501E+02  0.96289199528E+02  0.60021159163E+02  0.81287909890E+03  0.80087204732E+03 0.  0.
         22    1    5    5    0    0 -0.70236546897E+02 -0.48803583319E+02  0.41790227555E+03  0.42656450178E+03  0.00000000000E+00 0. -1.
         22    1    5    5    0    0 -0.10399944604E+02  0.14509278285E+03 -0.35788111639E+03  0.38631459712E+03  0.00000000000E+00 0. -1.
          5    1    4    4  502    0  0.48726557071E+02 -0.25949223659E+02  0.10376546083E+03  0.11763078013E+03  0.47000000000E+01 0. -1.
         -5    1    4    4    0  502  0.31909934430E+02 -0.70339975869E+02 -0.18061587397E+02  0.79462362537E+02  0.47000000000E+01 0. -1.
<mgrwt>
<rscale>  0 0.99940389E+03</rscale>
<asrwt>0</asrwt>
<pdfrwt beam="1">  1        2 0.66480555E-01 0.99940389E+03</pdfrwt>
<pdfrwt beam="2">  1       -2 0.88899790E-01 0.99940389E+03</pdfrwt>
<totfact> 0.94720649E+01</totfact>
</mgrwt>
</event>
<event>
 9    1  0.4307774E-036  0.9999108E+03  0.7818608E-02  0.8681123E-01
          1   -1    0    0  501    0  0.00000000000E+00  0.00000000000E+00  0.34179913860E+03  0.34179913860E+03  0.00000000000E+00 0. -1.
         -1   -1    0    0    0  501 -0.00000000000E+00 -0.00000000000E+00 -0.73129321587E+03  0.73129321587E+03  0.00000000000E+00 0. -1.
         36    2    1    2    0    0  0.00000000000E+00  0.14210854715E-13 -0.38949407726E+03  0.10730923545E+04  0.99991077852E+03 0.  0.
         25    2    3    3    0    0  0.85254695350E+02 -0.10601286357E+03 -0.51297926484E+02  0.19141001056E+03  0.12449588170E+03 0.  0.
         35    2    3    3    0    0 -0.85254695350E+02  0.10601286357E+03 -0.33819615078E+03  0.88168234391E+03  0.80279513504E+03 0.  0.
         22    1    5    5    0    0 -0.32993478639E+02 -0.33343791030E+03 -0.27736805752E+03  0.43497407853E+03  0.00000000000E+00 0. -1.
         22    1    5    5    0    0 -0.52261216712E+02  0.43945077387E+03 -0.60828093260E+02  0.44670826538E+03  0.00000000000E+00 0. -1.
          5    1    4    4  502    0  0.52234307538E+02 -0.21591072798E+01 -0.62661809825E+02  0.81741525792E+02  0.47000000000E+01 0.  1.
         -5    1    4    4    0  502  0.33020387813E+02 -0.10385375629E+03  0.11363883341E+02  0.10966848477E+03  0.47000000000E+01 0.  1.
<mgrwt>
<rscale>  0 0.99991078E+03</rscale>
<asrwt>0</asrwt>
<pdfrwt beam="1">  1        1 0.52584483E-01 0.99991078E+03</pdfrwt>
<pdfrwt beam="2">  1       -1 0.11250665E+00 0.99991078E+03</pdfrwt>
<totfact> 0.64303603E+01</totfact>
</mgrwt>
</event>
<event>
 9    1  0.4307774E-036  0.9990786E+03  0.7818608E-02  0.8681916E-01
         -2   -1    0    0    0  501 -0.00000000000E+00  0.00000000000E+00  0.14229012607E+03  0.14229012607E+03  0.00000000000E+00 0.  1.
          2   -1    0    0  501    0  0.00000000000E+00 -0.00000000000E+00 -0.17537372248E+04  0.17537372248E+04  0.00000000000E+00 0.  1.
         36    2    1    2    0    0 -0.14210854715E-13 -0.14210854715E-13 -0.16114470987E+04  0.18960273509E+04  0.99907855710E+03 0.  0.
         25    2    3    3    0    0 -0.11510026939E+03  0.33153324348E+02 -0.16625730895E+03  0.23993781708E+03  0.12482567187E+03 0.  0.
         35    2    3    3    0    0  0.11510026939E+03 -0.33153324348E+02 -0.14451897898E+04  0.16560895338E+04  0.79981985505E+03 0.  0.
         22    1    5    5    0    0  0.41672411608E+03  0.16360035063E+03 -0.76131519696E+03  0.88319017927E+03  0.00000000000E+00 0.  1.
         22    1    5    5    0    0 -0.30162384669E+03 -0.19675367498E+03 -0.68387459281E+03  0.77289935451E+03  0.00000000000E+00 0.  1.
          5    1    4    4  502    0 -0.69523631867E+00 -0.20401364816E+02  0.98602573725E+01  0.23151970010E+02  0.47000000000E+01 0.  1.
         -5    1    4    4    0  502 -0.11440503307E+03  0.53554689164E+02 -0.17611756632E+03  0.21678584707E+03  0.47000000000E+01 0.  1.
<mgrwt>
<rscale>  0 0.99907856E+03</rscale>
<asrwt>0</asrwt>
<pdfrwt beam="1">  1        2 0.26980574E+00 0.99907856E+03</pdfrwt>
<pdfrwt beam="2">  1       -2 0.21890787E-01 0.99907856E+03</pdfrwt>
<totfact> 0.19749523E+02</totfact>
</mgrwt>
</event>
<event>
 9    1  0.4307774E-036  0.9997946E+03  0.7818608E-02  0.8681234E-01
          2   -1    0    0  501    0  0.00000000000E+00  0.00000000000E+00  0.13868534470E+04  0.13868534470E+04  0.00000000000E+00 0. -1.
         -2   -1    0    0    0  501 -0.00000000000E+00 -0.00000000000E+00 -0.18019013211E+03  0.18019013211E+03  0.00000000000E+00 0. -1.
         36    2    1    2    0    0  0.00000000000E+00 -0.71054273576E-14  0.12066633148E+04  0.15670435791E+04  0.99979459055E+03 0.  0.
         25    2    3    3    0    0 -0.12175950217E+03 -0.44467021570E+02  0.13521487859E+03  0.22350723299E+03  0.12194149183E+03 0.  0.
         35    2    3    3    0    0  0.12175950217E+03  0.44467021570E+02  0.10714484363E+04  0.13435363461E+04  0.80017839842E+03 0.  0.
         22    1    5    5    0    0  0.11436072410E+03  0.41985233905E+03  0.57695124670E+03  0.72265282321E+03  0.00000000000E+00 0. -1.
         22    1    5    5    0    0  0.73987780689E+01 -0.37538531748E+03  0.49449718955E+03  0.62088352286E+03  0.00000000000E+00 0. -1.
          5    1    4    4  502    0 -0.11616377159E+03 -0.50096655534E+01  0.44989968566E+02  0.12476099491E+03  0.47000000000E+01 0.  1.
         -5    1    4    4    0  502 -0.55957305721E+01 -0.39457356017E+02  0.90224910029E+02  0.98746238076E+02  0.47000000000E+01 0.  1.
<mgrwt>
<rscale>  0 0.99979459E+03</rscale>
<asrwt>0</asrwt>
<pdfrwt beam="1">  1        2 0.21336206E+00 0.99979459E+03</pdfrwt>
<pdfrwt beam="2">  1       -2 0.27721560E-01 0.99979459E+03</pdfrwt>
<totfact> 0.20956406E+02</totfact>
</mgrwt>
</event>
<event>
 9    1  0.4307774E-036  0.1005380E+04  0.7818608E-02  0.8675932E-01
         -1   -1    0    0    0  501 -0.00000000000E+00  0.00000000000E+00  0.14736214630E+03  0.14736214630E+03  0.00000000000E+00 0. -1.
          1   -1    0    0  501    0  0.00000000000E+00 -0.00000000000E+00 -0.17148039586E+04  0.17148039586E+04  0.00000000000E+00 0. -1.
         36    2    1    2    0    0 -0.14210854715E-13  0.00000000000E+00 -0.15674418123E+04  0.18621661049E+04  0.10053799119E+04 0.  0.
         25    2    3    3    0    0 -0.51737019525E+02 -0.74442352903E+02 -0.51755841516E+03  0.53956322857E+03  0.12265146320E+03 0.  0.
         35    2    3    3    0    0  0.51737019525E+02  0.74442352903E+02 -0.10498833972E+04  0.13226028763E+04  0.79925267456E+03 0.  0.
         22    1    5    5    0    0 -0.57445658988E+02 -0.34358457039E+03 -0.63132621381E+03  0.72105696653E+03  0.00000000000E+00 0.  1.
         22    1    5    5    0    0  0.10918267851E+03  0.41802692329E+03 -0.41855718335E+03  0.60154590981E+03  0.00000000000E+00 0.  1.
          5    1    4    4  502    0 -0.78356405305E+02 -0.80469475500E+02 -0.30220058351E+03  0.32243192368E+03  0.47000000000E+01 0. -1.
         -5    1    4    4    0  502  0.26619385780E+02  0.60271225969E+01 -0.21535783165E+03  0.21713130488E+03  0.47000000000E+01 0. -1.
<mgrwt>
<rscale>  0 0.10053799E+04</rscale>
<asrwt>0</asrwt>
<pdfrwt beam="1">  1        1 0.26381598E+00 0.10053799E+04</pdfrwt>
<pdfrwt beam="2">  1       -1 0.22671101E-01 0.10053799E+04</pdfrwt>
<totfact> 0.81985690E+01</totfact>
</mgrwt>
</event>
<event>
 9    1  0.4307774E-036  0.1000110E+04  0.7818608E-02  0.8680933E-01
          1   -1    0    0  501    0  0.00000000000E+00  0.00000000000E+00  0.51017746745E+03  0.51017746745E+03  0.00000000000E+00 0. -1.
         -1   -1    0    0    0  501 -0.00000000000E+00 -0.00000000000E+00 -0.49013340674E+03  0.49013340674E+03  0.00000000000E+00 0. -1.
         36    2    1    2    0    0  0.28421709430E-13  0.00000000000E+00  0.20044060710E+02  0.10003108742E+04  0.10001100343E+04 0.  0.
         25    2    3    3    0    0 -0.25926063461E+02 -0.10606253303E+03  0.92916372522E+02  0.18956034605E+03  0.12400907561E+03 0.  0.
         35    2    3    3    0    0  0.25926063461E+02  0.10606253303E+03 -0.72872311812E+02  0.81075052815E+03  0.80005288787E+03 0.  0.
         22    1    5    5    0    0  0.39416596985E+03 -0.74645830591E+01  0.68790178682E+02  0.40019322891E+03  0.00000000000E+00 0.  1.
         22    1    5    5    0    0 -0.36823990638E+03  0.11352711609E+03 -0.14166249049E+03  0.41055729923E+03  0.00000000000E+00 0.  1.
          5    1    4    4  502    0 -0.72567936087E+02 -0.44135159255E+02  0.64886865083E+02  0.10698791002E+03  0.47000000000E+01 0. -1.
         -5    1    4    4    0  502  0.46641872626E+02 -0.61927373775E+02  0.28029507440E+02  0.82572436030E+02  0.47000000000E+01 0. -1.
<mgrwt>
<rscale>  0 0.10001100E+04</rscale>
<asrwt>0</asrwt>
<pdfrwt beam="1">  1        1 0.78488841E-01 0.10001100E+04</pdfrwt>
<pdfrwt beam="2">  1       -1 0.75405139E-01 0.10001100E+04</pdfrwt>
<totfact> 0.89812610E+01</totfact>
</mgrwt>
</event>
<event>
 9    1  0.4307774E-036  0.9992993E+03  0.7818608E-02  0.8681706E-01
          2   -1    0    0  501    0  0.00000000000E+00  0.00000000000E+00  0.51186922460E+03  0.51186922460E+03  0.00000000000E+00 0.  1.
         -2   -1    0    0    0  501 -0.00000000000E+00 -0.00000000000E+00 -0.48772174102E+03  0.48772174102E+03  0.00000000000E+00 0.  1.
         36    2    1    2    0    0 -0.28421709430E-13  0.00000000000E+00  0.24147483587E+02  0.99959096562E+03  0.99929925327E+03 0.  0.
         25    2    3    3    0    0 -0.35358890298E+02 -0.12976829367E+03 -0.30867652007E+02  0.18632908362E+03  0.12520245324E+03 0.  0.
         35    2    3    3    0    0  0.35358890298E+02  0.12976829367E+03  0.55015135594E+02  0.81326188200E+03  0.80017383261E+03 0.  0.
         22    1    5    5    0    0 -0.15523627561E+03 -0.10961300382E+03 -0.29339335689E+03  0.34956111589E+03  0.00000000000E+00 0. -1.
         22    1    5    5    0    0  0.19059516591E+03  0.23938129749E+03  0.34840849248E+03  0.46370076611E+03  0.00000000000E+00 0. -1.
          5    1    4    4  502    0 -0.57311267788E+02 -0.14352807309E+03 -0.37653592074E+02  0.15913758882E+03  0.47000000000E+01 0. -1.
         -5    1    4    4    0  502  0.21952377491E+02  0.13759779413E+02  0.67859400670E+01  0.27191494802E+02  0.47000000000E+01 0. -1.
<mgrwt>
<rscale>  0 0.99929925E+03</rscale>
<asrwt>0</asrwt>
<pdfrwt beam="1">  1        2 0.78749111E-01 0.99929925E+03</pdfrwt>
<pdfrwt beam="2">  1       -2 0.75034114E-01 0.99929925E+03</pdfrwt>
<totfact> 0.11546259E+02</totfact>
</mgrwt>
</event>
<event>
 9    1  0.4307774E-036  0.9999215E+03  0.7818608E-02  0.8681113E-01
          2   -1    0    0  501    0  0.00000000000E+00  0.00000000000E+00  0.48288245040E+03  0.48288245040E+03  0.00000000000E+00 0. -1.
         -2   -1    0    0    0  501 -0.00000000000E+00 -0.00000000000E+00 -0.51764307133E+03  0.51764307133E+03  0.00000000000E+00 0. -1.
         36    2    1    2    0    0  0.14210854715E-13  0.14210854715E-13 -0.34760620930E+02  0.10005255217E+04  0.99992150635E+03 0.  0.
         25    2    3    3    0    0  0.11143946945E+03 -0.68725986141E+02  0.43179644827E+02  0.18586878460E+03  0.12466237138E+03 0.  0.
         35    2    3    3    0    0 -0.11143946945E+03  0.68725986141E+02 -0.77940265756E+02  0.81465673713E+03  0.80028051195E+03 0.  0.
         22    1    5    5    0    0 -0.19755140550E+03 -0.32406089870E+03  0.70493851337E+02  0.38601995668E+03  0.00000000000E+00 0. -1.
         22    1    5    5    0    0  0.86111936043E+02  0.39278688485E+03 -0.14843411709E+03  0.42863678045E+03  0.00000000000E+00 0. -1.
          5    1    4    4  502    0  0.41176419358E+02 -0.94003519245E+02  0.42144150089E+02  0.11104223759E+03  0.47000000000E+01 0. -1.
         -5    1    4    4    0  502  0.70263050094E+02  0.25277533104E+02  0.10354947375E+01  0.74826547011E+02  0.47000000000E+01 0. -1.
<mgrwt>
<rscale>  0 0.99992151E+03</rscale>
<asrwt>0</asrwt>
<pdfrwt beam="1">  1        2 0.74289608E-01 0.99992151E+03</pdfrwt>
<pdfrwt beam="2">  1       -2 0.79637395E-01 0.99992151E+03</pdfrwt>
<totfact> 0.10790993E+02</totfact>
</mgrwt>
</event>
<event>
 9    1  0.4307774E-036  0.9997212E+03  0.7818608E-02  0.8681303E-01
         -2   -1    0    0    0  501 -0.00000000000E+00  0.00000000000E+00  0.14160951058E+03  0.14160951058E+03  0.00000000000E+00 0.  1.
          2   -1    0    0  501    0  0.00000000000E+00 -0.00000000000E+00 -0.17644338875E+04  0.17644338875E+04  0.00000000000E+00 0.  1.
         36    2    1    2    0    0 -0.28421709430E-13  0.00000000000E+00 -0.16228243770E+04  0.19060433981E+04  0.99972119968E+03 0.  0.
         25    2    3    3    0    0  0.12242446234E+03  0.33360527172E+02 -0.21636531690E+03  0.28390357550E+03  0.13299103756E+03 0.  0.
         35    2    3    3    0    0 -0.12242446234E+03 -0.33360527172E+02 -0.14064590601E+04  0.16221398226E+04  0.79819160782E+03 0.  0.
         22    1    5    5    0    0 -0.42950088735E+03 -0.17632458784E+03 -0.72100498992E+03  0.85756024162E+03  0.00000000000E+00 0.  1.
         22    1    5    5    0    0  0.30707642501E+03  0.14296406067E+03 -0.68545407013E+03  0.76457958101E+03  0.00000000000E+00 0.  1.
          5    1    4    4  502    0  0.41069544254E+02  0.63976735811E+02 -0.37327763740E+02  0.84824419456E+02  0.47000000000E+01 0.  1.
         -5    1    4    4    0  502  0.81354918083E+02 -0.30616208638E+02 -0.17903755316E+03  0.19907915604E+03  0.47000000000E+01 0.  1.
<mgrwt>
<rscale>  0 0.99972120E+03</rscale>
<asrwt>0</asrwt>
<pdfrwt beam="1">  1        2 0.27145136E+00 0.99972120E+03</pdfrwt>
<pdfrwt beam="2">  1       -2 0.21786079E-01 0.99972120E+03</pdfrwt>
<totfact> 0.19640975E+02</totfact>
</mgrwt>
</event>
<event>
 9    1  0.4307774E-036  0.1000192E+04  0.7818608E-02  0.8680856E-01
         -2   -1    0    0    0  501 -0.00000000000E+00  0.00000000000E+00  0.72266998678E+02  0.72266998678E+02  0.00000000000E+00 0. -1.
          2   -1    0    0  501    0  0.00000000000E+00 -0.00000000000E+00 -0.34607192503E+04  0.34607192503E+04  0.00000000000E+00 0. -1.
         36    2    1    2    0    0 -0.21316282073E-13  0.00000000000E+00 -0.33884522516E+04  0.35329862490E+04  0.10001915686E+04 0.  0.
         25    2    3    3    0    0  0.27208311238E+02 -0.11292344749E+03 -0.91747390006E+03  0.93302419867E+03  0.12362767013E+03 0.  0.
         35    2    3    3    0    0 -0.27208311238E+02  0.11292344749E+03 -0.24709783516E+04  0.25999620503E+04  0.80036032632E+03 0.  0.
         22    1    5    5    0    0  0.33667729637E+03  0.24744536071E+03 -0.11698831165E+04  0.12422589564E+04  0.00000000000E+00 0. -1.
         22    1    5    5    0    0 -0.36388560761E+03 -0.13452191322E+03 -0.13010952350E+04  0.13577030939E+04  0.00000000000E+00 0. -1.
          5    1    4    4  502    0  0.66452043699E+02 -0.87874771402E+02 -0.45425785410E+03  0.46745067930E+03  0.47000000000E+01 0. -1.
         -5    1    4    4    0  502 -0.39243732461E+02 -0.25048676090E+02 -0.46321604596E+03  0.46557351938E+03  0.47000000000E+01 0. -1.
<mgrwt>
<rscale>  0 0.10001916E+04</rscale>
<asrwt>0</asrwt>
<pdfrwt beam="1">  1        2 0.53241839E+00 0.10001916E+04</pdfrwt>
<pdfrwt beam="2">  1       -2 0.11117999E-01 0.10001916E+04</pdfrwt>
<totfact> 0.51974133E+01</totfact>
</mgrwt>
</event>
<event>
 9    1  0.4307774E-036  0.1002616E+04  0.7818608E-02  0.8678551E-01
          2   -1    0    0  501    0  0.00000000000E+00  0.00000000000E+00  0.12285709182E+04  0.12285709182E+04  0.00000000000E+00 0.  1.
         -2   -1    0    0    0  501 -0.00000000000E+00 -0.00000000000E+00 -0.20455451676E+03  0.20455451676E+03  0.00000000000E+00 0.  1.
         36    2    1    2    0    0 -0.14210854715E-13 -0.14210854715E-13  0.10240164014E+04  0.14331254350E+04  0.10026160391E+04 0.  0.
         25    2    3    3    0    0 -0.12798478893E+03 -0.46990038159E+01  0.28614187347E+03  0.33728394271E+03  0.12442306628E+03 0.  0.
         35    2    3    3    0    0  0.12798478893E+03  0.46990038159E+01  0.73787452796E+03  0.10958414922E+04  0.80000473140E+03 0.  0.
         22    1    5    5    0    0  0.16333217314E+03  0.34232550671E+03  0.63756800106E+03  0.74186057134E+03  0.00000000000E+00 0.  1.
         22    1    5    5    0    0 -0.35347384209E+02 -0.33762650289E+03  0.10030652690E+03  0.35398092091E+03  0.00000000000E+00 0.  1.
          5    1    4    4  502    0 -0.60889196229E+02  0.58913941213E+02  0.11802764992E+03  0.14536492986E+03  0.47000000000E+01 0. -1.
         -5    1    4    4    0  502 -0.67095592702E+02 -0.63612945029E+02  0.16811422355E+03  0.19191901285E+03  0.47000000000E+01 0. -1.
<mgrwt>
<rscale>  0 0.10026160E+04</rscale>
<asrwt>0</asrwt>
<pdfrwt beam="1">  1        2 0.18901091E+00 0.10026160E+04</pdfrwt>
<pdfrwt beam="2">  1       -2 0.31469926E-01 0.10026160E+04</pdfrwt>
<totfact> 0.20551985E+02</totfact>
</mgrwt>
</event>
<event>
 9    1  0.4307774E-036  0.1000107E+04  0.7818608E-02  0.8680936E-01
         -2   -1    0    0    0  501 -0.00000000000E+00  0.00000000000E+00  0.26593127567E+03  0.26593127567E+03  0.00000000000E+00 0.  1.
          2   -1    0    0  501    0  0.00000000000E+00 -0.00000000000E+00 -0.94029386437E+03  0.94029386437E+03  0.00000000000E+00 0.  1.
         36    2    1    2    0    0  0.00000000000E+00  0.00000000000E+00 -0.67436258870E+03  0.12062251400E+04  0.10001070880E+04 0.  0.
         25    2    3    3    0    0 -0.60111708345E+02 -0.43325108899E+02 -0.27033064250E+03  0.30652328717E+03  0.12404590588E+03 0.  0.
         35    2    3    3    0    0  0.60111708345E+02  0.43325108899E+02 -0.40403194620E+03  0.89970185287E+03  0.80045682455E+03 0.  0.
         22    1    5    5    0    0  0.55654943353E+02  0.11228995090E+03 -0.64085856518E+03  0.65299786092E+03  0.00000000000E+00 0.  1.
         22    1    5    5    0    0  0.44567649922E+01 -0.68964842001E+02  0.23682661898E+03  0.24670399195E+03  0.00000000000E+00 0.  1.
          5    1    4    4  502    0 -0.75622236168E+02 -0.10372004326E+02 -0.25587298716E+03  0.26705687902E+03  0.47000000000E+01 0. -1.
         -5    1    4    4    0  502  0.15510527823E+02 -0.32953104573E+02 -0.14457655340E+02  0.39466408150E+02  0.47000000000E+01 0. -1.
<mgrwt>
<rscale>  0 0.10001071E+04</rscale>
<asrwt>0</asrwt>
<pdfrwt beam="1">  1        2 0.14466059E+00 0.10001071E+04</pdfrwt>
<pdfrwt beam="2">  1       -2 0.40912504E-01 0.10001071E+04</pdfrwt>
<totfact> 0.18854300E+02</totfact>
</mgrwt>
</event>
<event>
 9    1  0.4307774E-036  0.1000362E+04  0.7818608E-02  0.8680693E-01
          1   -1    0    0  501    0  0.00000000000E+00  0.00000000000E+00  0.11008767697E+04  0.11008767697E+04  0.00000000000E+00 0. -1.
         -1   -1    0    0    0  501 -0.00000000000E+00 -0.00000000000E+00 -0.22725622450E+03  0.22725622450E+03  0.00000000000E+00 0. -1.
         36    2    1    2    0    0 -0.14210854715E-13 -0.28421709430E-13  0.87362054516E+03  0.13281329942E+04  0.10003621311E+04 0.  0.
         25    2    3    3    0    0 -0.43257333049E+02  0.10134476659E+03  0.29576554284E+03  0.33936500349E+03  0.12469719597E+03 0.  0.
         35    2    3    3    0    0  0.43257333049E+02 -0.10134476659E+03  0.57785500232E+03  0.98876799068E+03  0.79473503579E+03 0.  0.
         22    1    5    5    0    0 -0.24102034780E+03  0.24760648021E+03  0.18835589018E+03  0.39354506535E+03  0.00000000000E+00 0. -1.
         22    1    5    5    0    0  0.28427768085E+03 -0.34895124680E+03  0.38949911214E+03  0.59522292533E+03  0.00000000000E+00 0. -1.
          5    1    4    4  502    0 -0.35375244652E+02  0.96720517311E+02  0.10098406700E+03  0.14431264044E+03  0.47000000000E+01 0. -1.
         -5    1    4    4    0  502 -0.78820883971E+01  0.46242492744E+01  0.19478147584E+03  0.19505236304E+03  0.47000000000E+01 0. -1.
<mgrwt>
<rscale>  0 0.10003621E+04</rscale>
<asrwt>0</asrwt>
<pdfrwt beam="1">  1        1 0.16936565E+00 0.10003621E+04</pdfrwt>
<pdfrwt beam="2">  1       -1 0.34962497E-01 0.10003621E+04</pdfrwt>
<totfact> 0.10931059E+02</totfact>
</mgrwt>
</event>
<event>
 9    1  0.4307774E-036  0.1000330E+04  0.7818608E-02  0.8680723E-01
         -2   -1    0    0    0  501 -0.00000000000E+00  0.00000000000E+00  0.37709249688E+03  0.37709249688E+03  0.00000000000E+00 0.  1.
          2   -1    0    0  501    0  0.00000000000E+00 -0.00000000000E+00 -0.66340538970E+03  0.66340538970E+03  0.00000000000E+00 0.  1.
         36    2    1    2    0    0  0.14210854715E-13  0.14210854715E-13 -0.28631289282E+03  0.10404978866E+04  0.10003303351E+04 0.  0.
         25    2    3    3    0    0 -0.57248924945E+02  0.10104712573E+03  0.27219783130E+02  0.17338692431E+03  0.12583381064E+03 0.  0.
         35    2    3    3    0    0  0.57248924945E+02 -0.10104712573E+03 -0.31353267595E+03  0.86711096227E+03  0.80005669860E+03 0.  0.
         22    1    5    5    0    0  0.20359266390E+03 -0.17843024246E+02  0.22436075093E+03  0.30348985628E+03  0.00000000000E+00 0.  1.
         22    1    5    5    0    0 -0.14634373896E+03 -0.83204101489E+02 -0.53789342688E+03  0.56362110599E+03  0.00000000000E+00 0.  1.
          5    1    4    4  502    0  0.94415937852E+01  0.80549672857E+02  0.55041774443E+02  0.98127877917E+02  0.47000000000E+01 0. -1.
         -5    1    4    4    0  502 -0.66690518731E+02  0.20497452878E+02 -0.27821991313E+02  0.75259046391E+02  0.47000000000E+01 0. -1.
<mgrwt>
<rscale>  0 0.10003303E+04</rscale>
<asrwt>0</asrwt>
<pdfrwt beam="1">  1        2 0.10206237E+00 0.10003303E+04</pdfrwt>
<pdfrwt beam="2">  1       -2 0.58014231E-01 0.10003303E+04</pdfrwt>
<totfact> 0.14748328E+02</totfact>
</mgrwt>
</event>
<event>
 9    1  0.4307774E-036  0.1000293E+04  0.7818608E-02  0.8680759E-01
          1   -1    0    0  501    0  0.00000000000E+00  0.00000000000E+00  0.17777693891E+04  0.17777693891E+04  0.00000000000E+00 0. -1.
         -1   -1    0    0    0  501 -0.00000000000E+00 -0.00000000000E+00 -0.14070810514E+03  0.14070810514E+03  0.00000000000E+00 0. -1.
         36    2    1    2    0    0  0.00000000000E+00  0.23092638912E-13  0.16370612840E+04  0.19184774943E+04  0.10002930813E+04 0.  0.
         25    2    3    3    0    0 -0.66841514619E+02  0.19596201259E+00  0.67598768477E+02  0.15657425187E+03  0.12441091742E+03 0.  0.
         35    2    3    3    0    0  0.66841514619E+02 -0.19596201259E+00  0.15694625155E+04  0.17619032424E+04  0.79788634621E+03 0.  0.
         22    1    5    5    0    0  0.21132825762E+03  0.34994960592E+03  0.97219274169E+03  0.10546483234E+04  0.00000000000E+00 0.  1.
         22    1    5    5    0    0 -0.14448674300E+03 -0.35014556794E+03  0.59726977382E+03  0.70725491894E+03  0.00000000000E+00 0.  1.
          5    1    4    4  502    0  0.36205932647E+02  0.67753821831E+01  0.25065204953E+02  0.44801002912E+02  0.47000000000E+01 0.  1.
         -5    1    4    4    0  502 -0.10304744727E+03 -0.65794201705E+01  0.42533563524E+02  0.11177324896E+03  0.47000000000E+01 0.  1.
<mgrwt>
<rscale>  0 0.10002931E+04</rscale>
<asrwt>0</asrwt>
<pdfrwt beam="1">  1        1 0.27350297E+00 0.10002931E+04</pdfrwt>
<pdfrwt beam="2">  1       -1 0.21647402E-01 0.10002931E+04</pdfrwt>
<totfact> 0.79985168E+01</totfact>
</mgrwt>
</event>
<event>
 9    1  0.4307774E-036  0.9994920E+03  0.7818608E-02  0.8681522E-01
         -1   -1    0    0    0  501 -0.00000000000E+00  0.00000000000E+00  0.56984320582E+03  0.56984320582E+03  0.00000000000E+00 0. -1.
          1   -1    0    0  501    0  0.00000000000E+00 -0.00000000000E+00 -0.43827152758E+03  0.43827152758E+03  0.00000000000E+00 0. -1.
         36    2    1    2    0    0  0.00000000000E+00  0.22204460493E-15  0.13157167823E+03  0.10081147334E+04  0.99949197555E+03 0.  0.
         25    2    3    3    0    0 -0.13819407785E+03  0.93733972259E+00  0.28503290284E+02  0.18826478183E+03  0.12463028831E+03 0.  0.
         35    2    3    3    0    0  0.13819407785E+03 -0.93733972259E+00  0.10306838795E+03  0.81984995157E+03  0.80151878876E+03 0.  0.
         22    1    5    5    0    0 -0.29073423719E+03 -0.35710482732E+00 -0.14443491128E+03  0.32463513026E+03  0.00000000000E+00 0. -1.
         22    1    5    5    0    0  0.42892831504E+03 -0.58023489527E+00  0.24750329923E+03  0.49521482131E+03  0.00000000000E+00 0. -1.
          5    1    4    4  502    0  0.19397699759E+02  0.18650698794E+02  0.66339385485E+01  0.28110824643E+02  0.47000000000E+01 0. -1.
         -5    1    4    4    0  502 -0.15759177760E+03 -0.17713359071E+02  0.21869351736E+02  0.16015395719E+03  0.47000000000E+01 0. -1.
<mgrwt>
<rscale>  0 0.99949198E+03</rscale>
<asrwt>0</asrwt>
<pdfrwt beam="1">  1        1 0.67426389E-01 0.99949198E+03</pdfrwt>
<pdfrwt beam="2">  1       -1 0.87668185E-01 0.99949198E+03</pdfrwt>
<totfact> 0.80702633E+01</totfact>
</mgrwt>
</event>
<event>
 9    1  0.4307774E-036  0.1000005E+04  0.7818608E-02  0.8681034E-01
         -1   -1    0    0    0  501 -0.00000000000E+00  0.00000000000E+00  0.20174243955E+03  0.20174243955E+03  0.00000000000E+00 0.  1.
          1   -1    0    0  501    0  0.00000000000E+00 -0.00000000000E+00 -0.12392150945E+04  0.12392150945E+04  0.00000000000E+00 0.  1.
         36    2    1    2    0    0  0.42632564146E-13  0.14210854715E-13 -0.10374726549E+04  0.14409575340E+04  0.10000045526E+04 0.  0.
         25    2    3    3    0    0  0.39757581224E+01  0.99335986770E+02 -0.33801768047E+03  0.37358053400E+03  0.12418944461E+03 0.  0.
         35    2    3    3    0    0 -0.39757581224E+01 -0.99335986770E+02 -0.69945497447E+03  0.10673770000E+04  0.80010808893E+03 0.  0.
         22    1    5    5    0    0  0.34633579566E+03  0.65565959703E+02 -0.12373801415E+03  0.37357525958E+03  0.00000000000E+00 0. -1.
         22    1    5    5    0    0 -0.35031155378E+03 -0.16490194647E+03 -0.57571696032E+03  0.69380174046E+03  0.00000000000E+00 0. -1.
          5    1    4    4  502    0  0.42992862900E+02  0.37074297759E+02 -0.48397734764E+02  0.74748381554E+02  0.47000000000E+01 0.  1.
         -5    1    4    4    0  502 -0.39017104777E+02  0.62261689011E+02 -0.28961994571E+03  0.29883215245E+03  0.47000000000E+01 0.  1.
<mgrwt>
<rscale>  0 0.10000046E+04</rscale>
<asrwt>0</asrwt>
<pdfrwt beam="1">  1        1 0.19064847E+00 0.10000046E+04</pdfrwt>
<pdfrwt beam="2">  1       -1 0.31037299E-01 0.10000046E+04</pdfrwt>
<totfact> 0.10569704E+02</totfact>
</mgrwt>
</event>
<event>
 9    1  0.4307774E-036  0.9980701E+03  0.7818608E-02  0.8682878E-01
         -4   -1    0    0    0  501 -0.00000000000E+00  0.00000000000E+00  0.11214829536E+04  0.11214829536E+04  0.00000000000E+00 0. -1.
          4   -1    0    0  501    0  0.00000000000E+00 -0.00000000000E+00 -0.22205955105E+03  0.22205955105E+03  0.00000000000E+00 0. -1.
         36    2    1    2    0    0 -0.28421709430E-13 -0.71054273576E-14  0.89942340250E+03  0.13435425046E+04  0.99807014018E+03 0.  0.
         25    2    3    3    0    0  0.11957043299E+03  0.51884693335E+02  0.22505074445E+03  0.28942670467E+03  0.12700736180E+03 0.  0.
         35    2    3    3    0    0 -0.11957043299E+03 -0.51884693335E+02  0.67437265804E+03  0.10541157999E+04  0.79962023980E+03 0.  0.
         22    1    5    5    0    0  0.24440465374E+03 -0.15875576020E+03  0.60073049684E+03  0.66769316007E+03  0.00000000000E+00 0.  1.
         22    1    5    5    0    0 -0.36397508673E+03  0.10687106686E+03  0.73642161202E+02  0.38642263986E+03  0.00000000000E+00 0.  1.
          5    1    4    4  502    0  0.23615461731E+01 -0.22969272089E+02 -0.14369227739E+01  0.23607606987E+02  0.47000000000E+01 0.  1.
         -5    1    4    4    0  502  0.11720888682E+03  0.74853965423E+02  0.22648766723E+03  0.26581909769E+03  0.47000000000E+01 0.  1.
<mgrwt>
<rscale>  0 0.99807014E+03</rscale>
<asrwt>0</asrwt>
<pdfrwt beam="1">  1        4 0.34163008E-01 0.99807014E+03</pdfrwt>
<pdfrwt beam="2">  1       -4 0.17253584E+00 0.99807014E+03</pdfrwt>
<totfact> 0.32131787E+00</totfact>
</mgrwt>
</event>
<event>
 9    1  0.4307774E-036  0.9994486E+03  0.7818608E-02  0.8681563E-01
         -2   -1    0    0    0  501 -0.00000000000E+00  0.00000000000E+00  0.30695836498E+03  0.30695836498E+03  0.00000000000E+00 0. -1.
          2   -1    0    0  501    0  0.00000000000E+00 -0.00000000000E+00 -0.81354484949E+03  0.81354484949E+03  0.00000000000E+00 0. -1.
         36    2    1    2    0    0  0.00000000000E+00  0.31974423109E-13 -0.50658648451E+03  0.11205032145E+04  0.99944864167E+03 0.  0.
         25    2    3    3    0    0  0.48400340305E+02 -0.20312150927E+02  0.48731442742E+02  0.14563438585E+03  0.12680474918E+03 0.  0.
         35    2    3    3    0    0 -0.48400340305E+02  0.20312150927E+02 -0.55531792726E+03  0.97486882862E+03  0.79952239260E+03 0.  0.
         22    1    5    5    0    0  0.67707478706E+02  0.28580735084E+03 -0.61270391815E+03  0.67946761202E+03  0.00000000000E+00 0. -1.
         22    1    5    5    0    0 -0.11610781901E+03 -0.26549519992E+03  0.57385990896E+02  0.29540121659E+03  0.00000000000E+00 0. -1.
          5    1    4    4  502    0  0.74421088921E+02 -0.21942289302E+02  0.75223180763E+02  0.10816921679E+03  0.47000000000E+01 0. -1.
         -5    1    4    4    0  502 -0.26020748616E+02  0.16301383748E+01 -0.26491738021E+02  0.37465169065E+02  0.47000000000E+01 0. -1.
<mgrwt>
<rscale>  0 0.99944864E+03</rscale>
<asrwt>0</asrwt>
<pdfrwt beam="1">  1        2 0.12516074E+00 0.99944864E+03</pdfrwt>
<pdfrwt beam="2">  1       -2 0.47224364E-01 0.99944864E+03</pdfrwt>
<totfact> 0.17323475E+02</totfact>
</mgrwt>
</event>
<event>
 9    1  0.4307774E-036  0.1001516E+04  0.7818608E-02  0.8679595E-01
         -2   -1    0    0    0  501 -0.00000000000E+00  0.00000000000E+00  0.52158966427E+03  0.52158966427E+03  0.00000000000E+00 0. -1.
          2   -1    0    0  501    0  0.00000000000E+00 -0.00000000000E+00 -0.48075880647E+03  0.48075880647E+03  0.00000000000E+00 0. -1.
         36    2    1    2    0    0  0.28421709430E-13  0.14210854715E-13  0.40830857805E+02  0.10023484707E+04  0.10015164990E+04 0.  0.
         25    2    3    3    0    0  0.13357816994E+03 -0.43104001838E+02  0.77013118685E-01  0.18829198055E+03  0.12551008544E+03 0.  0.
         35    2    3    3    0    0 -0.13357816994E+03  0.43104001838E+02  0.40753844686E+02  0.81405649019E+03  0.80082832799E+03 0.  0.
         22    1    5    5    0    0  0.27549296419E+03 -0.13169366252E+03  0.17172234459E+03  0.35032578794E+03  0.00000000000E+00 0. -1.
         22    1    5    5    0    0 -0.40907113413E+03  0.17479766436E+03 -0.13096849991E+03  0.46373070225E+03  0.00000000000E+00 0. -1.
          5    1    4    4  502    0  0.10180467668E+03 -0.47594197831E+02 -0.54360337825E+02  0.12492612292E+03  0.47000000000E+01 0. -1.
         -5    1    4    4    0  502  0.31773493267E+02  0.44901959938E+01  0.54437350944E+02  0.63365857623E+02  0.47000000000E+01 0. -1.
<mgrwt>
<rscale>  0 0.10015165E+04</rscale>
<asrwt>0</asrwt>
<pdfrwt beam="1">  1        2 0.73962893E-01 0.10015165E+04</pdfrwt>
<pdfrwt beam="2">  1       -2 0.80244564E-01 0.10015165E+04</pdfrwt>
<totfact> 0.10657422E+02</totfact>
</mgrwt>
</event>
<event>
 9    1  0.4307774E-036  0.9999415E+03  0.7818608E-02  0.8681094E-01
         -2   -1    0    0    0  501 -0.00000000000E+00  0.00000000000E+00  0.10443608638E+03  0.10443608638E+03  0.00000000000E+00 0. -1.
          2   -1    0    0  501    0  0.00000000000E+00 -0.00000000000E+00 -0.23935283723E+04  0.23935283723E+04  0.00000000000E+00 0. -1.
         36    2    1    2    0    0 -0.21316282073E-13 -0.14210854715E-13 -0.22890922859E+04  0.24979644587E+04  0.99994146997E+03 0.  0.
         25    2    3    3    0    0  0.50906879675E+02 -0.12391853326E+03 -0.32827436237E+03  0.37578270305E+03  0.12450409488E+03 0.  0.
         35    2    3    3    0    0 -0.50906879675E+02  0.12391853326E+03 -0.19608179236E+04  0.21221817557E+04  0.80056302770E+03 0.  0.
         22    1    5    5    0    0  0.33574367371E+03  0.22157965050E+03 -0.11557228289E+04  0.12237306130E+04  0.00000000000E+00 0. -1.
         22    1    5    5    0    0 -0.38665055339E+03 -0.97661117243E+02 -0.80509509465E+03  0.89845114262E+03  0.00000000000E+00 0. -1.
          5    1    4    4  502    0 -0.18234019655E+02 -0.68748842984E+02 -0.59702335743E+02  0.92980330057E+02  0.47000000000E+01 0. -1.
         -5    1    4    4    0  502  0.69140899330E+02 -0.55169690274E+02 -0.26857202663E+03  0.28280237299E+03  0.47000000000E+01 0. -1.
<mgrwt>
<rscale>  0 0.99994147E+03</rscale>
<asrwt>0</asrwt>
<pdfrwt beam="1">  1        2 0.36823511E+00 0.99994147E+03</pdfrwt>
<pdfrwt beam="2">  1       -2 0.16067091E-01 0.99994147E+03</pdfrwt>
<totfact> 0.14381453E+02</totfact>
</mgrwt>
</event>
<event>
 9    1  0.4307774E-036  0.9958107E+03  0.7818608E-02  0.8685038E-01
          1   -1    0    0  501    0  0.00000000000E+00  0.00000000000E+00  0.67885023568E+03  0.67885023568E+03  0.00000000000E+00 0.  1.
         -1   -1    0    0    0  501 -0.00000000000E+00 -0.00000000000E+00 -0.36519059838E+03  0.36519059838E+03  0.00000000000E+00 0.  1.
         36    2    1    2    0    0  0.00000000000E+00  0.28421709430E-13  0.31365963730E+03  0.10440408341E+04  0.99581067233E+03 0.  0.
         25    2    3    3    0    0 -0.25326881549E+02  0.10927508344E+03  0.13650386005E+03  0.21748743048E+03  0.12682658955E+03 0.  0.
         35    2    3    3    0    0  0.25326881549E+02 -0.10927508344E+03  0.17715577725E+03  0.82655340359E+03  0.79951476833E+03 0.  0.
         22    1    5    5    0    0  0.99379401088E+02 -0.25837921314E+03 -0.24693122702E+03  0.37095972021E+03  0.00000000000E+00 0. -1.
         22    1    5    5    0    0 -0.74052519540E+02  0.14910412970E+03  0.42408700427E+03  0.45559368338E+03  0.00000000000E+00 0. -1.
          5    1    4    4  502    0  0.98619873971E+01 -0.26038985982E+02  0.13909966358E+02  0.31478004233E+02  0.47000000000E+01 0.  1.
         -5    1    4    4    0  502 -0.35188868946E+02  0.13531406942E+03  0.12259389370E+03  0.18600942625E+03  0.47000000000E+01 0.  1.
<mgrwt>
<rscale>  0 0.99581067E+03</rscale>
<asrwt>0</asrwt>
<pdfrwt beam="1">  1        1 0.10443850E+00 0.99581067E+03</pdfrwt>
<pdfrwt beam="2">  1       -1 0.56183169E-01 0.99581067E+03</pdfrwt>
<totfact> 0.10544648E+02</totfact>
</mgrwt>
</event>
<event>
 9    1  0.4307774E-036  0.1000309E+04  0.7818608E-02  0.8680744E-01
          2   -1    0    0  501    0  0.00000000000E+00  0.00000000000E+00  0.44221346135E+03  0.44221346135E+03  0.00000000000E+00 0.  1.
         -2   -1    0    0    0  501 -0.00000000000E+00 -0.00000000000E+00 -0.56568689290E+03  0.56568689290E+03  0.00000000000E+00 0.  1.
         36    2    1    2    0    0  0.28421709430E-13 -0.56843418861E-13 -0.12347343155E+03  0.10079003542E+04  0.10003086703E+04 0.  0.
         25    2    3    3    0    0  0.95846250459E+02  0.75872038749E+02  0.45765636601E+02  0.18126842230E+03  0.12578027444E+03 0.  0.
         35    2    3    3    0    0 -0.95846250459E+02 -0.75872038749E+02 -0.16923906815E+03  0.82663193195E+03  0.79983461962E+03 0.  0.
         22    1    5    5    0    0 -0.23288425809E+03  0.31481594254E+03 -0.12070068584E+03  0.40977165702E+03  0.00000000000E+00 0. -1.
         22    1    5    5    0    0  0.13703800763E+03 -0.39068798128E+03 -0.48538382309E+02  0.41686027493E+03  0.00000000000E+00 0. -1.
          5    1    4    4  502    0  0.10438243478E+01  0.69344949732E+02 -0.11150829152E+02  0.70400586741E+02  0.47000000000E+01 0. -1.
         -5    1    4    4    0  502  0.94802426111E+02  0.65270890163E+01  0.56916465753E+02  0.11086783556E+03  0.47000000000E+01 0. -1.
<mgrwt>
<rscale>  0 0.10003087E+04</rscale>
<asrwt>0</asrwt>
<pdfrwt beam="1">  1        2 0.68032840E-01 0.10003087E+04</pdfrwt>
<pdfrwt beam="2">  1       -2 0.87028753E-01 0.10003087E+04</pdfrwt>
<totfact> 0.96995658E+01</totfact>
</mgrwt>
</event>
<event>
 9    1  0.4307774E-036  0.1002013E+04  0.7818608E-02  0.8679123E-01
         -1   -1    0    0    0  501 -0.00000000000E+00  0.00000000000E+00  0.25506426276E+03  0.25506426276E+03  0.00000000000E+00 0.  1.
          1   -1    0    0  501    0  0.00000000000E+00 -0.00000000000E+00 -0.98409525702E+03  0.98409525702E+03  0.00000000000E+00 0.  1.
         36    2    1    2    0    0 -0.28421709430E-13 -0.14210854715E-13 -0.72903099427E+03  0.12391595198E+04  0.10020130363E+04 0.  0.
         25    2    3    3    0    0 -0.65272060364E+02 -0.95656496920E+02 -0.23847058802E+03  0.29333705067E+03  0.12556988762E+03 0.  0.
         35    2    3    3    0    0  0.65272060364E+02  0.95656496920E+02 -0.49056040624E+03  0.94582246911E+03  0.80032494878E+03 0.  0.
         22    1    5    5    0    0  0.72622254545E+02  0.23732468679E+03 -0.67150308565E+03  0.71590040708E+03  0.00000000000E+00 0. -1.
         22    1    5    5    0    0 -0.73501941811E+01 -0.14166818987E+03  0.18094267941E+03  0.22992206203E+03  0.00000000000E+00 0. -1.
          5    1    4    4  502    0 -0.10227395445E+03 -0.57445045237E+02 -0.16609406850E+03  0.20339425894E+03  0.47000000000E+01 0.  1.
         -5    1    4    4    0  502  0.37001894083E+02 -0.38211451683E+02 -0.72376519525E+02  0.89942791729E+02  0.47000000000E+01 0.  1.
<mgrwt>
<rscale>  0 0.10020130E+04</rscale>
<asrwt>0</asrwt>
<pdfrwt beam="1">  1        1 0.15139927E+00 0.10020130E+04</pdfrwt>
<pdfrwt beam="2">  1       -1 0.39240657E-01 0.10020130E+04</pdfrwt>
<totfact> 0.11009807E+02</totfact>
</mgrwt>
</event>
<event>
 9    1  0.4307774E-036  0.9999043E+03  0.7818608E-02  0.8681129E-01
         -2   -1    0    0    0  501 -0.00000000000E+00  0.00000000000E+00  0.10086986206E+03  0.10086986206E+03  0.00000000000E+00 0.  1.
          2   -1    0    0  501    0  0.00000000000E+00 -0.00000000000E+00 -0.24779664879E+04  0.24779664879E+04  0.00000000000E+00 0.  1.
         36    2    1    2    0    0 -0.71054273576E-14  0.00000000000E+00 -0.23770966258E+04  0.25788363499E+04  0.99990427103E+03 0.  0.
         25    2    3    3    0    0 -0.22675652964E+02 -0.13546144818E+03 -0.47237918803E+03  0.50745180275E+03  0.12450399853E+03 0.  0.
         35    2    3    3    0    0  0.22675652964E+02  0.13546144818E+03 -0.19047174378E+04  0.20713845472E+04  0.80238484238E+03 0.  0.
         22    1    5    5    0    0 -0.59665912613E+02  0.19699565074E+03 -0.19487258753E+04  0.19595662388E+04  0.00000000000E+00 0.  1.
         22    1    5    5    0    0  0.82341565577E+02 -0.61534202555E+02  0.44008437480E+02  0.11181830832E+03  0.00000000000E+00 0.  1.
          5    1    4    4  502    0 -0.40146641576E+02 -0.42406379046E+02 -0.33776543507E+03  0.34280844935E+03  0.47000000000E+01 0.  1.
         -5    1    4    4    0  502  0.17470988612E+02 -0.93055069136E+02 -0.13461375296E+03  0.16464335341E+03  0.47000000000E+01 0.  1.
<mgrwt>
<rscale>  0 0.99990427E+03</rscale>
<asrwt>0</asrwt>
<pdfrwt beam="1">  1        2 0.38122563E+00 0.99990427E+03</pdfrwt>
<pdfrwt beam="2">  1       -2 0.15518440E-01 0.99990427E+03</pdfrwt>
<totfact> 0.13564926E+02</totfact>
</mgrwt>
</event>
<event>
 9    1  0.4307774E-036  0.1002115E+04  0.7818608E-02  0.8679027E-01
         -2   -1    0    0    0  501 -0.00000000000E+00  0.00000000000E+00  0.25830028544E+03  0.25830028544E+03  0.00000000000E+00 0.  1.
          2   -1    0    0  501    0  0.00000000000E+00 -0.00000000000E+00 -0.97196346504E+03  0.97196346504E+03  0.00000000000E+00 0.  1.
         36    2    1    2    0    0  0.71054273576E-14  0.21316282073E-13 -0.71366317960E+03  0.12302637505E+04  0.10021146450E+04 0.  0.
         25    2    3    3    0    0  0.37566526828E+02 -0.62980097785E+02  0.16116514997E+02  0.14567763974E+03  0.12483787890E+03 0.  0.
         35    2    3    3    0    0 -0.37566526828E+02  0.62980097785E+02 -0.72977969460E+03  0.10845861107E+04  0.79898115892E+03 0.  0.
         22    1    5    5    0    0  0.87781197035E+01 -0.15272645938E+03 -0.82876785783E+03  0.84276840766E+03  0.00000000000E+00 0. -1.
         22    1    5    5    0    0 -0.46344646532E+02  0.21570655716E+03  0.98988163228E+02  0.24181770308E+03  0.00000000000E+00 0. -1.
          5    1    4    4  502    0  0.57846025751E+02  0.35544432979E+01 -0.26573860247E+02  0.63930093155E+02  0.47000000000E+01 0.  1.
         -5    1    4    4    0  502 -0.20279498923E+02 -0.66534541083E+02  0.42690375244E+02  0.81747546582E+02  0.47000000000E+01 0.  1.
<mgrwt>
<rscale>  0 0.10021146E+04</rscale>
<asrwt>0</asrwt>
<pdfrwt beam="1">  1        2 0.14953284E+00 0.10021146E+04</pdfrwt>
<pdfrwt beam="2">  1       -2 0.39738505E-01 0.10021146E+04</pdfrwt>
<totfact> 0.19026519E+02</totfact>
</mgrwt>
</event>
<event>
 9    1  0.4307774E-036  0.1000033E+04  0.7818608E-02  0.8681007E-01
         -3   -1    0    0    0  501 -0.00000000000E+00  0.00000000000E+00  0.36698351152E+03  0.36698351152E+03  0.00000000000E+00 0. -1.
          3   -1    0    0  501    0  0.00000000000E+00 -0.00000000000E+00 -0.68127400218E+03  0.68127400218E+03  0.00000000000E+00 0. -1.
         36    2    1    2    0    0 -0.28421709430E-13  0.71054273576E-14 -0.31429049065E+03  0.10482575137E+04  0.10000326507E+04 0.  0.
         25    2    3    3    0    0  0.13438182959E+03  0.28829893969E+02 -0.22851437681E+02  0.18594450025E+03  0.12314028610E+03 0.  0.
         35    2    3    3    0    0 -0.13438182959E+03 -0.28829893969E+02 -0.29143905297E+03  0.86231301344E+03  0.79984834353E+03 0.  0.
         22    1    5    5    0    0 -0.12478622149E+03 -0.28207188054E+03 -0.46296213478E+03  0.55630035512E+03  0.00000000000E+00 0. -1.
         22    1    5    5    0    0 -0.95956080989E+01  0.25324198657E+03  0.17152308181E+03  0.30601265832E+03  0.00000000000E+00 0. -1.
          5    1    4    4  502    0  0.50905683778E+02 -0.31209625153E+02  0.33467567954E+02  0.68611933713E+02  0.47000000000E+01 0.  1.
         -5    1    4    4    0  502  0.83476145807E+02  0.60039519122E+02 -0.56319005635E+02  0.11733256654E+03  0.47000000000E+01 0.  1.
<mgrwt>
<rscale>  0 0.10000327E+04</rscale>
<asrwt>0</asrwt>
<pdfrwt beam="1">  1        3 0.10481138E+00 0.10000327E+04</pdfrwt>
<pdfrwt beam="2">  1       -3 0.56459003E-01 0.10000327E+04</pdfrwt>
<totfact> 0.10043804E+01</totfact>
</mgrwt>
</event>
<event>
 9    1  0.4307774E-036  0.9996337E+03  0.7818608E-02  0.8681387E-01
         -2   -1    0    0    0  501 -0.00000000000E+00  0.00000000000E+00  0.42309346757E+03  0.42309346757E+03  0.00000000000E+00 0.  1.
          2   -1    0    0  501    0  0.00000000000E+00 -0.00000000000E+00 -0.59045313512E+03  0.59045313512E+03  0.00000000000E+00 0.  1.
         36    2    1    2    0    0  0.21316282073E-13  0.00000000000E+00 -0.16735966756E+03  0.10135466027E+04  0.99963366165E+03 0.  0.
         25    2    3    3    0    0 -0.92665618307E+01  0.13234175455E+03 -0.79409334692E+02  0.19908082924E+03  0.12540783456E+03 0.  0.
         35    2    3    3    0    0  0.92665618307E+01 -0.13234175455E+03 -0.87950332865E+02  0.81446577345E+03  0.79876093164E+03 0.  0.
         22    1    5    5    0    0  0.22937448548E+03 -0.27366510849E+03 -0.30883525223E+03  0.47210640667E+03  0.00000000000E+00 0.  1.
         22    1    5    5    0    0 -0.22010792365E+03  0.14132335394E+03  0.22088491936E+03  0.34235936679E+03  0.00000000000E+00 0.  1.
          5    1    4    4  502    0 -0.57971410552E+02  0.41396802657E+02 -0.45580032498E+01  0.71534922277E+02  0.47000000000E+01 0. -1.
         -5    1    4    4    0  502  0.48704848721E+02  0.90944951893E+02 -0.74851331442E+02  0.12754590696E+03  0.47000000000E+01 0. -1.
<mgrwt>
<rscale>  0 0.99963366E+03</rscale>
<asrwt>0</asrwt>
<pdfrwt beam="1">  1        2 0.90838944E-01 0.99963366E+03</pdfrwt>
<pdfrwt beam="2">  1       -2 0.65091303E-01 0.99963366E+03</pdfrwt>
<totfact> 0.13316678E+02</totfact>
</mgrwt>
</event>
<event>
 9    1  0.4307774E-036  0.1000973E+04  0.7818608E-02  0.8680112E-01
         -2   -1    0    0    0  501 -0.00000000000E+00  0.00000000000E+00  0.19939425470E+03  0.19939425470E+03  0.00000000000E+00 0.  1.
          2   -1    0    0  501    0  0.00000000000E+00 -0.00000000000E+00 -0.12562393312E+04  0.12562393312E+04  0.00000000000E+00 0.  1.
         36    2    1    2    0    0  0.00000000000E+00 -0.28421709430E-13 -0.10568450765E+04  0.14556335859E+04  0.10009733367E+04 0.  0.
         25    2    3    3    0    0  0.53593061825E+02  0.13170242398E+03 -0.21556178896E+03  0.28655802606E+03  0.12422106377E+03 0.  0.
         35    2    3    3    0    0 -0.53593061825E+02 -0.13170242398E+03 -0.84128328759E+03  0.11690755599E+04  0.79922609441E+03 0.  0.
         22    1    5    5    0    0 -0.32952145754E+03  0.19571572869E+03 -0.38064289416E+03  0.54016483624E+03  0.00000000000E+00 0.  1.
         22    1    5    5    0    0  0.27592839571E+03 -0.32741815267E+03 -0.46064039343E+03  0.62891072365E+03  0.00000000000E+00 0.  1.
          5    1    4    4  502    0  0.91870702776E+02  0.69599261173E+02 -0.12333103113E+03  0.16886952486E+03  0.47000000000E+01 0. -1.
         -5    1    4    4    0  502 -0.38277640951E+02  0.62103162812E+02 -0.92230757823E+02  0.11768850121E+03  0.47000000000E+01 0. -1.
<mgrwt>
<rscale>  0 0.10009733E+04</rscale>
<asrwt>0</asrwt>
<pdfrwt beam="1">  1        2 0.19326759E+00 0.10009733E+04</pdfrwt>
<pdfrwt beam="2">  1       -2 0.30676038E-01 0.10009733E+04</pdfrwt>
<totfact> 0.20748381E+02</totfact>
</mgrwt>
</event>
<event>
 9    1  0.4307774E-036  0.1001119E+04  0.7818608E-02  0.8679973E-01
          1   -1    0    0  501    0  0.00000000000E+00  0.00000000000E+00  0.14289880270E+04  0.14289880270E+04  0.00000000000E+00 0. -1.
         -1   -1    0    0    0  501 -0.00000000000E+00 -0.00000000000E+00 -0.17534090613E+03  0.17534090613E+03  0.00000000000E+00 0. -1.
         36    2    1    2    0    0  0.00000000000E+00 -0.39079850467E-13  0.12536471208E+04  0.16043289331E+04  0.10011194844E+04 0.  0.
         25    2    3    3    0    0 -0.93795594403E+02  0.18426124017E+02  0.74011115892E+02  0.17564070270E+03  0.12741615123E+03 0.  0.
         35    2    3    3    0    0  0.93795594403E+02 -0.18426124017E+02  0.11796360049E+04  0.14286882304E+04  0.80029483310E+03 0.  0.
         22    1    5    5    0    0 -0.13407100383E+03  0.32896179598E+03  0.75617629814E+03  0.83546004761E+03  0.00000000000E+00 0.  1.
         22    1    5    5    0    0  0.22786659823E+03 -0.34738792000E+03  0.42345970681E+03  0.59322818278E+03  0.00000000000E+00 0.  1.
          5    1    4    4  502    0  0.56019227497E+01  0.18727911283E+02  0.73427271939E+02  0.76129957729E+02  0.47000000000E+01 0. -1.
         -5    1    4    4    0  502 -0.99397517153E+02 -0.30178726632E+00  0.58384395297E+00  0.99510744975E+02  0.47000000000E+01 0. -1.
<mgrwt>
<rscale>  0 0.10011195E+04</rscale>
<asrwt>0</asrwt>
<pdfrwt beam="1">  1        1 0.21984430E+00 0.10011195E+04</pdfrwt>
<pdfrwt beam="2">  1       -1 0.26975525E-01 0.10011195E+04</pdfrwt>
<totfact> 0.97701711E+01</totfact>
</mgrwt>
</event>
<event>
 9    1  0.4307774E-036  0.9984427E+03  0.7818608E-02  0.8682522E-01
          2   -1    0    0  501    0  0.00000000000E+00  0.00000000000E+00  0.22819735367E+04  0.22819735367E+04  0.00000000000E+00 0.  1.
         -2   -1    0    0    0  501 -0.00000000000E+00 -0.00000000000E+00 -0.10921333806E+03  0.10921333806E+03  0.00000000000E+00 0.  1.
         36    2    1    2    0    0  0.14210854715E-13  0.10658141036E-13  0.21727601987E+04  0.23911868748E+04  0.99844268200E+03 0.  0.
         25    2    3    3    0    0  0.67325046309E+02  0.71122384492E+01  0.12073616850E+03  0.18780913050E+03  0.12693227060E+03 0.  0.
         35    2    3    3    0    0 -0.67325046309E+02 -0.71122384492E+01  0.20520240302E+04  0.22033777443E+04  0.79967969702E+03 0.  0.
         22    1    5    5    0    0  0.96279261257E+02 -0.18159498792E+03  0.85915118367E+02  0.22277307591E+03  0.00000000000E+00 0.  1.
         22    1    5    5    0    0 -0.16360430757E+03  0.17448274947E+03  0.19661089118E+04  0.19806046684E+04  0.00000000000E+00 0.  1.
          5    1    4    4  502    0 -0.24199266946E+02  0.36351035539E+02  0.58821267743E+02  0.73410039125E+02  0.47000000000E+01 0.  1.
         -5    1    4    4    0  502  0.91524313255E+02 -0.29238797090E+02  0.61914900756E+02  0.11439909138E+03  0.47000000000E+01 0.  1.
<mgrwt>
<rscale>  0 0.99844268E+03</rscale>
<asrwt>0</asrwt>
<pdfrwt beam="1">  1        2 0.35107281E+00 0.99844268E+03</pdfrwt>
<pdfrwt beam="2">  1       -2 0.16802054E-01 0.99844268E+03</pdfrwt>
<totfact> 0.15525974E+02</totfact>
</mgrwt>
</event>
<event>
 9    1  0.4307774E-036  0.1000036E+04  0.7818608E-02  0.8681004E-01
         -2   -1    0    0    0  501 -0.00000000000E+00  0.00000000000E+00  0.82141712237E+02  0.82141712237E+02  0.00000000000E+00 0.  1.
          2   -1    0    0  501    0  0.00000000000E+00 -0.00000000000E+00 -0.30437369416E+04  0.30437369416E+04  0.00000000000E+00 0.  1.
         36    2    1    2    0    0  0.00000000000E+00  0.14210854715E-13 -0.29615952294E+04  0.31258786539E+04  0.10000355273E+04 0.  0.
         25    2    3    3    0    0 -0.68886985598E+02  0.60324522573E+02 -0.23159100669E+03  0.27949452141E+03  0.12687918785E+03 0.  0.
         35    2    3    3    0    0  0.68886985598E+02 -0.60324522573E+02 -0.27300042227E+04  0.28463841325E+04  0.80037185653E+03 0.  0.
         22    1    5    5    0    0  0.41840119482E+03 -0.13012632780E+03 -0.12683828480E+04  0.13419342272E+04  0.00000000000E+00 0. -1.
         22    1    5    5    0    0 -0.34951420922E+03  0.69801805231E+02 -0.14616213747E+04  0.15044499053E+04  0.00000000000E+00 0. -1.
          5    1    4    4  502    0  0.11669616996E+02  0.66217225402E+02 -0.15069383851E+03  0.16508065867E+03  0.47000000000E+01 0. -1.
         -5    1    4    4    0  502 -0.80556602593E+02 -0.58927028293E+01 -0.80897168178E+02  0.11441386274E+03  0.47000000000E+01 0. -1.
<mgrwt>
<rscale>  0 0.10000355E+04</rscale>
<asrwt>0</asrwt>
<pdfrwt beam="1">  1        2 0.46826719E+00 0.10000355E+04</pdfrwt>
<pdfrwt beam="2">  1       -2 0.12637187E-01 0.10000355E+04</pdfrwt>
<totfact> 0.83193988E+01</totfact>
</mgrwt>
</event>
<event>
 9    1  0.4307774E-036  0.9995815E+03  0.7818608E-02  0.8681437E-01
         -2   -1    0    0    0  501 -0.00000000000E+00  0.00000000000E+00  0.32931134131E+03  0.32931134131E+03  0.00000000000E+00 0.  1.
          2   -1    0    0  501    0  0.00000000000E+00 -0.00000000000E+00 -0.75852475046E+03  0.75852475046E+03  0.00000000000E+00 0.  1.
         36    2    1    2    0    0 -0.71054273576E-14  0.00000000000E+00 -0.42921340916E+03  0.10878360918E+04  0.99958151842E+03 0.  0.
         25    2    3    3    0    0 -0.42440929730E+01 -0.13812600061E+03 -0.76270707423E+02  0.20084678349E+03  0.12419905499E+03 0.  0.
         35    2    3    3    0    0  0.42440929730E+01  0.13812600061E+03 -0.35294270173E+03  0.88698930828E+03  0.80192560623E+03 0.  0.
         22    1    5    5    0    0  0.65549889449E+02  0.17093338958E+03 -0.60157657540E+03  0.62881586156E+03  0.00000000000E+00 0.  1.
         22    1    5    5    0    0 -0.61305796476E+02 -0.32807388975E+02  0.24863387367E+03  0.25817344672E+03  0.00000000000E+00 0.  1.
          5    1    4    4  502    0 -0.28289595887E+02 -0.14466191183E+03 -0.89229704803E+02  0.17236995152E+03  0.47000000000E+01 0.  1.
         -5    1    4    4    0  502  0.24045502914E+02  0.65359112207E+01  0.12958997380E+02  0.28476831968E+02  0.47000000000E+01 0.  1.
<mgrwt>
<rscale>  0 0.99958152E+03</rscale>
<asrwt>0</asrwt>
<pdfrwt beam="1">  1        2 0.11669611E+00 0.99958152E+03</pdfrwt>
<pdfrwt beam="2">  1       -2 0.50663284E-01 0.99958152E+03</pdfrwt>
<totfact> 0.16475165E+02</totfact>
</mgrwt>
</event>
<event>
 9    1  0.4307774E-036  0.1000679E+04  0.7818608E-02  0.8680392E-01
         -1   -1    0    0    0  501 -0.00000000000E+00  0.00000000000E+00  0.17912536674E+03  0.17912536674E+03  0.00000000000E+00 0. -1.
          1   -1    0    0  501    0  0.00000000000E+00 -0.00000000000E+00 -0.13975661852E+04  0.13975661852E+04  0.00000000000E+00 0. -1.
         36    2    1    2    0    0  0.14210854715E-13  0.00000000000E+00 -0.12184408185E+04  0.15766915520E+04  0.10006788805E+04 0.  0.
         25    2    3    3    0    0 -0.65844032069E+02  0.12449467248E+03 -0.24387031849E+03  0.30813856576E+03  0.12506911463E+03 0.  0.
         35    2    3    3    0    0  0.65844032069E+02 -0.12449467248E+03 -0.97457050000E+03  0.12685529862E+04  0.79975287392E+03 0.  0.
         22    1    5    5    0    0 -0.34723042767E+03 -0.92983863029E+02 -0.26384625725E+03  0.44590337087E+03  0.00000000000E+00 0. -1.
         22    1    5    5    0    0  0.41307445974E+03 -0.31510809452E+02 -0.71072424275E+03  0.82264961535E+03  0.00000000000E+00 0. -1.
          5    1    4    4  502    0  0.29075994138E+02  0.45687721149E+02 -0.32443423677E+02  0.63304399838E+02  0.47000000000E+01 0. -1.
         -5    1    4    4    0  502 -0.94920026207E+02  0.78806951331E+02 -0.21142689481E+03  0.24483416593E+03  0.47000000000E+01 0. -1.
<mgrwt>
<rscale>  0 0.10006789E+04</rscale>
<asrwt>0</asrwt>
<pdfrwt beam="1">  1        1 0.21501017E+00 0.10006789E+04</pdfrwt>
<pdfrwt beam="2">  1       -1 0.27557750E-01 0.10006789E+04</pdfrwt>
<totfact> 0.99262103E+01</totfact>
</mgrwt>
</event>
<event>
 9    1  0.4307774E-036  0.9995930E+03  0.7818608E-02  0.8681426E-01
         -2   -1    0    0    0  501 -0.00000000000E+00  0.00000000000E+00  0.17335644680E+03  0.17335644680E+03  0.00000000000E+00 0.  1.
          2   -1    0    0  501    0  0.00000000000E+00 -0.00000000000E+00 -0.14409417351E+04  0.14409417351E+04  0.00000000000E+00 0.  1.
         36    2    1    2    0    0  0.00000000000E+00  0.00000000000E+00 -0.12675852883E+04  0.16142981819E+04  0.99959299565E+03 0.  0.
         25    2    3    3    0    0  0.10774312110E+03 -0.65675348174E+02 -0.14161706715E+03  0.22796855399E+03  0.12646120512E+03 0.  0.
         35    2    3    3    0    0 -0.10774312110E+03  0.65675348174E+02 -0.11259682212E+04  0.13863296279E+04  0.79886392499E+03 0.  0.
         22    1    5    5    0    0  0.16764852194E+03 -0.30414301109E+03 -0.50504116408E+03  0.61292379258E+03  0.00000000000E+00 0. -1.
         22    1    5    5    0    0 -0.27539164304E+03  0.36981835926E+03 -0.62092705709E+03  0.77340583533E+03  0.00000000000E+00 0. -1.
          5    1    4    4  502    0 -0.25333904813E+02 -0.23805679512E+02 -0.10907498119E+02  0.36736638732E+02  0.47000000000E+01 0.  1.
         -5    1    4    4    0  502  0.13307702591E+03 -0.41869668663E+02 -0.13070956903E+03  0.19123191526E+03  0.47000000000E+01 0.  1.
<mgrwt>
<rscale>  0 0.99959300E+03</rscale>
<asrwt>0</asrwt>
<pdfrwt beam="1">  1        2 0.22168335E+00 0.99959300E+03</pdfrwt>
<pdfrwt beam="2">  1       -2 0.26670222E-01 0.99959300E+03</pdfrwt>
<totfact> 0.20921845E+02</totfact>
</mgrwt>
</event>
<event>
 9    1  0.4307774E-036  0.9998367E+03  0.7818608E-02  0.8681193E-01
          1   -1    0    0  501    0  0.00000000000E+00  0.00000000000E+00  0.69676216086E+03  0.69676216086E+03  0.00000000000E+00 0. -1.
         -1   -1    0    0    0  501 -0.00000000000E+00 -0.00000000000E+00 -0.35868533532E+03  0.35868533532E+03  0.00000000000E+00 0. -1.
         36    2    1    2    0    0  0.00000000000E+00  0.00000000000E+00  0.33807682555E+03  0.10554474962E+04  0.99983672528E+03 0.  0.
         25    2    3    3    0    0 -0.95575364212E+02  0.90036289534E+02  0.11187791975E+03  0.21322350381E+03  0.12532521684E+03 0.  0.
         35    2    3    3    0    0  0.95575364212E+02 -0.90036289534E+02  0.22619890580E+03  0.84222399237E+03  0.80058361503E+03 0.  0.
         22    1    5    5    0    0 -0.25579141077E+03 -0.11724995331E+03  0.36722541709E+03  0.46263517412E+03  0.00000000000E+00 0.  1.
         22    1    5    5    0    0  0.35136677498E+03  0.27213663779E+02 -0.14102651129E+03  0.37958881825E+03  0.00000000000E+00 0.  1.
          5    1    4    4  502    0  0.23843777098E+02  0.18477363757E+02  0.54710339933E+02  0.62651815403E+02  0.47000000000E+01 0.  1.
         -5    1    4    4    0  502 -0.11941914131E+03  0.71558925777E+02  0.57167579812E+02  0.15057168841E+03  0.47000000000E+01 0.  1.
<mgrwt>
<rscale>  0 0.99983673E+03</rscale>
<asrwt>0</asrwt>
<pdfrwt beam="1">  1        1 0.10719418E+00 0.99983673E+03</pdfrwt>
<pdfrwt beam="2">  1       -1 0.55182359E-01 0.99983673E+03</pdfrwt>
<totfact> 0.10479832E+02</totfact>
</mgrwt>
</event>
<event>
 9    1  0.4307774E-036  0.1004852E+04  0.7818608E-02  0.8676431E-01
         -2   -1    0    0    0  501 -0.00000000000E+00  0.00000000000E+00  0.17643038200E+03  0.17643038200E+03  0.00000000000E+00 0.  1.
          2   -1    0    0  501    0  0.00000000000E+00 -0.00000000000E+00 -0.14307746795E+04  0.14307746795E+04  0.00000000000E+00 0.  1.
         36    2    1    2    0    0 -0.14210854715E-13  0.28421709430E-13 -0.12543442974E+04  0.16072050615E+04  0.10048524733E+04 0.  0.
         25    2    3    3    0    0  0.77263422539E+02 -0.12010735220E+03 -0.28276342425E+03  0.34055224910E+03  0.12500107103E+03 0.  0.
         35    2    3    3    0    0 -0.77263422539E+02  0.12010735220E+03 -0.97158087320E+03  0.12666528124E+04  0.80002783787E+03 0.  0.
         22    1    5    5    0    0 -0.19785884972E+03  0.98872325256E+01 -0.10617310032E+04  0.10800549083E+04  0.00000000000E+00 0. -1.
         22    1    5    5    0    0  0.12059542718E+03  0.11022011967E+03  0.90150130043E+02  0.18659790402E+03  0.00000000000E+00 0. -1.
          5    1    4    4  502    0 -0.12907390757E+02 -0.31906342056E+02 -0.16263012932E+03  0.16629872026E+03  0.47000000000E+01 0.  1.
         -5    1    4    4    0  502  0.90170813296E+02 -0.88201010142E+02 -0.12013329493E+03  0.17425352884E+03  0.47000000000E+01 0.  1.
<mgrwt>
<rscale>  0 0.10048525E+04</rscale>
<asrwt>0</asrwt>
<pdfrwt beam="1">  1        2 0.22011917E+00 0.10048525E+04</pdfrwt>
<pdfrwt beam="2">  1       -2 0.27143137E-01 0.10048525E+04</pdfrwt>
<totfact> 0.20544201E+02</totfact>
</mgrwt>
</event>
<event>
 9    1  0.4307774E-036  0.9994848E+03  0.7818608E-02  0.8681529E-01
         -2   -1    0    0    0  501 -0.00000000000E+00  0.00000000000E+00  0.93646786102E+02  0.93646786102E+02  0.00000000000E+00 0.  1.
          2   -1    0    0  501    0  0.00000000000E+00 -0.00000000000E+00 -0.26668558686E+04  0.26668558686E+04  0.00000000000E+00 0.  1.
         36    2    1    2    0    0  0.00000000000E+00  0.00000000000E+00 -0.25732090825E+04  0.27605026547E+04  0.99948482948E+03 0.  0.
         25    2    3    3    0    0 -0.12217501945E+03 -0.42237232288E+02 -0.35523163721E+03  0.39843768800E+03  0.12590613955E+03 0.  0.
         35    2    3    3    0    0  0.12217501945E+03  0.42237232288E+02 -0.22179774453E+04  0.23620649667E+04  0.80200763085E+03 0.  0.
         22    1    5    5    0    0  0.36270263875E+03 -0.12377512981E+03 -0.18641907263E+04  0.19031764372E+04  0.00000000000E+00 0. -1.
         22    1    5    5    0    0 -0.24052761930E+03  0.16601236209E+03 -0.35378671896E+03  0.45888852952E+03  0.00000000000E+00 0. -1.
          5    1    4    4  502    0 -0.88310928696E+02  0.34913697851E+02 -0.16730663853E+03  0.19243541181E+03  0.47000000000E+01 0.  1.
         -5    1    4    4    0  502 -0.33864090752E+02 -0.77150930139E+02 -0.18792499868E+03  0.20600227619E+03  0.47000000000E+01 0.  1.
<mgrwt>
<rscale>  0 0.99948483E+03</rscale>
<asrwt>0</asrwt>
<pdfrwt beam="1">  1        2 0.41028555E+00 0.99948483E+03</pdfrwt>
<pdfrwt beam="2">  1       -2 0.14407197E-01 0.99948483E+03</pdfrwt>
<totfact> 0.11752008E+02</totfact>
</mgrwt>
</event>
<event>
 9    1  0.4307774E-036  0.9995389E+03  0.7818608E-02  0.8681477E-01
         -2   -1    0    0    0  501 -0.00000000000E+00  0.00000000000E+00  0.65914881262E+03  0.65914881262E+03  0.00000000000E+00 0. -1.
          2   -1    0    0  501    0  0.00000000000E+00 -0.00000000000E+00 -0.37892736556E+03  0.37892736556E+03  0.00000000000E+00 0. -1.
         36    2    1    2    0    0 -0.14210854715E-13  0.00000000000E+00  0.28022144705E+03  0.10380761782E+04  0.99953893987E+03 0.  0.
         25    2    3    3    0    0 -0.85123183714E+02  0.69488176018E+02 -0.37715145574E+02  0.16963319898E+03  0.12360593423E+03 0.  0.
         35    2    3    3    0    0  0.85123183714E+02 -0.69488176018E+02  0.31793659263E+03  0.86844297920E+03  0.80064659381E+03 0.  0.
         22    1    5    5    0    0  0.36417458987E+02 -0.41628779120E+03  0.37060168047E+02  0.41951783333E+03  0.00000000000E+00 0.  1.
         22    1    5    5    0    0  0.48705724727E+02  0.34679961519E+03  0.28087642458E+03  0.44892514588E+03  0.00000000000E+00 0.  1.
          5    1    4    4  502    0 -0.22243036942E+02 -0.27334441943E+02 -0.40710356118E+02  0.54049491246E+02  0.47000000000E+01 0.  1.
         -5    1    4    4    0  502 -0.62880146772E+02  0.96822617961E+02  0.29952105439E+01  0.11558370773E+03  0.47000000000E+01 0.  1.
<mgrwt>
<rscale>  0 0.99953894E+03</rscale>
<asrwt>0</asrwt>
<pdfrwt beam="1">  1        2 0.58296518E-01 0.99953894E+03</pdfrwt>
<pdfrwt beam="2">  1       -2 0.10140751E+00 0.99953894E+03</pdfrwt>
<totfact> 0.80142429E+01</totfact>
</mgrwt>
</event>
<event>
 9    1  0.4307774E-036  0.1000134E+04  0.7818608E-02  0.8680910E-01
         -1   -1    0    0    0  501 -0.00000000000E+00  0.00000000000E+00  0.49170904818E+03  0.49170904818E+03  0.00000000000E+00 0.  1.
          1   -1    0    0  501    0  0.00000000000E+00 -0.00000000000E+00 -0.50856740466E+03  0.50856740466E+03  0.00000000000E+00 0.  1.
         36    2    1    2    0    0  0.00000000000E+00 -0.14210854715E-13 -0.16858356477E+02  0.10002764528E+04  0.10001343799E+04 0.  0.
         25    2    3    3    0    0  0.73139955534E+02 -0.10066114426E+03  0.56025091140E+02  0.18527036774E+03  0.12531631685E+03 0.  0.
         35    2    3    3    0    0 -0.73139955534E+02  0.10066114426E+03 -0.72883447617E+02  0.81500608510E+03  0.80214761905E+03 0.  0.
         22    1    5    5    0    0  0.90119036241E+01 -0.31690510612E+03  0.13110466000E+03  0.34307213901E+03  0.00000000000E+00 0.  1.
         22    1    5    5    0    0 -0.82151859158E+02  0.41756625038E+03 -0.20398810762E+03  0.47193394608E+03  0.00000000000E+00 0.  1.
          5    1    4    4  502    0  0.85029257661E+02 -0.11866808625E+03  0.26575211618E+02  0.14846016713E+03  0.47000000000E+01 0.  1.
         -5    1    4    4    0  502 -0.11889302127E+02  0.18006941995E+02  0.29449879522E+02  0.36810200610E+02  0.47000000000E+01 0.  1.
<mgrwt>
<rscale>  0 0.10001344E+04</rscale>
<asrwt>0</asrwt>
<pdfrwt beam="1">  1        1 0.78241139E-01 0.10001344E+04</pdfrwt>
<pdfrwt beam="2">  1       -1 0.75647546E-01 0.10001344E+04</pdfrwt>
<totfact> 0.89621499E+01</totfact>
</mgrwt>
</event>
<event>
 9    1  0.4307774E-036  0.9998578E+03  0.7818608E-02  0.8681173E-01
         -2   -1    0    0    0  501 -0.00000000000E+00  0.00000000000E+00  0.10945805729E+03  0.10945805729E+03  0.00000000000E+00 0. -1.
          2   -1    0    0  501    0  0.00000000000E+00 -0.00000000000E+00 -0.22833305485E+04  0.22833305485E+04  0.00000000000E+00 0. -1.
         36    2    1    2    0    0  0.00000000000E+00 -0.71054273576E-14 -0.21738724912E+04  0.23927886057E+04  0.99985784185E+03 0.  0.
         25    2    3    3    0    0 -0.10159074244E+03 -0.39658804438E+02 -0.19502581902E+03  0.25562665043E+03  0.12416285518E+03 0.  0.
         35    2    3    3    0    0  0.10159074244E+03  0.39658804438E+02 -0.19788466721E+04  0.21371619553E+04  0.79983346494E+03 0.  0.
         22    1    5    5    0    0  0.22229716618E+03 -0.25524651595E+03 -0.16296427983E+04  0.16644225617E+04  0.00000000000E+00 0.  1.
         22    1    5    5    0    0 -0.12070642374E+03  0.29490532039E+03 -0.34920387387E+03  0.47273939359E+03  0.00000000000E+00 0.  1.
          5    1    4    4  502    0  0.12255597207E+02 -0.26317134910E+02 -0.10716048817E+03  0.11112268660E+03  0.47000000000E+01 0.  1.
         -5    1    4    4    0  502 -0.11384633965E+03 -0.13341669528E+02 -0.87865330847E+02  0.14450396383E+03  0.47000000000E+01 0.  1.
<mgrwt>
<rscale>  0 0.99985784E+03</rscale>
<asrwt>0</asrwt>
<pdfrwt beam="1">  1        2 0.35128161E+00 0.99985784E+03</pdfrwt>
<pdfrwt beam="2">  1       -2 0.16839702E-01 0.99985784E+03</pdfrwt>
<totfact> 0.15438464E+02</totfact>
</mgrwt>
</event>
<event>
 9    1  0.4307774E-036  0.1000463E+04  0.7818608E-02  0.8680597E-01
         -2   -1    0    0    0  501 -0.00000000000E+00  0.00000000000E+00  0.15196859225E+03  0.15196859225E+03  0.00000000000E+00 0.  1.
          2   -1    0    0  501    0  0.00000000000E+00 -0.00000000000E+00 -0.16465994569E+04  0.16465994569E+04  0.00000000000E+00 0.  1.
         36    2    1    2    0    0  0.00000000000E+00  0.00000000000E+00 -0.14946308646E+04  0.17985680491E+04  0.10004626959E+04 0.  0.
         25    2    3    3    0    0 -0.11420382607E+03  0.57908618261E+02 -0.18112124592E+03  0.25487026013E+03  0.12553095960E+03 0.  0.
         35    2    3    3    0    0  0.11420382607E+03 -0.57908618261E+02 -0.13135096187E+04  0.15436977890E+04  0.80081172777E+03 0.  0.
         22    1    5    5    0    0  0.26262378040E+03  0.18031043325E+03 -0.11989441158E+04  0.12405442738E+04  0.00000000000E+00 0. -1.
         22    1    5    5    0    0 -0.14841995433E+03 -0.23821905151E+03 -0.11456550294E+03  0.30315351525E+03  0.00000000000E+00 0. -1.
          5    1    4    4  502    0 -0.86955548733E+02  0.32504403630E+02 -0.19404536236E+03  0.21515923490E+03  0.47000000000E+01 0. -1.
         -5    1    4    4    0  502 -0.27248277340E+02  0.25404214631E+02  0.12924116440E+02  0.39711025230E+02  0.47000000000E+01 0. -1.
<mgrwt>
<rscale>  0 0.10004627E+04</rscale>
<asrwt>0</asrwt>
<pdfrwt beam="1">  1        2 0.25332299E+00 0.10004627E+04</pdfrwt>
<pdfrwt beam="2">  1       -2 0.23379784E-01 0.10004627E+04</pdfrwt>
<totfact> 0.20220919E+02</totfact>
</mgrwt>
</event>
<event>
 9    1  0.4307774E-036  0.9989431E+03  0.7818608E-02  0.8682045E-01
         -1   -1    0    0    0  501 -0.00000000000E+00  0.00000000000E+00  0.25341360117E+03  0.25341360117E+03  0.00000000000E+00 0. -1.
          1   -1    0    0  501    0  0.00000000000E+00 -0.00000000000E+00 -0.98444539175E+03  0.98444539175E+03  0.00000000000E+00 0. -1.
         36    2    1    2    0    0  0.35527136788E-14  0.00000000000E+00 -0.73103179058E+03  0.12378589929E+04  0.99894314529E+03 0.  0.
         25    2    3    3    0    0  0.10203269374E+02 -0.12320541529E+03 -0.20682932376E+03  0.27147367376E+03  0.12504361365E+03 0.  0.
         35    2    3    3    0    0 -0.10203269374E+02  0.12320541529E+03 -0.52420246682E+03  0.96638531916E+03  0.80238935549E+03 0.  0.
         22    1    5    5    0    0  0.86737209265E+02  0.42871667434E+03 -0.46869886085E+03  0.64109277994E+03  0.00000000000E+00 0. -1.
         22    1    5    5    0    0 -0.96940478638E+02 -0.30551125904E+03 -0.55503605976E+02  0.32529253923E+03  0.00000000000E+00 0. -1.
          5    1    4    4  502    0  0.41837438972E+02 -0.59428601014E+02 -0.26428677332E+02  0.77477060500E+02  0.47000000000E+01 0. -1.
         -5    1    4    4    0  502 -0.31634169599E+02 -0.63776814279E+02 -0.18040064643E+03  0.19399661326E+03  0.47000000000E+01 0. -1.
<mgrwt>
<rscale>  0 0.99894315E+03</rscale>
<asrwt>0</asrwt>
<pdfrwt beam="1">  1        1 0.15145314E+00 0.99894315E+03</pdfrwt>
<pdfrwt beam="2">  1       -1 0.38986708E-01 0.99894315E+03</pdfrwt>
<totfact> 0.11133324E+02</totfact>
</mgrwt>
</event>
<event>
 9    1  0.4307774E-036  0.1000937E+04  0.7818608E-02  0.8680146E-01
         -2   -1    0    0    0  501 -0.00000000000E+00  0.00000000000E+00  0.75235963394E+02  0.75235963394E+02  0.00000000000E+00 0.  1.
          2   -1    0    0  501    0  0.00000000000E+00 -0.00000000000E+00 -0.33291099596E+04  0.33291099596E+04  0.00000000000E+00 0.  1.
         36    2    1    2    0    0 -0.14210854715E-13 -0.71054273576E-14 -0.32538739962E+04  0.34043459230E+04  0.10009371510E+04 0.  0.
         25    2    3    3    0    0 -0.49549214696E+02  0.29254586460E+01 -0.10414673619E+04  0.10513452571E+04  0.13494035980E+03 0.  0.
         35    2    3    3    0    0  0.49549214696E+02 -0.29254586460E+01 -0.22124066343E+04  0.23530006660E+04  0.79962824818E+03 0.  0.
         22    1    5    5    0    0  0.23353802622E+03  0.32652761070E+03 -0.14145110415E+04  0.14703747062E+04  0.00000000000E+00 0. -1.
         22    1    5    5    0    0 -0.18398881152E+03 -0.32945306935E+03 -0.79789559289E+03  0.88262595975E+03  0.00000000000E+00 0. -1.
          5    1    4    4  502    0  0.22571329528E+02 -0.48874513419E+02 -0.34072520510E+03  0.34498396827E+03  0.47000000000E+01 0. -1.
         -5    1    4    4    0  502 -0.72120544224E+02  0.51799972065E+02 -0.70074215680E+03  0.70636128881E+03  0.47000000000E+01 0. -1.
<mgrwt>
<rscale>  0 0.10009372E+04</rscale>
<asrwt>0</asrwt>
<pdfrwt beam="1">  1        2 0.51217063E+00 0.10009372E+04</pdfrwt>
<pdfrwt beam="2">  1       -2 0.11574767E-01 0.10009372E+04</pdfrwt>
<totfact> 0.60793926E+01</totfact>
</mgrwt>
</event>
<event>
 9    1  0.4307774E-036  0.9998437E+03  0.7818608E-02  0.8681187E-01
          2   -1    0    0  501    0  0.00000000000E+00  0.00000000000E+00  0.10637197136E+04  0.10637197136E+04  0.00000000000E+00 0. -1.
         -2   -1    0    0    0  501 -0.00000000000E+00 -0.00000000000E+00 -0.23495083867E+03  0.23495083867E+03  0.00000000000E+00 0. -1.
         36    2    1    2    0    0  0.71054273576E-14  0.00000000000E+00  0.82876887491E+03  0.12986705522E+04  0.99984366541E+03 0.  0.
         25    2    3    3    0    0  0.63694096257E+02 -0.12086080906E+03  0.97384789522E+02  0.20914033794E+03  0.12486637121E+03 0.  0.
         35    2    3    3    0    0 -0.63694096257E+02  0.12086080906E+03  0.73138408538E+03  0.10895302143E+04  0.79592030661E+03 0.  0.
         22    1    5    5    0    0  0.26300565351E+03  0.25065550405E+02  0.69932833676E+03  0.74756964772E+03  0.00000000000E+00 0. -1.
         22    1    5    5    0    0 -0.32669974977E+03  0.95795258654E+02  0.32055748624E+02  0.34196056659E+03  0.00000000000E+00 0. -1.
          5    1    4    4  502    0 -0.34211798761E+02 -0.15500013906E+02  0.37468747562E+02  0.53260629450E+02  0.47000000000E+01 0.  1.
         -5    1    4    4    0  502  0.97905895019E+02 -0.10536079515E+03  0.59916041960E+02  0.15587970849E+03  0.47000000000E+01 0.  1.
<mgrwt>
<rscale>  0 0.99984367E+03</rscale>
<asrwt>0</asrwt>
<pdfrwt beam="1">  1        2 0.16364918E+00 0.99984367E+03</pdfrwt>
<pdfrwt beam="2">  1       -2 0.36146284E-01 0.99984367E+03</pdfrwt>
<totfact> 0.19954404E+02</totfact>
</mgrwt>
</event>
<event>
 9    1  0.4307774E-036  0.1000187E+04  0.7818608E-02  0.8680860E-01
          1   -1    0    0  501    0  0.00000000000E+00  0.00000000000E+00  0.92153785808E+03  0.92153785808E+03  0.00000000000E+00 0.  1.
         -1   -1    0    0    0  501 -0.00000000000E+00 -0.00000000000E+00 -0.27138719202E+03  0.27138719202E+03  0.00000000000E+00 0.  1.
         36    2    1    2    0    0  0.00000000000E+00 -0.14210854715E-13  0.65015066606E+03  0.11929250501E+04  0.10001871258E+04 0.  0.
         25    2    3    3    0    0 -0.13876261070E+03 -0.99119348371E+01  0.12479852809E+03  0.22488591424E+03  0.12508274552E+03 0.  0.
         35    2    3    3    0    0  0.13876261070E+03  0.99119348371E+01  0.52535213797E+03  0.96803913586E+03  0.80109399643E+03 0.  0.
         22    1    5    5    0    0 -0.22457562003E+03 -0.14863010554E+03  0.50352259929E+03  0.57101674702E+03  0.00000000000E+00 0. -1.
         22    1    5    5    0    0  0.36333823073E+03  0.15854204038E+03  0.21829538678E+02  0.39702238884E+03  0.00000000000E+00 0. -1.
          5    1    4    4  502    0 -0.19144138246E+02  0.46386405486E+02  0.57502276757E+02  0.76464360818E+02  0.47000000000E+01 0. -1.
         -5    1    4    4    0  502 -0.11961847246E+03 -0.56298340323E+02  0.67296251338E+02  0.14842155342E+03  0.47000000000E+01 0. -1.
<mgrwt>
<rscale>  0 0.10001871E+04</rscale>
<asrwt>0</asrwt>
<pdfrwt beam="1">  1        1 0.14177505E+00 0.10001871E+04</pdfrwt>
<pdfrwt beam="2">  1       -1 0.41751876E-01 0.10001871E+04</pdfrwt>
<totfact> 0.11080600E+02</totfact>
</mgrwt>
</event>
<event>
 9    1  0.4307774E-036  0.9862889E+03  0.7818608E-02  0.8694206E-01
          1   -1    0    0  501    0  0.00000000000E+00  0.00000000000E+00  0.13440480311E+04  0.13440480311E+04  0.00000000000E+00 0.  1.
         -1   -1    0    0    0  501 -0.00000000000E+00 -0.00000000000E+00 -0.18093954644E+03  0.18093954644E+03  0.00000000000E+00 0.  1.
         36    2    1    2    0    0  0.71054273576E-14  0.00000000000E+00  0.11631084847E+04  0.15249875776E+04  0.98628888495E+03 0.  0.
         25    2    3    3    0    0 -0.14035626271E+02  0.11353862265E+03  0.28817606017E+03  0.33429588207E+03  0.12498110847E+03 0.  0.
         35    2    3    3    0    0  0.14035626271E+02 -0.11353862265E+03  0.87493242453E+03  0.11906916955E+04  0.79946979219E+03 0.  0.
         22    1    5    5    0    0  0.30007649074E+03 -0.11553390033E+03  0.84375626570E+03  0.90294995339E+03  0.00000000000E+00 0. -1.
         22    1    5    5    0    0 -0.28604086447E+03  0.19952776763E+01  0.31176158835E+02  0.28774174212E+03  0.00000000000E+00 0. -1.
          5    1    4    4  502    0 -0.57391810794E+02  0.13944732091E+02  0.81412097683E+02  0.10068910144E+03  0.47000000000E+01 0. -1.
         -5    1    4    4    0  502  0.43356184523E+02  0.99593890564E+02  0.20676396249E+03  0.23360678063E+03  0.47000000000E+01 0. -1.
<mgrwt>
<rscale>  0 0.98628888E+03</rscale>
<asrwt>0</asrwt>
<pdfrwt beam="1">  1        1 0.20677661E+00 0.98628888E+03</pdfrwt>
<pdfrwt beam="2">  1       -1 0.27836854E-01 0.98628888E+03</pdfrwt>
<totfact> 0.10679014E+02</totfact>
</mgrwt>
</event>
<event>
 9    1  0.4307774E-036  0.1000317E+04  0.7818608E-02  0.8680736E-01
          2   -1    0    0  501    0  0.00000000000E+00  0.00000000000E+00  0.15123628948E+04  0.15123628948E+04  0.00000000000E+00 0.  1.
         -2   -1    0    0    0  501 -0.00000000000E+00 -0.00000000000E+00 -0.16540898895E+03  0.16540898895E+03  0.00000000000E+00 0.  1.
         36    2    1    2    0    0  0.17763568394E-14 -0.28421709430E-13  0.13469539058E+04  0.16777718837E+04  0.10003167845E+04 0.  0.
         25    2    3    3    0    0  0.14698680685E+02 -0.13123028128E+03  0.17728315920E+03  0.25381229256E+03  0.12471536946E+03 0.  0.
         35    2    3    3    0    0 -0.14698680685E+02  0.13123028128E+03  0.11696707466E+04  0.14239595912E+04  0.80130757129E+03 0.  0.
         22    1    5    5    0    0  0.78928053612E+02 -0.32373346262E+03  0.62370441613E+03  0.70713520006E+03  0.00000000000E+00 0.  1.
         22    1    5    5    0    0 -0.93626734297E+02  0.45496374390E+03  0.54596633050E+03  0.71682439110E+03  0.00000000000E+00 0.  1.
          5    1    4    4  502    0 -0.77326390743E+01  0.33000642189E+01  0.92823934798E+02  0.93322328530E+02  0.47000000000E+01 0. -1.
         -5    1    4    4    0  502  0.22431319760E+02 -0.13453034550E+03  0.84459224399E+02  0.16048996403E+03  0.47000000000E+01 0. -1.
<mgrwt>
<rscale>  0 0.10003168E+04</rscale>
<asrwt>0</asrwt>
<pdfrwt beam="1">  1        2 0.23267120E+00 0.10003168E+04</pdfrwt>
<pdfrwt beam="2">  1       -2 0.25447538E-01 0.10003168E+04</pdfrwt>
<totfact> 0.20723224E+02</totfact>
</mgrwt>
</event>
<event>
 9    1  0.4307774E-036  0.9990276E+03  0.7818608E-02  0.8681965E-01
          2   -1    0    0  501    0  0.00000000000E+00  0.00000000000E+00  0.21510856176E+04  0.21510856176E+04  0.00000000000E+00 0. -1.
         -2   -1    0    0    0  501 -0.00000000000E+00 -0.00000000000E+00 -0.11599446548E+03  0.11599446548E+03  0.00000000000E+00 0. -1.
         36    2    1    2    0    0  0.28421709430E-13 -0.35527136788E-14  0.20350911521E+04  0.22670800830E+04  0.99902758000E+03 0.  0.
         25    2    3    3    0    0  0.84312143902E+02  0.28240130082E+01  0.12886927001E+03  0.19826024307E+03  0.12483317896E+03 0.  0.
         35    2    3    3    0    0 -0.84312143902E+02 -0.28240130082E+01  0.19062218821E+04  0.20688198400E+04  0.79951057147E+03 0.  0.
         22    1    5    5    0    0  0.35713250041E+03  0.44597453610E+02  0.86580335612E+03  0.93762892830E+03  0.00000000000E+00 0. -1.
         22    1    5    5    0    0 -0.44144464432E+03 -0.47421466618E+02  0.10404185259E+04  0.11311909117E+04  0.00000000000E+00 0. -1.
          5    1    4    4  502    0  0.77946376418E+02  0.28197542097E+02  0.14506003092E+03  0.16713839041E+03  0.47000000000E+01 0. -1.
         -5    1    4    4    0  502  0.63657674841E+01 -0.25373529089E+02 -0.16190760910E+02  0.31121852659E+02  0.47000000000E+01 0. -1.
<mgrwt>
<rscale>  0 0.99902758E+03</rscale>
<asrwt>0</asrwt>
<pdfrwt beam="1">  1        2 0.33093622E+00 0.99902758E+03</pdfrwt>
<pdfrwt beam="2">  1       -2 0.17845304E-01 0.99902758E+03</pdfrwt>
<totfact> 0.16703656E+02</totfact>
</mgrwt>
</event>
<event>
 9    1  0.4307774E-036  0.1000000E+04  0.7818608E-02  0.8681038E-01
          2   -1    0    0  501    0  0.00000000000E+00  0.00000000000E+00  0.25171796984E+04  0.25171796984E+04  0.00000000000E+00 0.  1.
         -2   -1    0    0    0  501 -0.00000000000E+00 -0.00000000000E+00 -0.99317548506E+02  0.99317548506E+02  0.00000000000E+00 0.  1.
         36    2    1    2    0    0 -0.14210854715E-13  0.00000000000E+00  0.24178621499E+04  0.26164972469E+04  0.10000002336E+04 0.  0.
         25    2    3    3    0    0  0.12273540549E+03 -0.59943974438E+02  0.36993561786E+03  0.41389280108E+03  0.12568862158E+03 0.  0.
         35    2    3    3    0    0 -0.12273540549E+03  0.59943974438E+02  0.20479265320E+04  0.22026044458E+04  0.79925340432E+03 0.  0.
         22    1    5    5    0    0  0.22315068977E+03 -0.25710798169E+03  0.80275079933E+03  0.87195733292E+03  0.00000000000E+00 0.  1.
         22    1    5    5    0    0 -0.34588609526E+03  0.31705195613E+03  0.12451757327E+04  0.13306471129E+04  0.00000000000E+00 0.  1.
          5    1    4    4  502    0  0.17740150041E+02  0.37312805888E+02  0.67685741388E+02  0.79438076474E+02  0.47000000000E+01 0.  1.
         -5    1    4    4    0  502  0.10499525545E+03 -0.97256780326E+02  0.30224987647E+03  0.33445472461E+03  0.47000000000E+01 0.  1.
<mgrwt>
<rscale>  0 0.10000002E+04</rscale>
<asrwt>0</asrwt>
<pdfrwt beam="1">  1        2 0.38725837E+00 0.10000002E+04</pdfrwt>
<pdfrwt beam="2">  1       -2 0.15279625E-01 0.10000002E+04</pdfrwt>
<totfact> 0.13178925E+02</totfact>
</mgrwt>
</event>
<event>
 9    1  0.4307774E-036  0.9987241E+03  0.7818608E-02  0.8682254E-01
         -1   -1    0    0    0  501 -0.00000000000E+00  0.00000000000E+00  0.22353159627E+03  0.22353159627E+03  0.00000000000E+00 0.  1.
          1   -1    0    0  501    0  0.00000000000E+00 -0.00000000000E+00 -0.11155580591E+04  0.11155580591E+04  0.00000000000E+00 0.  1.
         36    2    1    2    0    0  0.00000000000E+00  0.00000000000E+00 -0.89202646284E+03  0.13390896554E+04  0.99872413345E+03 0.  0.
         25    2    3    3    0    0 -0.13947310447E+03  0.55746779622E+01 -0.17639336304E+03  0.25681959510E+03  0.12392684132E+03 0.  0.
         35    2    3    3    0    0  0.13947310447E+03 -0.55746779622E+01 -0.71563309980E+03  0.10822700603E+04  0.79980868084E+03 0.  0.
         22    1    5    5    0    0  0.93512491436E+02 -0.38786362445E+03 -0.50431346872E+03  0.64305120477E+03  0.00000000000E+00 0. -1.
         22    1    5    5    0    0  0.45960613034E+02  0.38228894649E+03 -0.21131963109E+03  0.43921885551E+03  0.00000000000E+00 0. -1.
          5    1    4    4  502    0  0.16751415553E+02  0.23560175649E+02 -0.25667236036E+02  0.38943405159E+02  0.47000000000E+01 0. -1.
         -5    1    4    4    0  502 -0.15622452002E+03 -0.17985497687E+02 -0.15072612701E+03  0.21787618995E+03  0.47000000000E+01 0. -1.
<mgrwt>
<rscale>  0 0.99872413E+03</rscale>
<asrwt>0</asrwt>
<pdfrwt beam="1">  1        1 0.17162431E+00 0.99872413E+03</pdfrwt>
<pdfrwt beam="2">  1       -1 0.34389477E-01 0.99872413E+03</pdfrwt>
<totfact> 0.10964703E+02</totfact>
</mgrwt>
</event>
<event>
 9    1  0.4307774E-036  0.1000097E+04  0.7818608E-02  0.8680946E-01
          1   -1    0    0  501    0  0.00000000000E+00  0.00000000000E+00  0.12013864193E+04  0.12013864193E+04  0.00000000000E+00 0.  1.
         -1   -1    0    0    0  501 -0.00000000000E+00 -0.00000000000E+00 -0.20813317621E+03  0.20813317621E+03  0.00000000000E+00 0.  1.
         36    2    1    2    0    0  0.71054273576E-14 -0.71054273576E-14  0.99325324311E+03  0.14095195955E+04  0.10000967379E+04 0.  0.
         25    2    3    3    0    0 -0.22979079952E+02 -0.61912785011E+02  0.35889926919E+03  0.38578471837E+03  0.12513965176E+03 0.  0.
         35    2    3    3    0    0  0.22979079952E+02  0.61912785011E+02  0.63435397393E+03  0.10237348772E+04  0.80079142316E+03 0.  0.
         22    1    5    5    0    0  0.11493378814E+03 -0.35123029175E+03  0.21319310456E+03  0.42664246546E+03  0.00000000000E+00 0. -1.
         22    1    5    5    0    0 -0.91954708192E+02  0.41314307676E+03  0.42116086936E+03  0.59709241170E+03  0.00000000000E+00 0. -1.
          5    1    4    4  502    0  0.16225128036E+02 -0.21159164724E+01  0.27467633714E+03  0.27520340126E+03  0.47000000000E+01 0. -1.
         -5    1    4    4    0  502 -0.39204207988E+02 -0.59796868538E+02  0.84222932048E+02  0.11058131711E+03  0.47000000000E+01 0. -1.
<mgrwt>
<rscale>  0 0.10000967E+04</rscale>
<asrwt>0</asrwt>
<pdfrwt beam="1">  1        1 0.18482868E+00 0.10000967E+04</pdfrwt>
<pdfrwt beam="2">  1       -1 0.32020489E-01 0.10000967E+04</pdfrwt>
<totfact> 0.10687096E+02</totfact>
</mgrwt>
</event>
<event>
 9    1  0.4307774E-036  0.1000322E+04  0.7818608E-02  0.8680731E-01
          2   -1    0    0  501    0  0.00000000000E+00  0.00000000000E+00  0.17039083467E+04  0.17039083467E+04  0.00000000000E+00 0.  1.
         -2   -1    0    0    0  501 -0.00000000000E+00 -0.00000000000E+00 -0.14681598883E+03  0.14681598883E+03  0.00000000000E+00 0.  1.
         36    2    1    2    0    0  0.28421709430E-13 -0.71054273576E-14  0.15570923578E+04  0.18507243355E+04  0.10003219258E+04 0.  0.
         25    2    3    3    0    0  0.82153737353E+02  0.12479925506E+02  0.50410718043E+03  0.52590873483E+03  0.12470349997E+03 0.  0.
         35    2    3    3    0    0 -0.82153737353E+02 -0.12479925506E+02  0.10529851774E+04  0.13248156007E+04  0.79965843136E+03 0.  0.
         22    1    5    5    0    0  0.32501109616E+03  0.91730152645E+02  0.69511100076E+03  0.77280394468E+03  0.00000000000E+00 0. -1.
         22    1    5    5    0    0 -0.40716483352E+03 -0.10421007815E+03  0.35787417663E+03  0.55201165598E+03  0.00000000000E+00 0. -1.
          5    1    4    4  502    0  0.25375523229E+02  0.64279298283E+02  0.18224779724E+03  0.19496690736E+03  0.47000000000E+01 0.  1.
         -5    1    4    4    0  502  0.56778214125E+02 -0.51799372778E+02  0.32185938319E+03  0.33094182747E+03  0.47000000000E+01 0.  1.
<mgrwt>
<rscale>  0 0.10003219E+04</rscale>
<asrwt>0</asrwt>
<pdfrwt beam="1">  1        2 0.26213973E+00 0.10003219E+04</pdfrwt>
<pdfrwt beam="2">  1       -2 0.22587076E-01 0.10003219E+04</pdfrwt>
<totfact> 0.19944258E+02</totfact>
</mgrwt>
</event>
<event>
 9    1  0.4307774E-036  0.9937609E+03  0.7818608E-02  0.8687002E-01
          2   -1    0    0  501    0  0.00000000000E+00  0.00000000000E+00  0.15354318195E+04  0.15354318195E+04  0.00000000000E+00 0. -1.
         -2   -1    0    0    0  501 -0.00000000000E+00 -0.00000000000E+00 -0.16079526767E+03  0.16079526767E+03  0.00000000000E+00 0. -1.
         36    2    1    2    0    0 -0.28421709430E-13  0.00000000000E+00  0.13746365519E+04  0.16962270872E+04  0.99376087748E+03 0.  0.
         25    2    3    3    0    0 -0.53073341938E+02 -0.57775926784E+02  0.43470990057E+03  0.45952842037E+03  0.12664451876E+03 0.  0.
         35    2    3    3    0    0  0.53073341938E+02  0.57775926784E+02  0.93992665129E+03  0.12366986668E+04  0.79987914423E+03 0.  0.
         22    1    5    5    0    0  0.19331402953E+03 -0.26214300737E+03  0.12289181869E+03  0.34812593903E+03  0.00000000000E+00 0. -1.
         22    1    5    5    0    0 -0.14024068760E+03  0.31991893415E+03  0.81703483261E+03  0.88857272779E+03  0.00000000000E+00 0. -1.
          5    1    4    4  502    0 -0.36038967915E+02 -0.72583722526E+02  0.42783873750E+03  0.43547133005E+03  0.47000000000E+01 0. -1.
         -5    1    4    4    0  502 -0.17034374023E+02  0.14807795741E+02  0.68711630721E+01  0.24057090327E+02  0.47000000000E+01 0. -1.
<mgrwt>
<rscale>  0 0.99376088E+03</rscale>
<asrwt>0</asrwt>
<pdfrwt beam="1">  1        2 0.23622027E+00 0.99376088E+03</pdfrwt>
<pdfrwt beam="2">  1       -2 0.24737735E-01 0.99376088E+03</pdfrwt>
<totfact> 0.21145667E+02</totfact>
</mgrwt>
</event>
<event>
 9    1  0.4307774E-036  0.9999276E+03  0.7818608E-02  0.8681107E-01
         -1   -1    0    0    0  501 -0.00000000000E+00  0.00000000000E+00  0.11633186410E+03  0.11633186410E+03  0.00000000000E+00 0. -1.
          1   -1    0    0  501    0  0.00000000000E+00 -0.00000000000E+00 -0.21487131629E+04  0.21487131629E+04  0.00000000000E+00 0. -1.
         36    2    1    2    0    0 -0.71054273576E-14  0.35527136788E-14 -0.20323812988E+04  0.22650450270E+04  0.99992761268E+03 0.  0.
         25    2    3    3    0    0  0.17060969222E+02 -0.30034029143E+02 -0.69748681920E+03  0.70920687654E+03  0.12366653229E+03 0.  0.
         35    2    3    3    0    0 -0.17060969222E+02  0.30034029143E+02 -0.13348944796E+04  0.15558381504E+04  0.79843344064E+03 0.  0.
         22    1    5    5    0    0  0.20576677956E+03  0.23159494061E+03 -0.17115345006E+03  0.35393458090E+03  0.00000000000E+00 0.  1.
         22    1    5    5    0    0 -0.22282774879E+03 -0.20156091147E+03 -0.11637410295E+04  0.12019035695E+04  0.00000000000E+00 0.  1.
          5    1    4    4  502    0  0.42661180132E+02  0.27312182845E+02 -0.15635872199E+03  0.16442649289E+03  0.47000000000E+01 0.  1.
         -5    1    4    4    0  502 -0.25600210910E+02 -0.57346211988E+02 -0.54112809721E+03  0.54478038366E+03  0.47000000000E+01 0.  1.
<mgrwt>
<rscale>  0 0.99992761E+03</rscale>
<asrwt>0</asrwt>
<pdfrwt beam="1">  1        1 0.33057122E+00 0.99992761E+03</pdfrwt>
<pdfrwt beam="2">  1       -1 0.17897212E-01 0.99992761E+03</pdfrwt>
<totfact> 0.60143323E+01</totfact>
</mgrwt>
</event>
<event>
 9    1  0.4307774E-036  0.1000094E+04  0.7818608E-02  0.8680948E-01
         -1   -1    0    0    0  501 -0.00000000000E+00  0.00000000000E+00  0.43808147168E+03  0.43808147168E+03  0.00000000000E+00 0. -1.
          1   -1    0    0  501    0  0.00000000000E+00 -0.00000000000E+00 -0.57077753135E+03  0.57077753135E+03  0.00000000000E+00 0. -1.
         36    2    1    2    0    0  0.28421709430E-13  0.21316282073E-13 -0.13269605967E+03  0.10088590030E+04  0.10000941174E+04 0.  0.
         25    2    3    3    0    0  0.91472140325E+02 -0.21723909111E+02 -0.11219290488E+03  0.19921818642E+03  0.13513532925E+03 0.  0.
         35    2    3    3    0    0 -0.91472140325E+02  0.21723909111E+02 -0.20503154785E+02  0.80964081662E+03  0.80390222782E+03 0.  0.
         22    1    5    5    0    0 -0.30734240055E+03 -0.28892621853E+03  0.50189631996E+02  0.42480196573E+03  0.00000000000E+00 0. -1.
         22    1    5    5    0    0  0.21587026022E+03  0.31065012764E+03 -0.70692786781E+02  0.38483885089E+03  0.00000000000E+00 0. -1.
          5    1    4    4  502    0  0.87027932015E+01 -0.23783927836E+02 -0.11339234036E+03  0.11628123961E+03  0.47000000000E+01 0.  1.
         -5    1    4    4    0  502  0.82769347124E+02  0.20600187253E+01  0.11994354801E+01  0.82936946809E+02  0.47000000000E+01 0.  1.
<mgrwt>
<rscale>  0 0.10000941E+04</rscale>
<asrwt>0</asrwt>
<pdfrwt beam="1">  1        1 0.87811928E-01 0.10000941E+04</pdfrwt>
<pdfrwt beam="2">  1       -1 0.67397149E-01 0.10000941E+04</pdfrwt>
<totfact> 0.95883898E+01</totfact>
</mgrwt>
</event>
<event>
 9    1  0.4307774E-036  0.9995021E+03  0.7818608E-02  0.8681512E-01
         -2   -1    0    0    0  501 -0.00000000000E+00  0.00000000000E+00  0.24547858708E+03  0.24547858708E+03  0.00000000000E+00 0.  1.
          2   -1    0    0  501    0  0.00000000000E+00 -0.00000000000E+00 -0.10174047837E+04  0.10174047837E+04  0.00000000000E+00 0.  1.
         36    2    1    2    0    0  0.00000000000E+00 -0.14210854715E-13 -0.77192619659E+03  0.12628833707E+04  0.99950205359E+03 0.  0.
         25    2    3    3    0    0 -0.55230522938E+02  0.75326336026E+02 -0.14282661719E+02  0.15732785373E+03  0.12579185812E+03 0.  0.
         35    2    3    3    0    0  0.55230522938E+02 -0.75326336026E+02 -0.75764353487E+03  0.11055555170E+04  0.79969044493E+03 0.  0.
         22    1    5    5    0    0  0.41753543208E+02  0.16327908305E+03 -0.83695372376E+03  0.85375344980E+03  0.00000000000E+00 0. -1.
         22    1    5    5    0    0  0.13476979730E+02 -0.23860541908E+03  0.79310188887E+02  0.25180206722E+03  0.00000000000E+00 0. -1.
          5    1    4    4  502    0 -0.69007999974E+02 -0.77842372218E+01  0.79907824540E+01  0.70061694340E+02  0.47000000000E+01 0.  1.
         -5    1    4    4    0  502  0.13777477036E+02  0.83110573248E+02 -0.22273444173E+02  0.87266159388E+02  0.47000000000E+01 0.  1.
<mgrwt>
<rscale>  0 0.99950205E+03</rscale>
<asrwt>0</asrwt>
<pdfrwt beam="1">  1        2 0.15652381E+00 0.99950205E+03</pdfrwt>
<pdfrwt beam="2">  1       -2 0.37765937E-01 0.99950205E+03</pdfrwt>
<totfact> 0.19625579E+02</totfact>
</mgrwt>
</event>
<event>
 9    1  0.4307774E-036  0.9987705E+03  0.7818608E-02  0.8682210E-01
         -2   -1    0    0    0  501 -0.00000000000E+00  0.00000000000E+00  0.21020681560E+03  0.21020681560E+03  0.00000000000E+00 0.  1.
          2   -1    0    0  501    0  0.00000000000E+00 -0.00000000000E+00 -0.11863821466E+04  0.11863821466E+04  0.00000000000E+00 0.  1.
         36    2    1    2    0    0  0.00000000000E+00  0.00000000000E+00 -0.97617533097E+03  0.13965889622E+04  0.99877047035E+03 0.  0.
         25    2    3    3    0    0 -0.11502924834E+03  0.77065987291E+02 -0.18265889298E+03  0.26129884984E+03  0.12546682181E+03 0.  0.
         35    2    3    3    0    0  0.11502924834E+03 -0.77065987291E+02 -0.79351643800E+03  0.11352901123E+04  0.80002775415E+03 0.  0.
         22    1    5    5    0    0 -0.11527568324E+03  0.28682994331E+03 -0.57393141560E+03  0.65188739008E+03  0.00000000000E+00 0. -1.
         22    1    5    5    0    0  0.23030493158E+03 -0.36389593060E+03 -0.21958502239E+03  0.48340272225E+03  0.00000000000E+00 0. -1.
          5    1    4    4  502    0 -0.32520607466E+02  0.92046143853E+02 -0.67555675590E+02  0.11881052905E+03  0.47000000000E+01 0. -1.
         -5    1    4    4    0  502 -0.82508640878E+02 -0.14980156562E+02 -0.11510321739E+03  0.14248832079E+03  0.47000000000E+01 0. -1.
<mgrwt>
<rscale>  0 0.99877047E+03</rscale>
<asrwt>0</asrwt>
<pdfrwt beam="1">  1        2 0.18252034E+00 0.99877047E+03</pdfrwt>
<pdfrwt beam="2">  1       -2 0.32339509E-01 0.99877047E+03</pdfrwt>
<totfact> 0.20701097E+02</totfact>
</mgrwt>
</event>
<event>
 9    1  0.4307774E-036  0.1000989E+04  0.7818608E-02  0.8680097E-01
         -1   -1    0    0    0  501 -0.00000000000E+00  0.00000000000E+00  0.11178678650E+04  0.11178678650E+04  0.00000000000E+00 0. -1.
          1   -1    0    0  501    0  0.00000000000E+00 -0.00000000000E+00 -0.22408253683E+03  0.22408253683E+03  0.00000000000E+00 0. -1.
         36    2    1    2    0    0  0.71054273576E-14  0.00000000000E+00  0.89378532821E+03  0.13419504019E+04  0.10009888452E+04 0.  0.
         25    2    3    3    0    0 -0.50168346168E-01 -0.12945139610E+03  0.92040808484E+02  0.20201429417E+03  0.12482226626E+03 0.  0.
         35    2    3    3    0    0  0.50168346168E-01  0.12945139610E+03  0.80174451973E+03  0.11399361077E+04  0.79993899032E+03 0.  0.
         22    1    5    5    0    0  0.11799281346E+03  0.29806424844E+03  0.87594413845E+01  0.32068883367E+03  0.00000000000E+00 0.  1.
         22    1    5    5    0    0 -0.11794264512E+03 -0.16861285234E+03  0.79298507834E+03  0.81924727402E+03  0.00000000000E+00 0.  1.
          5    1    4    4  502    0 -0.51843592690E+02 -0.62148661639E+02  0.83743356678E+02  0.11655579794E+03  0.47000000000E+01 0. -1.
         -5    1    4    4    0  502  0.51793424343E+02 -0.67302734465E+02  0.82974518061E+01  0.85458496231E+02  0.47000000000E+01 0. -1.
<mgrwt>
<rscale>  0 0.10009888E+04</rscale>
<asrwt>0</asrwt>
<pdfrwt beam="1">  1        1 0.34474237E-01 0.10009888E+04</pdfrwt>
<pdfrwt beam="2">  1       -1 0.17197967E+00 0.10009888E+04</pdfrwt>
<totfact> 0.34390607E+01</totfact>
</mgrwt>
</event>
<event>
 9    1  0.4307774E-036  0.9997971E+03  0.7818608E-02  0.8681231E-01
         -2   -1    0    0    0  501 -0.00000000000E+00  0.00000000000E+00  0.19441997137E+03  0.19441997137E+03  0.00000000000E+00 0.  1.
          2   -1    0    0  501    0  0.00000000000E+00 -0.00000000000E+00 -0.12853543112E+04  0.12853543112E+04  0.00000000000E+00 0.  1.
         36    2    1    2    0    0  0.17763568394E-13 -0.28421709430E-13 -0.10909343398E+04  0.14797742826E+04  0.99979707618E+03 0.  0.
         25    2    3    3    0    0  0.10197642923E+02  0.13899674691E+03 -0.18881458273E+03  0.26624534017E+03  0.12574397377E+03 0.  0.
         35    2    3    3    0    0 -0.10197642923E+02 -0.13899674691E+03 -0.90211975711E+03  0.12135289424E+04  0.79963013345E+03 0.  0.
         22    1    5    5    0    0  0.27793673857E+03 -0.79306352730E+02 -0.87091991141E+03  0.91762727745E+03  0.00000000000E+00 0.  1.
         22    1    5    5    0    0 -0.28813438149E+03 -0.59690394179E+02 -0.31199845701E+02  0.29590166496E+03  0.00000000000E+00 0.  1.
          5    1    4    4  502    0 -0.10405075527E+02 -0.21306284765E+02 -0.13238877842E+02  0.27560501696E+02  0.47000000000E+01 0. -1.
         -5    1    4    4    0  502  0.20602718450E+02  0.16030303167E+03 -0.17557570489E+03  0.23868483848E+03  0.47000000000E+01 0. -1.
<mgrwt>
<rscale>  0 0.99979708E+03</rscale>
<asrwt>0</asrwt>
<pdfrwt beam="1">  1        2 0.19774681E+00 0.99979708E+03</pdfrwt>
<pdfrwt beam="2">  1       -2 0.29910765E-01 0.99979708E+03</pdfrwt>
<totfact> 0.20894979E+02</totfact>
</mgrwt>
</event>
<event>
 9    1  0.4307774E-036  0.1000276E+04  0.7818608E-02  0.8680775E-01
          1   -1    0    0  501    0  0.00000000000E+00  0.00000000000E+00  0.11393450674E+04  0.11393450674E+04  0.00000000000E+00 0. -1.
         -1   -1    0    0    0  501 -0.00000000000E+00 -0.00000000000E+00 -0.21954557803E+03  0.21954557803E+03  0.00000000000E+00 0. -1.
         36    2    1    2    0    0  0.00000000000E+00  0.00000000000E+00  0.91979948941E+03  0.13588906455E+04  0.10002763046E+04 0.  0.
         25    2    3    3    0    0  0.78183250783E+02  0.87908856367E+02  0.24782015243E+03  0.30501361477E+03  0.13333375236E+03 0.  0.
         35    2    3    3    0    0 -0.78183250783E+02 -0.87908856367E+02  0.67197933698E+03  0.10538770307E+04  0.80328075960E+03 0.  0.
         22    1    5    5    0    0 -0.33741711857E+02  0.35890687573E+03  0.33919839618E+03  0.49498303055E+03  0.00000000000E+00 0.  1.
         22    1    5    5    0    0 -0.44441538926E+02 -0.44681573209E+03  0.33278094080E+03  0.55889400013E+03  0.00000000000E+00 0.  1.
          5    1    4    4  502    0  0.10106548378E+02  0.10638662367E+03  0.15531118770E+03  0.18858396284E+03  0.47000000000E+01 0.  1.
         -5    1    4    4    0  502  0.68076702405E+02 -0.18477767300E+02  0.92508964730E+02  0.11642965194E+03  0.47000000000E+01 0.  1.
<mgrwt>
<rscale>  0 0.10002763E+04</rscale>
<asrwt>0</asrwt>
<pdfrwt beam="1">  1        1 0.17528385E+00 0.10002763E+04</pdfrwt>
<pdfrwt beam="2">  1       -1 0.33776244E-01 0.10002763E+04</pdfrwt>
<totfact> 0.10850089E+02</totfact>
</mgrwt>
</event>
<event>
 9    1  0.4307774E-036  0.9996008E+03  0.7818608E-02  0.8681418E-01
         -2   -1    0    0    0  501 -0.00000000000E+00  0.00000000000E+00  0.22919939676E+03  0.22919939676E+03  0.00000000000E+00 0.  1.
          2   -1    0    0  501    0  0.00000000000E+00 -0.00000000000E+00 -0.10898826101E+04  0.10898826101E+04  0.00000000000E+00 0.  1.
         36    2    1    2    0    0 -0.21316282073E-13 -0.71054273576E-14 -0.86068321338E+03  0.13190820069E+04  0.99960079388E+03 0.  0.
         25    2    3    3    0    0  0.27393114511E+02  0.10799573946E+02 -0.34001107208E+03  0.36332397423E+03  0.12461848817E+03 0.  0.
         35    2    3    3    0    0 -0.27393114511E+02 -0.10799573946E+02 -0.52067214130E+03  0.95575803267E+03  0.80094127423E+03 0.  0.
         22    1    5    5    0    0 -0.23307118655E+03 -0.31868831743E+03 -0.41024633743E+03  0.56937376041E+03  0.00000000000E+00 0. -1.
         22    1    5    5    0    0  0.20567807204E+03  0.30788874349E+03 -0.11042580387E+03  0.38638427225E+03  0.00000000000E+00 0. -1.
          5    1    4    4  502    0 -0.19978772776E+02 -0.24206005263E+02 -0.19147349667E+02  0.37064714375E+02  0.47000000000E+01 0.  1.
         -5    1    4    4    0  502  0.47371887287E+02  0.35005579208E+02 -0.32086372241E+03  0.32625925985E+03  0.47000000000E+01 0.  1.
<mgrwt>
<rscale>  0 0.99960079E+03</rscale>
<asrwt>0</asrwt>
<pdfrwt beam="1">  1        2 0.16767425E+00 0.99960079E+03</pdfrwt>
<pdfrwt beam="2">  1       -2 0.35261446E-01 0.99960079E+03</pdfrwt>
<totfact> 0.20146874E+02</totfact>
</mgrwt>
</event>
<event>
 9    1  0.4307774E-036  0.9997519E+03  0.7818608E-02  0.8681274E-01
         -2   -1    0    0    0  501 -0.00000000000E+00  0.00000000000E+00  0.24879948735E+03  0.24879948735E+03  0.00000000000E+00 0. -1.
          2   -1    0    0  501    0  0.00000000000E+00 -0.00000000000E+00 -0.10043267448E+04  0.10043267448E+04  0.00000000000E+00 0. -1.
         36    2    1    2    0    0  0.00000000000E+00  0.00000000000E+00 -0.75552725741E+03  0.12531262321E+04  0.99975192768E+03 0.  0.
         25    2    3    3    0    0 -0.49991231810E+02 -0.12845579045E+03 -0.19128478927E+03  0.26421934548E+03  0.11925593722E+03 0.  0.
         35    2    3    3    0    0  0.49991231810E+02  0.12845579045E+03 -0.56424246814E+03  0.98890688662E+03  0.80035445535E+03 0.  0.
         22    1    5    5    0    0 -0.20690602653E+03 -0.26481593804E+03 -0.17526076762E+03  0.37901704648E+03  0.00000000000E+00 0.  1.
         22    1    5    5    0    0  0.25689725834E+03  0.39327172849E+03 -0.38898170052E+03  0.60988984014E+03  0.00000000000E+00 0.  1.
          5    1    4    4  502    0  0.26589276594E+02 -0.17439366984E+02 -0.89768825993E+02  0.95350161357E+02  0.47000000000E+01 0. -1.
         -5    1    4    4    0  502 -0.76580508404E+02 -0.11101642346E+03 -0.10151596328E+03  0.16886918412E+03  0.47000000000E+01 0. -1.
<mgrwt>
<rscale>  0 0.99975193E+03</rscale>
<asrwt>0</asrwt>
<pdfrwt beam="1">  1        2 0.15451181E+00 0.99975193E+03</pdfrwt>
<pdfrwt beam="2">  1       -2 0.38276844E-01 0.99975193E+03</pdfrwt>
<totfact> 0.19495771E+02</totfact>
</mgrwt>
</event>
<event>
 9    1  0.4307774E-036  0.9991250E+03  0.7818608E-02  0.8681872E-01
         -2   -1    0    0    0  501 -0.00000000000E+00  0.00000000000E+00  0.77903394596E+02  0.77903394596E+02  0.00000000000E+00 0.  1.
          2   -1    0    0  501    0  0.00000000000E+00 -0.00000000000E+00 -0.32034893303E+04  0.32034893303E+04  0.00000000000E+00 0.  1.
         36    2    1    2    0    0  0.00000000000E+00 -0.35527136788E-14 -0.31255859357E+04  0.32813927249E+04  0.99912500396E+03 0.  0.
         25    2    3    3    0    0  0.13934377968E+03 -0.28985644660E+01 -0.57086377016E+03  0.60070520928E+03  0.12464434908E+03 0.  0.
         35    2    3    3    0    0 -0.13934377968E+03  0.28985644660E+01 -0.25547221656E+04  0.26806875156E+04  0.80003445094E+03 0.  0.
         22    1    5    5    0    0  0.43353915781E+01  0.13497372969E+03 -0.17732628738E+02  0.13620260441E+03  0.00000000000E+00 0.  1.
         22    1    5    5    0    0 -0.14367917126E+03 -0.13207516522E+03 -0.25369895368E+04  0.25444849112E+04  0.00000000000E+00 0.  1.
          5    1    4    4  502    0  0.14446088062E+03 -0.12910676152E+02 -0.34194291053E+03  0.37146019390E+03  0.47000000000E+01 0.  1.
         -5    1    4    4    0  502 -0.51171009393E+01  0.10012111686E+02 -0.22892085963E+03  0.22924501538E+03  0.47000000000E+01 0.  1.
<mgrwt>
<rscale>  0 0.99912500E+03</rscale>
<asrwt>0</asrwt>
<pdfrwt beam="1">  1        2 0.49284449E+00 0.99912500E+03</pdfrwt>
<pdfrwt beam="2">  1       -2 0.11985138E-01 0.99912500E+03</pdfrwt>
<totfact> 0.70523685E+01</totfact>
</mgrwt>
</event>
<event>
 9    1  0.4307774E-036  0.9963941E+03  0.7818608E-02  0.8684479E-01
          2   -1    0    0  501    0  0.00000000000E+00  0.00000000000E+00  0.13300783399E+04  0.13300783399E+04  0.00000000000E+00 0. -1.
         -2   -1    0    0    0  501 -0.00000000000E+00 -0.00000000000E+00 -0.18660576084E+03  0.18660576084E+03  0.00000000000E+00 0. -1.
         36    2    1    2    0    0  0.00000000000E+00  0.14210854715E-13  0.11434725790E+04  0.15166841007E+04  0.99639405978E+03 0.  0.
         25    2    3    3    0    0  0.79407261486E+02 -0.96085320743E+02  0.13404920259E+03  0.22234811137E+03  0.12622040990E+03 0.  0.
         35    2    3    3    0    0 -0.79407261486E+02  0.96085320743E+02  0.10094233764E+04  0.12943359893E+04  0.80051995502E+03 0.  0.
         22    1    5    5    0    0  0.18614769114E+03  0.16310797004E+03  0.98921798745E+03  0.10197094682E+04  0.00000000000E+00 0.  1.
         22    1    5    5    0    0 -0.26555495262E+03 -0.67022649299E+02  0.20205388989E+02  0.27462652116E+03  0.00000000000E+00 0.  1.
          5    1    4    4  502    0  0.16426268940E+02 -0.84315711207E+02  0.13263140879E+03  0.15808903209E+03  0.47000000000E+01 0.  1.
         -5    1    4    4    0  502  0.62980992546E+02 -0.11769609536E+02  0.14177937976E+01  0.64259079280E+02  0.47000000000E+01 0.  1.
<mgrwt>
<rscale>  0 0.99639406E+03</rscale>
<asrwt>0</asrwt>
<pdfrwt beam="1">  1        2 0.20462743E+00 0.99639406E+03</pdfrwt>
<pdfrwt beam="2">  1       -2 0.28708579E-01 0.99639406E+03</pdfrwt>
<totfact> 0.21207553E+02</totfact>
</mgrwt>
</event>
<event>
 9    1  0.4307774E-036  0.9999612E+03  0.7818608E-02  0.8681075E-01
         -1   -1    0    0    0  501 -0.00000000000E+00  0.00000000000E+00  0.46896570034E+03  0.46896570034E+03  0.00000000000E+00 0. -1.
          1   -1    0    0  501    0  0.00000000000E+00 -0.00000000000E+00 -0.53304666287E+03  0.53304666287E+03  0.00000000000E+00 0. -1.
         36    2    1    2    0    0 -0.14210854715E-13 -0.14210854715E-13 -0.64080962529E+02  0.10020123632E+04  0.99996120237E+03 0.  0.
         25    2    3    3    0    0 -0.84735496134E+02 -0.10125773707E+03  0.37497080307E+02  0.18464325139E+03  0.12350654084E+03 0.  0.
         35    2    3    3    0    0  0.84735496134E+02  0.10125773707E+03 -0.10157804284E+03  0.81736911182E+03  0.80021305447E+03 0.  0.
         22    1    5    5    0    0  0.25039153275E+03 -0.29177968667E+03 -0.45069616505E+02  0.38712087978E+03  0.00000000000E+00 0. -1.
         22    1    5    5    0    0 -0.16565603662E+03  0.39303742374E+03 -0.56508426331E+02  0.43024823204E+03  0.00000000000E+00 0. -1.
          5    1    4    4  502    0 -0.11260321775E+03 -0.81513550240E+02  0.50244456827E+02  0.14788691275E+03  0.47000000000E+01 0. -1.
         -5    1    4    4    0  502  0.27867721620E+02 -0.19744186827E+02 -0.12747376519E+02  0.36756338635E+02  0.47000000000E+01 0. -1.
<mgrwt>
<rscale>  0 0.99996120E+03</rscale>
<asrwt>0</asrwt>
<pdfrwt beam="1">  1        1 0.82007179E-01 0.99996120E+03</pdfrwt>
<pdfrwt beam="2">  1       -1 0.72148569E-01 0.99996120E+03</pdfrwt>
<totfact> 0.92330786E+01</totfact>
</mgrwt>
</event>
<event>
 9    1  0.4307774E-036  0.9992920E+03  0.7818608E-02  0.8681713E-01
          2   -1    0    0  501    0  0.00000000000E+00  0.00000000000E+00  0.73602228734E+03  0.73602228734E+03  0.00000000000E+00 0.  1.
         -2   -1    0    0    0  501 -0.00000000000E+00 -0.00000000000E+00 -0.33918280815E+03  0.33918280815E+03  0.00000000000E+00 0.  1.
         36    2    1    2    0    0  0.00000000000E+00 -0.14210854715E-13  0.39683947919E+03  0.10752050955E+04  0.99929196191E+03 0.  0.
         25    2    3    3    0    0  0.90165858922E+02 -0.10594252653E+03  0.57081164571E+02  0.19518811531E+03  0.12444452565E+03 0.  0.
         35    2    3    3    0    0 -0.90165858922E+02  0.10594252653E+03  0.33975831462E+03  0.88001698019E+03  0.79977526345E+03 0.  0.
         22    1    5    5    0    0  0.13134011006E+03  0.14250203184E+03 -0.21025806720E+03  0.28594668806E+03  0.00000000000E+00 0. -1.
         22    1    5    5    0    0 -0.22150596899E+03 -0.36559505308E+02  0.55001638182E+03  0.59407029213E+03  0.00000000000E+00 0. -1.
          5    1    4    4  502    0  0.11217022482E+03 -0.78500520408E+02  0.11573167679E+02  0.13747915933E+03  0.47000000000E+01 0.  1.
         -5    1    4    4    0  502 -0.22004365897E+02 -0.27442006123E+02  0.45507996892E+02  0.57708955975E+02  0.47000000000E+01 0.  1.
<mgrwt>
<rscale>  0 0.99929196E+03</rscale>
<asrwt>0</asrwt>
<pdfrwt beam="1">  1        2 0.11323420E+00 0.99929196E+03</pdfrwt>
<pdfrwt beam="2">  1       -2 0.52181971E-01 0.99929196E+03</pdfrwt>
<totfact> 0.16122881E+02</totfact>
</mgrwt>
</event>
<event>
 9    1  0.4307774E-036  0.9996427E+03  0.7818608E-02  0.8681378E-01
         -2   -1    0    0    0  501 -0.00000000000E+00  0.00000000000E+00  0.18768043021E+03  0.18768043021E+03  0.00000000000E+00 0.  1.
          2   -1    0    0  501    0  0.00000000000E+00 -0.00000000000E+00 -0.13310998457E+04  0.13310998457E+04  0.00000000000E+00 0.  1.
         36    2    1    2    0    0  0.71054273576E-14  0.14210854715E-13 -0.11434194155E+04  0.15187802759E+04  0.99964271955E+03 0.  0.
         25    2    3    3    0    0 -0.50516161557E+02  0.89958180436E+02 -0.37242883743E+03  0.40570862333E+03  0.12349854770E+03 0.  0.
         35    2    3    3    0    0  0.50516161557E+02 -0.89958180436E+02 -0.77099057806E+03  0.11130716526E+04  0.79615179176E+03 0.  0.
         22    1    5    5    0    0 -0.77381602849E+02  0.34285866483E+03 -0.34001243616E+03  0.48902804955E+03  0.00000000000E+00 0. -1.
         22    1    5    5    0    0  0.12789776441E+03 -0.43281684526E+03 -0.43097814190E+03  0.62404360303E+03  0.00000000000E+00 0. -1.
          5    1    4    4  502    0 -0.52081380402E+01 -0.30673793300E+02 -0.86633535365E+02  0.92170850854E+02  0.47000000000E+01 0.  1.
         -5    1    4    4    0  502 -0.45308023516E+02  0.12063197374E+03 -0.28579530207E+03  0.31353777247E+03  0.47000000000E+01 0.  1.
<mgrwt>
<rscale>  0 0.99964272E+03</rscale>
<asrwt>0</asrwt>
<pdfrwt beam="1">  1        2 0.20478459E+00 0.99964272E+03</pdfrwt>
<pdfrwt beam="2">  1       -2 0.28873912E-01 0.99964272E+03</pdfrwt>
<totfact> 0.20959431E+02</totfact>
</mgrwt>
</event>
<event>
 9    1  0.4307774E-036  0.9989822E+03  0.7818608E-02  0.8682008E-01
          2   -1    0    0  501    0  0.00000000000E+00  0.00000000000E+00  0.11987464331E+04  0.11987464331E+04  0.00000000000E+00 0.  1.
         -2   -1    0    0    0  501 -0.00000000000E+00 -0.00000000000E+00 -0.20812688897E+03  0.20812688897E+03  0.00000000000E+00 0.  1.
         36    2    1    2    0    0  0.28421709430E-13  0.28421709430E-13  0.99061954410E+03  0.14068733220E+04  0.99898221361E+03 0.  0.
         25    2    3    3    0    0 -0.12876855906E+03 -0.28296283134E+02  0.11970906903E+03  0.21746133430E+03  0.12480845030E+03 0.  0.
         35    2    3    3    0    0  0.12876855906E+03  0.28296283134E+02  0.87091047507E+03  0.11894119877E+04  0.79927079238E+03 0.  0.
         22    1    5    5    0    0  0.21366407592E+03 -0.34553328363E+03  0.31467993971E+03  0.51387649479E+03  0.00000000000E+00 0. -1.
         22    1    5    5    0    0 -0.84895516862E+02  0.37382956677E+03  0.55623053536E+03  0.67553549295E+03  0.00000000000E+00 0. -1.
          5    1    4    4  502    0 -0.57983121382E+02 -0.70078972784E+02  0.94759252096E+02  0.13143253269E+03  0.47000000000E+01 0. -1.
         -5    1    4    4    0  502 -0.70785437677E+02  0.41782689650E+02  0.24949816935E+02  0.86028801611E+02  0.47000000000E+01 0. -1.
<mgrwt>
<rscale>  0 0.99898221E+03</rscale>
<asrwt>0</asrwt>
<pdfrwt beam="1">  1        2 0.18442252E+00 0.99898221E+03</pdfrwt>
<pdfrwt beam="2">  1       -2 0.32019522E-01 0.99898221E+03</pdfrwt>
<totfact> 0.20731041E+02</totfact>
</mgrwt>
</event>
<event>
 9    1  0.4307774E-036  0.1000960E+04  0.7818608E-02  0.8680124E-01
         -2   -1    0    0    0  501 -0.00000000000E+00  0.00000000000E+00  0.92847741890E+02  0.92847741890E+02  0.00000000000E+00 0. -1.
          2   -1    0    0  501    0  0.00000000000E+00 -0.00000000000E+00 -0.26977517414E+04  0.26977517414E+04  0.00000000000E+00 0. -1.
         36    2    1    2    0    0  0.00000000000E+00  0.46185277824E-13 -0.26049039995E+04  0.27905994832E+04  0.10009598541E+04 0.  0.
         25    2    3    3    0    0 -0.13885264754E+03  0.41934022837E+01 -0.51351619855E+03  0.54623774947E+03  0.12401270268E+03 0.  0.
         35    2    3    3    0    0  0.13885264754E+03 -0.41934022837E+01 -0.20913878009E+04  0.22443617338E+04  0.80247057008E+03 0.  0.
         22    1    5    5    0    0  0.18946663385E+03  0.36462413797E+03 -0.14007858162E+04  0.14598113817E+04  0.00000000000E+00 0.  1.
         22    1    5    5    0    0 -0.50613986307E+02 -0.36881754026E+03 -0.69060198472E+03  0.78455035205E+03  0.00000000000E+00 0.  1.
          5    1    4    4  502    0  0.60140843902E+01 -0.21866836588E+02 -0.18220245297E+03  0.18366859182E+03  0.47000000000E+01 0. -1.
         -5    1    4    4    0  502 -0.14486673193E+03  0.26060238872E+02 -0.33131374558E+03  0.36256915765E+03  0.47000000000E+01 0. -1.
<mgrwt>
<rscale>  0 0.10009599E+04</rscale>
<asrwt>0</asrwt>
<pdfrwt beam="1">  1        2 0.41503868E+00 0.10009599E+04</pdfrwt>
<pdfrwt beam="2">  1       -2 0.14284270E-01 0.10009599E+04</pdfrwt>
<totfact> 0.11400259E+02</totfact>
</mgrwt>
</event>
<event>
 9    1  0.4307774E-036  0.1002925E+04  0.7818608E-02  0.8678258E-01
          2   -1    0    0  501    0  0.00000000000E+00  0.00000000000E+00  0.71087366913E+03  0.71087366913E+03  0.00000000000E+00 0. -1.
         -2   -1    0    0    0  501 -0.00000000000E+00 -0.00000000000E+00 -0.35374005076E+03  0.35374005076E+03  0.00000000000E+00 0. -1.
         36    2    1    2    0    0 -0.28421709430E-13  0.00000000000E+00  0.35713361837E+03  0.10646137199E+04  0.10029246987E+04 0.  0.
         25    2    3    3    0    0  0.12802443779E+03  0.51668507270E+02  0.11187970924E+03  0.21711375777E+03  0.12474543342E+03 0.  0.
         35    2    3    3    0    0 -0.12802443779E+03 -0.51668507270E+02  0.24525390913E+03  0.84749996211E+03  0.79940403709E+03 0.  0.
         22    1    5    5    0    0  0.77569545297E+02 -0.24839248104E+03 -0.19368903452E+03  0.32439374391E+03  0.00000000000E+00 0. -1.
         22    1    5    5    0    0 -0.20559398309E+03  0.19672397377E+03  0.43894294365E+03  0.52310621820E+03  0.00000000000E+00 0. -1.
          5    1    4    4  502    0  0.49436308370E+02 -0.35281476925E+02  0.99636679104E+01  0.61725974091E+02  0.47000000000E+01 0. -1.
         -5    1    4    4    0  502  0.78588129423E+02  0.86949984195E+02  0.10191604133E+03  0.15538778368E+03  0.47000000000E+01 0. -1.
<mgrwt>
<rscale>  0 0.10029247E+04</rscale>
<asrwt>0</asrwt>
<pdfrwt beam="1">  1        2 0.10936518E+00 0.10029247E+04</pdfrwt>
<pdfrwt beam="2">  1       -2 0.54421546E-01 0.10029247E+04</pdfrwt>
<totfact> 0.15456092E+02</totfact>
</mgrwt>
</event>
<event>
 9    1  0.4307774E-036  0.9995756E+03  0.7818608E-02  0.8681442E-01
          2   -1    0    0  501    0  0.00000000000E+00  0.00000000000E+00  0.48125996641E+03  0.48125996641E+03  0.00000000000E+00 0. -1.
         -2   -1    0    0    0  501 -0.00000000000E+00 -0.00000000000E+00 -0.51902891564E+03  0.51902891564E+03  0.00000000000E+00 0. -1.
         36    2    1    2    0    0  0.00000000000E+00 -0.10658141036E-13 -0.37768949233E+02  0.10002888820E+04  0.99957558694E+03 0.  0.
         25    2    3    3    0    0  0.13628469333E+03 -0.27046080964E+02 -0.21895963283E+02  0.18861212946E+03  0.12565864093E+03 0.  0.
         35    2    3    3    0    0 -0.13628469333E+03  0.27046080964E+02 -0.15872985950E+02  0.81167675259E+03  0.79953873632E+03 0.  0.
         22    1    5    5    0    0  0.27369256484E+03 -0.96534441393E+02  0.17925581415E+03  0.34111459267E+03  0.00000000000E+00 0. -1.
         22    1    5    5    0    0 -0.40997725817E+03  0.12358052236E+03 -0.19512880010E+03  0.47056215992E+03  0.00000000000E+00 0. -1.
          5    1    4    4  502    0 -0.15450817333E+02 -0.31128609099E+02  0.70904397491E+00  0.35075786578E+02  0.47000000000E+01 0. -1.
         -5    1    4    4    0  502  0.15173551066E+03  0.40825281349E+01 -0.22605007258E+02  0.15353634288E+03  0.47000000000E+01 0. -1.
<mgrwt>
<rscale>  0 0.99957559E+03</rscale>
<asrwt>0</asrwt>
<pdfrwt beam="1">  1        2 0.74039995E-01 0.99957559E+03</pdfrwt>
<pdfrwt beam="2">  1       -2 0.79850602E-01 0.99957559E+03</pdfrwt>
<totfact> 0.10766543E+02</totfact>
</mgrwt>
</event>
<event>
 9    1  0.4307774E-036  0.9982801E+03  0.7818608E-02  0.8682678E-01
         -1   -1    0    0    0  501 -0.00000000000E+00  0.00000000000E+00  0.25582937315E+03  0.25582937315E+03  0.00000000000E+00 0. -1.
          1   -1    0    0  501    0  0.00000000000E+00 -0.00000000000E+00 -0.97385534434E+03  0.97385534434E+03  0.00000000000E+00 0. -1.
         36    2    1    2    0    0  0.00000000000E+00  0.00000000000E+00 -0.71802597119E+03  0.12296847175E+04  0.99828012558E+03 0.  0.
         25    2    3    3    0    0 -0.20120944203E+02 -0.13659813206E+03 -0.12594248186E+03  0.22524669266E+03  0.12574045385E+03 0.  0.
         35    2    3    3    0    0  0.20120944203E+02  0.13659813206E+03 -0.59208348932E+03  0.10044380248E+04  0.79954298529E+03 0.  0.
         22    1    5    5    0    0 -0.63273153895E+02 -0.30496499907E+03 -0.42081273479E+03  0.52353653208E+03  0.00000000000E+00 0. -1.
         22    1    5    5    0    0  0.83394098098E+02  0.44156313113E+03 -0.17127075453E+03  0.48090149275E+03  0.00000000000E+00 0. -1.
          5    1    4    4  502    0 -0.35057006827E+00 -0.14201869059E+03 -0.56889572044E+02  0.15306189853E+03  0.47000000000E+01 0.  1.
         -5    1    4    4    0  502 -0.19770374135E+02  0.54205585223E+01 -0.69052909819E+02  0.72184794123E+02  0.47000000000E+01 0.  1.
<mgrwt>
<rscale>  0 0.99828013E+03</rscale>
<asrwt>0</asrwt>
<pdfrwt beam="1">  1        1 0.14982390E+00 0.99828013E+03</pdfrwt>
<pdfrwt beam="2">  1       -1 0.39358365E-01 0.99828013E+03</pdfrwt>
<totfact> 0.11164177E+02</totfact>
</mgrwt>
</event>
<event>
 9    1  0.4307774E-036  0.9971832E+03  0.7818608E-02  0.8683725E-01
          2   -1    0    0  501    0  0.00000000000E+00  0.00000000000E+00  0.54467531083E+03  0.54467531083E+03  0.00000000000E+00 0.  1.
         -2   -1    0    0    0  501 -0.00000000000E+00 -0.00000000000E+00 -0.45640691414E+03  0.45640691414E+03  0.00000000000E+00 0.  1.
         36    2    1    2    0    0  0.71054273576E-14  0.14210854715E-13  0.88268396695E+02  0.10010822250E+04  0.99718318844E+03 0.  0.
         25    2    3    3    0    0 -0.20780042705E+02  0.11669207204E+03  0.83533511586E+02  0.19140443087E+03  0.12493581851E+03 0.  0.
         35    2    3    3    0    0  0.20780042705E+02 -0.11669207204E+03  0.47348851089E+01  0.80967779410E+03  0.80094123459E+03 0.  0.
         22    1    5    5    0    0 -0.31015143521E+03 -0.13236100039E+03 -0.22600264365E+03  0.40594401354E+03  0.00000000000E+00 0.  1.
         22    1    5    5    0    0  0.33093147792E+03  0.15668928344E+02  0.23073752876E+03  0.40373378057E+03  0.00000000000E+00 0.  1.
          5    1    4    4  502    0 -0.31890895090E+02  0.13714634793E+03  0.89513789379E+02  0.16691602208E+03  0.47000000000E+01 0.  1.
         -5    1    4    4    0  502  0.11110852385E+02 -0.20454275883E+02 -0.59802777929E+01  0.24488408790E+02  0.47000000000E+01 0.  1.
<mgrwt>
<rscale>  0 0.99718319E+03</rscale>
<asrwt>0</asrwt>
<pdfrwt beam="1">  1        2 0.83796201E-01 0.99718319E+03</pdfrwt>
<pdfrwt beam="2">  1       -2 0.70216449E-01 0.99718319E+03</pdfrwt>
<totfact> 0.12436242E+02</totfact>
</mgrwt>
</event>
<event>
 9    1  0.4307774E-036  0.1002802E+04  0.7818608E-02  0.8678374E-01
         -2   -1    0    0    0  501 -0.00000000000E+00  0.00000000000E+00  0.28921737580E+03  0.28921737580E+03  0.00000000000E+00 0.  1.
          2   -1    0    0  501    0  0.00000000000E+00 -0.00000000000E+00 -0.86925301843E+03  0.86925301843E+03  0.00000000000E+00 0.  1.
         36    2    1    2    0    0 -0.14210854715E-13  0.28421709430E-13 -0.58003564263E+03  0.11584703942E+04  0.10028022276E+04 0.  0.
         25    2    3    3    0    0 -0.93769061887E+02  0.87777675314E+02 -0.43252095883E+02  0.18505924889E+03  0.12601041445E+03 0.  0.
         35    2    3    3    0    0  0.93769061887E+02 -0.87777675314E+02 -0.53678354674E+03  0.97341114534E+03  0.80180741114E+03 0.  0.
         22    1    5    5    0    0 -0.88126258993E+02 -0.76733420123E+02 -0.71145484999E+03  0.72098700325E+03  0.00000000000E+00 0.  1.
         22    1    5    5    0    0  0.18189532088E+03 -0.11044255191E+02  0.17467130324E+03  0.25242414208E+03  0.00000000000E+00 0.  1.
          5    1    4    4  502    0 -0.42335729895E+02  0.23147011718E+02  0.43534572811E+02  0.65157096368E+02  0.47000000000E+01 0.  1.
         -5    1    4    4    0  502 -0.51433331992E+02  0.64630663596E+02 -0.86786668694E+02  0.11990215252E+03  0.47000000000E+01 0.  1.
<mgrwt>
<rscale>  0 0.10028022E+04</rscale>
<asrwt>0</asrwt>
<pdfrwt beam="1">  1        2 0.13373123E+00 0.10028022E+04</pdfrwt>
<pdfrwt beam="2">  1       -2 0.44494981E-01 0.10028022E+04</pdfrwt>
<totfact> 0.17841799E+02</totfact>
</mgrwt>
</event>
<event>
 9    1  0.4307774E-036  0.1000720E+04  0.7818608E-02  0.8680353E-01
          2   -1    0    0  501    0  0.00000000000E+00  0.00000000000E+00  0.12116254303E+04  0.12116254303E+04  0.00000000000E+00 0. -1.
         -2   -1    0    0    0  501 -0.00000000000E+00 -0.00000000000E+00 -0.20663143324E+03  0.20663143324E+03  0.00000000000E+00 0. -1.
         36    2    1    2    0    0 -0.13322676296E-13 -0.14210854715E-13  0.10049939970E+04  0.14182568635E+04  0.10007195396E+04 0.  0.
         25    2    3    3    0    0 -0.20081862901E+01  0.10590163283E+03  0.31592828053E+03  0.35555180961E+03  0.12404524267E+03 0.  0.
         35    2    3    3    0    0  0.20081862901E+01 -0.10590163283E+03  0.68906571652E+03  0.10627050539E+04  0.80206688081E+03 0.  0.
         22    1    5    5    0    0 -0.36433199394E+03 -0.20898698022E+03  0.43764854427E+03  0.60658849974E+03  0.00000000000E+00 0. -1.
         22    1    5    5    0    0  0.36634018023E+03  0.10308534740E+03  0.25141717224E+03  0.45611655418E+03  0.00000000000E+00 0. -1.
          5    1    4    4  502    0 -0.73226536975E+01  0.12850342384E+03  0.20485283359E+03  0.24197835569E+03  0.47000000000E+01 0.  1.
         -5    1    4    4    0  502  0.53144674075E+01 -0.22601791010E+02  0.11107544694E+03  0.11357345392E+03  0.47000000000E+01 0.  1.
<mgrwt>
<rscale>  0 0.10007195E+04</rscale>
<asrwt>0</asrwt>
<pdfrwt beam="1">  1        2 0.18640391E+00 0.10007195E+04</pdfrwt>
<pdfrwt beam="2">  1       -2 0.31789452E-01 0.10007195E+04</pdfrwt>
<totfact> 0.20642931E+02</totfact>
</mgrwt>
</event>
<event>
 9    1  0.4307774E-036  0.1000074E+04  0.7818608E-02  0.8680967E-01
         -2   -1    0    0    0  501 -0.00000000000E+00  0.00000000000E+00  0.18041050386E+03  0.18041050386E+03  0.00000000000E+00 0.  1.
          2   -1    0    0  501    0  0.00000000000E+00 -0.00000000000E+00 -0.13859345558E+04  0.13859345558E+04  0.00000000000E+00 0.  1.
         36    2    1    2    0    0  0.56843418861E-13  0.00000000000E+00 -0.12055240519E+04  0.15663450597E+04  0.10000743003E+04 0.  0.
         25    2    3    3    0    0 -0.11821613396E+03 -0.58735158546E+02 -0.15006439701E+03  0.23573438133E+03  0.12500600831E+03 0.  0.
         35    2    3    3    0    0  0.11821613396E+03  0.58735158546E+02 -0.10554596549E+04  0.13306106783E+04  0.79944031728E+03 0.  0.
         22    1    5    5    0    0  0.43920481730E+03 -0.87590189722E+02 -0.48728715812E+03  0.66183206883E+03  0.00000000000E+00 0.  1.
         22    1    5    5    0    0 -0.32098868333E+03  0.14632534827E+03 -0.56817249681E+03  0.66877860949E+03  0.00000000000E+00 0.  1.
          5    1    4    4  502    0 -0.50227249400E-01  0.12498905227E+02  0.15305617668E+02  0.20311993669E+02  0.47000000000E+01 0.  1.
         -5    1    4    4    0  502 -0.11816590671E+03 -0.71234063772E+02 -0.16537001468E+03  0.21542238766E+03  0.47000000000E+01 0.  1.
<mgrwt>
<rscale>  0 0.10000743E+04</rscale>
<asrwt>0</asrwt>
<pdfrwt beam="1">  1        2 0.21322069E+00 0.10000743E+04</pdfrwt>
<pdfrwt beam="2">  1       -2 0.27755464E-01 0.10000743E+04</pdfrwt>
<totfact> 0.20935624E+02</totfact>
</mgrwt>
</event>
<event>
 9    1  0.4307774E-036  0.1000143E+04  0.7818608E-02  0.8680902E-01
          2   -1    0    0  501    0  0.00000000000E+00  0.00000000000E+00  0.10111314908E+04  0.10111314908E+04  0.00000000000E+00 0.  1.
         -2   -1    0    0    0  501 -0.00000000000E+00 -0.00000000000E+00 -0.24731828152E+03  0.24731828152E+03  0.00000000000E+00 0.  1.
         36    2    1    2    0    0  0.14210854715E-13 -0.42632564146E-13  0.76381320925E+03  0.12584497723E+04  0.10001425952E+04 0.  0.
         25    2    3    3    0    0  0.50676244877E+01  0.12535479110E+03  0.63939585876E+02  0.18810229016E+03  0.12471846876E+03 0.  0.
         35    2    3    3    0    0 -0.50676244877E+01 -0.12535479110E+03  0.69987362337E+03  0.10703474821E+04  0.80005071048E+03 0.  0.
         22    1    5    5    0    0 -0.23612425052E+03 -0.19120030791E+03  0.76356490579E+03  0.82179290869E+03  0.00000000000E+00 0. -1.
         22    1    5    5    0    0  0.23105662603E+03  0.65845516810E+02 -0.63691282417E+02  0.24855457343E+03  0.00000000000E+00 0. -1.
          5    1    4    4  502    0  0.36675455654E+02  0.13773937352E+03  0.50600021874E+02  0.15132638989E+03  0.47000000000E+01 0.  1.
         -5    1    4    4    0  502 -0.31607831166E+02 -0.12384582414E+02  0.13339564002E+02  0.36775900266E+02  0.47000000000E+01 0.  1.
<mgrwt>
<rscale>  0 0.10001426E+04</rscale>
<asrwt>0</asrwt>
<pdfrwt beam="1">  1        2 0.15555869E+00 0.10001426E+04</pdfrwt>
<pdfrwt beam="2">  1       -2 0.38048967E-01 0.10001426E+04</pdfrwt>
<totfact> 0.19525252E+02</totfact>
</mgrwt>
</event>
<event>
 9    1  0.4307774E-036  0.9934124E+03  0.7818608E-02  0.8687337E-01
          1   -1    0    0  501    0  0.00000000000E+00  0.00000000000E+00  0.19321175018E+04  0.19321175018E+04  0.00000000000E+00 0. -1.
         -1   -1    0    0    0  501 -0.00000000000E+00 -0.00000000000E+00 -0.12769257241E+03  0.12769257241E+03  0.00000000000E+00 0. -1.
         36    2    1    2    0    0  0.28421709430E-13 -0.28421709430E-13  0.18044249294E+04  0.20598100742E+04  0.99341240984E+03 0.  0.
         25    2    3    3    0    0 -0.11492172486E+03  0.53070731191E+02  0.38975162638E+03  0.42883937870E+03  0.12638582636E+03 0.  0.
         35    2    3    3    0    0  0.11492172486E+03 -0.53070731191E+02  0.14146733030E+04  0.16309706955E+04  0.80171151297E+03 0.  0.
         22    1    5    5    0    0  0.31827927027E+03  0.24287319814E+03  0.45363135035E+03  0.60503759079E+03  0.00000000000E+00 0. -1.
         22    1    5    5    0    0 -0.20335754541E+03 -0.29594392933E+03  0.96104195263E+03  0.10259331047E+04  0.00000000000E+00 0. -1.
          5    1    4    4  502    0 -0.53430539026E+02 -0.14576414093E+02  0.43183834685E+02  0.70386276550E+02  0.47000000000E+01 0.  1.
         -5    1    4    4    0  502 -0.61491185830E+02  0.67647145284E+02  0.34656779169E+03  0.35845310215E+03  0.47000000000E+01 0.  1.
<mgrwt>
<rscale>  0 0.99341241E+03</rscale>
<asrwt>0</asrwt>
<pdfrwt beam="1">  1        1 0.29724883E+00 0.99341241E+03</pdfrwt>
<pdfrwt beam="2">  1       -1 0.19645013E-01 0.99341241E+03</pdfrwt>
<totfact> 0.73231988E+01</totfact>
</mgrwt>
</event>
<event>
 9    1  0.4307774E-036  0.9998690E+03  0.7818608E-02  0.8681163E-01
          2   -1    0    0  501    0  0.00000000000E+00  0.00000000000E+00  0.16133754402E+04  0.16133754402E+04  0.00000000000E+00 0. -1.
         -2   -1    0    0    0  501 -0.00000000000E+00 -0.00000000000E+00 -0.15491402761E+03  0.15491402761E+03  0.00000000000E+00 0. -1.
         36    2    1    2    0    0 -0.28421709430E-13 -0.71054273576E-14  0.14584614125E+04  0.17682894678E+04  0.99986896636E+03 0.  0.
         25    2    3    3    0    0 -0.52700926152E+02  0.36121114441E+02  0.52262220301E+02  0.14945900627E+03  0.12459748135E+03 0.  0.
         35    2    3    3    0    0  0.52700926152E+02 -0.36121114441E+02  0.14061991922E+04  0.16188304615E+04  0.79945842433E+03 0.  0.
         22    1    5    5    0    0 -0.23620933618E+03 -0.28355217491E+03  0.98202528757E+03  0.10490807175E+04  0.00000000000E+00 0.  1.
         22    1    5    5    0    0  0.28891026234E+03  0.24743106047E+03  0.42417390468E+03  0.56974974399E+03  0.00000000000E+00 0.  1.
          5    1    4    4  502    0 -0.36271730690E+02  0.63987992980E+02 -0.14506713517E+02  0.75117484183E+02  0.47000000000E+01 0. -1.
         -5    1    4    4    0  502 -0.16429195462E+02 -0.27866878540E+02  0.66768933818E+02  0.74341522088E+02  0.47000000000E+01 0. -1.
<mgrwt>
<rscale>  0 0.99986897E+03</rscale>
<asrwt>0</asrwt>
<pdfrwt beam="1">  1        2 0.24821160E+00 0.99986897E+03</pdfrwt>
<pdfrwt beam="2">  1       -2 0.23832928E-01 0.99986897E+03</pdfrwt>
<totfact> 0.20409646E+02</totfact>
</mgrwt>
</event>
<event>
 9    1  0.4307774E-036  0.9966947E+03  0.7818608E-02  0.8684192E-01
         -2   -1    0    0    0  501 -0.00000000000E+00  0.00000000000E+00  0.20088742933E+03  0.20088742933E+03  0.00000000000E+00 0. -1.
          2   -1    0    0  501    0  0.00000000000E+00 -0.00000000000E+00 -0.12362650347E+04  0.12362650347E+04  0.00000000000E+00 0. -1.
         36    2    1    2    0    0  0.28421709430E-13  0.35527136788E-13 -0.10353776054E+04  0.14371524641E+04  0.99669474725E+03 0.  0.
         25    2    3    3    0    0 -0.12682076042E+03  0.16456812237E+02 -0.26925811793E+03  0.32293674315E+03  0.12423314398E+03 0.  0.
         35    2    3    3    0    0  0.12682076042E+03 -0.16456812237E+02 -0.76611948749E+03  0.11142157209E+04  0.79886373788E+03 0.  0.
         22    1    5    5    0    0  0.10036906110E+03  0.38865058546E+03 -0.41660624483E+03  0.57851878901E+03  0.00000000000E+00 0. -1.
         22    1    5    5    0    0  0.26451699324E+02 -0.40510739770E+03 -0.34951324266E+03  0.53569693192E+03  0.00000000000E+00 0. -1.
          5    1    4    4  502    0 -0.33870043160E+02  0.64909667728E+02 -0.11091373559E+03  0.13298267380E+03  0.47000000000E+01 0.  1.
         -5    1    4    4    0  502 -0.92950717260E+02 -0.48452855491E+02 -0.15834438234E+03  0.18995406935E+03  0.47000000000E+01 0.  1.
<mgrwt>
<rscale>  0 0.99669475E+03</rscale>
<asrwt>0</asrwt>
<pdfrwt beam="1">  1        2 0.19019462E+00 0.99669475E+03</pdfrwt>
<pdfrwt beam="2">  1       -2 0.30905759E-01 0.99669475E+03</pdfrwt>
<totfact> 0.21025497E+02</totfact>
</mgrwt>
</event>
<event>
 9    1  0.4307774E-036  0.1000828E+04  0.7818608E-02  0.8680250E-01
         -2   -1    0    0    0  501 -0.00000000000E+00  0.00000000000E+00  0.22839676869E+03  0.22839676869E+03  0.00000000000E+00 0.  1.
          2   -1    0    0  501    0  0.00000000000E+00 -0.00000000000E+00 -0.10963996717E+04  0.10963996717E+04  0.00000000000E+00 0.  1.
         36    2    1    2    0    0 -0.71054273576E-14 -0.14210854715E-13 -0.86800290297E+03  0.13247964404E+04  0.10008279417E+04 0.  0.
         25    2    3    3    0    0  0.13023983597E+02 -0.10426900468E+03 -0.28749336857E+03  0.33069258374E+03  0.12515389921E+03 0.  0.
         35    2    3    3    0    0 -0.13023983597E+02  0.10426900468E+03 -0.58050953440E+03  0.99410385661E+03  0.80013093223E+03 0.  0.
         22    1    5    5    0    0  0.48325294693E+02 -0.34574746571E+03 -0.29986449732E+03  0.46021229982E+03  0.00000000000E+00 0. -1.
         22    1    5    5    0    0 -0.61349278291E+02  0.45001647039E+03 -0.28064503708E+03  0.53389155679E+03  0.00000000000E+00 0. -1.
          5    1    4    4  502    0  0.47469461267E+02 -0.11304986350E+03 -0.18396596925E+03  0.22113161066E+03  0.47000000000E+01 0.  1.
         -5    1    4    4    0  502 -0.34445477670E+02  0.87808588219E+01 -0.10352739932E+03  0.10956097308E+03  0.47000000000E+01 0.  1.
<mgrwt>
<rscale>  0 0.10008279E+04</rscale>
<asrwt>0</asrwt>
<pdfrwt beam="1">  1        2 0.16867687E+00 0.10008279E+04</pdfrwt>
<pdfrwt beam="2">  1       -2 0.35137964E-01 0.10008279E+04</pdfrwt>
<totfact> 0.20095015E+02</totfact>
</mgrwt>
</event>
<event>
 9    1  0.4307774E-036  0.1000078E+04  0.7818608E-02  0.8680963E-01
          2   -1    0    0  501    0  0.00000000000E+00  0.00000000000E+00  0.16627718198E+04  0.16627718198E+04  0.00000000000E+00 0. -1.
         -2   -1    0    0    0  501 -0.00000000000E+00 -0.00000000000E+00 -0.15037493408E+03  0.15037493408E+03  0.00000000000E+00 0. -1.
         36    2    1    2    0    0  0.00000000000E+00  0.28421709430E-13  0.15123968857E+04  0.18131467539E+04  0.10000784025E+04 0.  0.
         25    2    3    3    0    0  0.14088551906E+02 -0.11498463242E+03  0.43407705563E+03  0.46615408805E+03  0.12432534170E+03 0.  0.
         35    2    3    3    0    0 -0.14088551906E+02  0.11498463242E+03  0.10783198301E+04  0.13469926659E+04  0.79887147458E+03 0.  0.
         22    1    5    5    0    0  0.24979545914E+02  0.43918645549E+03  0.82031619314E+03  0.93082080828E+03  0.00000000000E+00 0.  1.
         22    1    5    5    0    0 -0.39068097819E+02 -0.32420182307E+03  0.25800363696E+03  0.41617185757E+03  0.00000000000E+00 0.  1.
          5    1    4    4  502    0  0.68474099434E+02 -0.76756279603E+02  0.27733475596E+03  0.29583252968E+03  0.47000000000E+01 0.  1.
         -5    1    4    4    0  502 -0.54385547529E+02 -0.38228352814E+02  0.15674229967E+03  0.17032155837E+03  0.47000000000E+01 0.  1.
<mgrwt>
<rscale>  0 0.10000784E+04</rscale>
<asrwt>0</asrwt>
<pdfrwt beam="1">  1        2 0.25581104E+00 0.10000784E+04</pdfrwt>
<pdfrwt beam="2">  1       -2 0.23134606E-01 0.10000784E+04</pdfrwt>
<totfact> 0.20171478E+02</totfact>
</mgrwt>
</event>
<event>
 9    1  0.4307774E-036  0.1000108E+04  0.7818608E-02  0.8680935E-01
          2   -1    0    0  501    0  0.00000000000E+00  0.00000000000E+00  0.65177513892E+03  0.65177513892E+03  0.00000000000E+00 0. -1.
         -2   -1    0    0    0  501 -0.00000000000E+00 -0.00000000000E+00 -0.38365097863E+03  0.38365097863E+03  0.00000000000E+00 0. -1.
         36    2    1    2    0    0 -0.71054273576E-14  0.14210854715E-13  0.26812416028E+03  0.10354261176E+04  0.10001083339E+04 0.  0.
         25    2    3    3    0    0  0.25042216041E+02  0.77038732770E+02 -0.65602749668E+02  0.16343120383E+03  0.12587278773E+03 0.  0.
         35    2    3    3    0    0 -0.25042216041E+02 -0.77038732770E+02  0.33372690995E+03  0.87199491372E+03  0.80152317508E+03 0.  0.
         22    1    5    5    0    0  0.31502972835E+03  0.15623492177E+03  0.17073745672E+02  0.35205765624E+03  0.00000000000E+00 0. -1.
         22    1    5    5    0    0 -0.34007194440E+03 -0.23327365454E+03  0.31665316428E+03  0.51993725748E+03  0.00000000000E+00 0. -1.
          5    1    4    4  502    0  0.73890137321E+01  0.44092372604E+01 -0.85404838463E+02  0.85965779994E+02  0.47000000000E+01 0. -1.
         -5    1    4    4    0  502  0.17653202309E+02  0.72629495509E+02  0.19802088795E+02  0.77465423838E+02  0.47000000000E+01 0. -1.
<mgrwt>
<rscale>  0 0.10001083E+04</rscale>
<asrwt>0</asrwt>
<pdfrwt beam="1">  1        2 0.10027310E+00 0.10001083E+04</pdfrwt>
<pdfrwt beam="2">  1       -2 0.59023228E-01 0.10001083E+04</pdfrwt>
<totfact> 0.14538008E+02</totfact>
</mgrwt>
</event>
<event>
 9    1  0.4307774E-036  0.9990707E+03  0.7818608E-02  0.8681923E-01
         -1   -1    0    0    0  501 -0.00000000000E+00  0.00000000000E+00  0.12448989220E+03  0.12448989220E+03  0.00000000000E+00 0. -1.
          1   -1    0    0  501    0  0.00000000000E+00 -0.00000000000E+00 -0.20044642789E+04  0.20044642789E+04  0.00000000000E+00 0. -1.
         36    2    1    2    0    0  0.00000000000E+00  0.71054273576E-14 -0.18799743867E+04  0.21289541712E+04  0.99907065218E+03 0.  0.
         25    2    3    3    0    0  0.10578236822E+03 -0.57896020377E+02 -0.50719970909E+03  0.53617167757E+03  0.12524641442E+03 0.  0.
         35    2    3    3    0    0 -0.10578236822E+03  0.57896020377E+02 -0.13727746777E+04  0.15927824936E+04  0.79868886161E+03 0.  0.
         22    1    5    5    0    0 -0.31467117106E+03  0.33489624513E+03 -0.82613307989E+03  0.94534084148E+03  0.00000000000E+00 0.  1.
         22    1    5    5    0    0  0.20888880284E+03 -0.27700022475E+03 -0.54664159777E+03  0.64744165210E+03  0.00000000000E+00 0.  1.
          5    1    4    4  502    0  0.20837741788E+02  0.13990185647E+02 -0.11309521541E+02  0.27927263646E+02  0.47000000000E+01 0.  1.
         -5    1    4    4    0  502  0.84944626429E+02 -0.71886206024E+02 -0.49589018755E+03  0.50824441392E+03  0.47000000000E+01 0.  1.
<mgrwt>
<rscale>  0 0.99907065E+03</rscale>
<asrwt>0</asrwt>
<pdfrwt beam="1">  1        1 0.30837910E+00 0.99907065E+03</pdfrwt>
<pdfrwt beam="2">  1       -1 0.19152293E-01 0.99907065E+03</pdfrwt>
<totfact> 0.67925651E+01</totfact>
</mgrwt>
</event>
<event>
 9    1  0.4307774E-036  0.1001244E+04  0.7818608E-02  0.8679854E-01
          2   -1    0    0  501    0  0.00000000000E+00  0.00000000000E+00  0.19933116649E+04  0.19933116649E+04  0.00000000000E+00 0. -1.
         -2   -1    0    0    0  501 -0.00000000000E+00 -0.00000000000E+00 -0.12573164274E+03  0.12573164274E+03  0.00000000000E+00 0. -1.
         36    2    1    2    0    0  0.42632564146E-13 -0.71054273576E-14  0.18675800222E+04  0.21190433076E+04  0.10012439266E+04 0.  0.
         25    2    3    3    0    0 -0.87280275231E+02  0.32807044506E+02  0.12663663765E+03  0.20086039525E+03  0.12495563922E+03 0.  0.
         35    2    3    3    0    0  0.87280275231E+02 -0.32807044506E+02  0.17409433845E+04  0.19181829124E+04  0.79990478725E+03 0.  0.
         22    1    5    5    0    0  0.43980954207E+03 -0.21876299541E+01  0.11236540794E+04  0.12066630471E+04  0.00000000000E+00 0. -1.
         22    1    5    5    0    0 -0.35252926683E+03 -0.30619414552E+02  0.61728930509E+03  0.71151986529E+03  0.00000000000E+00 0. -1.
          5    1    4    4  502    0 -0.10004664135E+03  0.64393905913E+02  0.11205057158E+03  0.16350329096E+03  0.47000000000E+01 0. -1.
         -5    1    4    4    0  502  0.12766366122E+02 -0.31586861407E+02  0.14586066072E+02  0.37357104291E+02  0.47000000000E+01 0. -1.
<mgrwt>
<rscale>  0 0.10012439E+04</rscale>
<asrwt>0</asrwt>
<pdfrwt beam="1">  1        2 0.30666331E+00 0.10012439E+04</pdfrwt>
<pdfrwt beam="2">  1       -2 0.19343331E-01 0.10012439E+04</pdfrwt>
<totfact> 0.17914481E+02</totfact>
</mgrwt>
</event>
<event>
 9    1  0.4307774E-036  0.1000314E+04  0.7818608E-02  0.8680739E-01
         -2   -1    0    0    0  501 -0.00000000000E+00  0.00000000000E+00  0.75690044784E+03  0.75690044784E+03  0.00000000000E+00 0. -1.
          2   -1    0    0  501    0  0.00000000000E+00 -0.00000000000E+00 -0.33050170311E+03  0.33050170311E+03  0.00000000000E+00 0. -1.
         36    2    1    2    0    0  0.00000000000E+00 -0.17763568394E-14  0.42639874473E+03  0.10874021510E+04  0.10003137250E+04 0.  0.
         25    2    3    3    0    0  0.55337000062E+01 -0.15774960364E+02  0.23161949884E+03  0.26370211002E+03  0.12494694625E+03 0.  0.
         35    2    3    3    0    0 -0.55337000062E+01  0.15774960364E+02  0.19477924589E+03  0.82370004094E+03  0.80016456532E+03 0.  0.
         22    1    5    5    0    0  0.37544856748E+03 -0.12157708156E+03  0.11349328084E+03  0.41063772157E+03  0.00000000000E+00 0. -1.
         22    1    5    5    0    0 -0.38098226749E+03  0.13735204193E+03  0.81285965055E+02  0.41306231936E+03  0.00000000000E+00 0. -1.
          5    1    4    4  502    0 -0.55310303842E+02 -0.14349251752E+01  0.15535408523E+03  0.16497960638E+03  0.47000000000E+01 0.  1.
         -5    1    4    4    0  502  0.60844003848E+02 -0.14340035189E+02  0.76265413606E+02  0.98722503646E+02  0.47000000000E+01 0.  1.
<mgrwt>
<rscale>  0 0.10003137E+04</rscale>
<asrwt>0</asrwt>
<pdfrwt beam="1">  1        2 0.50846416E-01 0.10003137E+04</pdfrwt>
<pdfrwt beam="2">  1       -2 0.11644622E+00 0.10003137E+04</pdfrwt>
<totfact> 0.65963801E+01</totfact>
</mgrwt>
</event>
<event>
 9    1  0.4307774E-036  0.9998289E+03  0.7818608E-02  0.8681201E-01
         -2   -1    0    0    0  501 -0.00000000000E+00  0.00000000000E+00  0.23121845439E+03  0.23121845439E+03  0.00000000000E+00 0.  1.
          2   -1    0    0  501    0  0.00000000000E+00 -0.00000000000E+00 -0.10808586382E+04  0.10808586382E+04  0.00000000000E+00 0.  1.
         36    2    1    2    0    0 -0.28421709430E-13 -0.17763568394E-14 -0.84964018381E+03  0.13120770926E+04  0.99982891285E+03 0.  0.
         25    2    3    3    0    0 -0.13111681714E+03  0.12064846533E+02 -0.11389534164E+03  0.21737639926E+03  0.13016593198E+03 0.  0.
         35    2    3    3    0    0  0.13111681714E+03 -0.12064846533E+02 -0.73574484216E+03  0.10947006933E+04  0.79981995158E+03 0.  0.
         22    1    5    5    0    0  0.40495101988E+03 -0.13608873844E+02 -0.12282039351E+03  0.42338561503E+03  0.00000000000E+00 0. -1.
         22    1    5    5    0    0 -0.27383420274E+03  0.15440273114E+01 -0.61292444865E+03  0.67131507831E+03  0.00000000000E+00 0. -1.
          5    1    4    4  502    0 -0.86811493588E+02 -0.56241345212E+02 -0.66289775641E+02  0.12294612106E+03  0.47000000000E+01 0. -1.
         -5    1    4    4    0  502 -0.44305323554E+02  0.68306191745E+02 -0.47605566001E+02  0.94430278196E+02  0.47000000000E+01 0. -1.
<mgrwt>
<rscale>  0 0.99982891E+03</rscale>
<asrwt>0</asrwt>
<pdfrwt beam="1">  1        2 0.16628594E+00 0.99982891E+03</pdfrwt>
<pdfrwt beam="2">  1       -2 0.35572070E-01 0.99982891E+03</pdfrwt>
<totfact> 0.20071640E+02</totfact>
</mgrwt>
</event>
<event>
 9    1  0.4307774E-036  0.9997623E+03  0.7818608E-02  0.8681264E-01
         -2   -1    0    0    0  501 -0.00000000000E+00  0.00000000000E+00  0.26110411579E+03  0.26110411579E+03  0.00000000000E+00 0. -1.
          2   -1    0    0  501    0  0.00000000000E+00 -0.00000000000E+00 -0.95701742393E+03  0.95701742393E+03  0.00000000000E+00 0. -1.
         36    2    1    2    0    0 -0.10658141036E-13  0.00000000000E+00 -0.69591330814E+03  0.12181215397E+04  0.99976234830E+03 0.  0.
         25    2    3    3    0    0  0.14285197755E+01  0.13865941962E+03 -0.12127148757E+03  0.22263314984E+03  0.12502107978E+03 0.  0.
         35    2    3    3    0    0 -0.14285197755E+01 -0.13865941962E+03 -0.57464182057E+03  0.99548838988E+03  0.80097155824E+03 0.  0.
         22    1    5    5    0    0 -0.15082845043E+03 -0.44556190347E+03 -0.30671020580E+03  0.56155657028E+03  0.00000000000E+00 0.  1.
         22    1    5    5    0    0  0.14939993066E+03  0.30690248384E+03 -0.26793161478E+03  0.43393181960E+03  0.00000000000E+00 0.  1.
          5    1    4    4  502    0 -0.25363166902E+02  0.12788546740E+02 -0.83661550583E+02  0.88477015145E+02  0.47000000000E+01 0. -1.
         -5    1    4    4    0  502  0.26791686677E+02  0.12587087288E+03 -0.37609936985E+02  0.13415613469E+03  0.47000000000E+01 0. -1.
<mgrwt>
<rscale>  0 0.99976235E+03</rscale>
<asrwt>0</asrwt>
<pdfrwt beam="1">  1        2 0.14723345E+00 0.99976235E+03</pdfrwt>
<pdfrwt beam="2">  1       -2 0.40169864E-01 0.99976235E+03</pdfrwt>
<totfact> 0.19051591E+02</totfact>
</mgrwt>
</event>
<event>
 9    1  0.4307774E-036  0.1001421E+04  0.7818608E-02  0.8679686E-01
         -2   -1    0    0    0  501 -0.00000000000E+00  0.00000000000E+00  0.29219228895E+03  0.29219228895E+03  0.00000000000E+00 0. -1.
          2   -1    0    0  501    0  0.00000000000E+00 -0.00000000000E+00 -0.85803397138E+03  0.85803397138E+03  0.00000000000E+00 0. -1.
         36    2    1    2    0    0 -0.14210854715E-13  0.00000000000E+00 -0.56584168244E+03  0.11502262603E+04  0.10014208108E+04 0.  0.
         25    2    3    3    0    0 -0.48346502036E+02 -0.60822576371E+02 -0.24136842789E+03  0.28212897954E+03  0.12369831470E+03 0.  0.
         35    2    3    3    0    0  0.48346502036E+02  0.60822576371E+02 -0.32447325454E+03  0.86809728079E+03  0.80141950684E+03 0.  0.
         22    1    5    5    0    0 -0.32865693350E+03 -0.32281067190E+02  0.43531278177E+02  0.33309521074E+03  0.00000000000E+00 0.  1.
         22    1    5    5    0    0  0.37700343554E+03  0.93103643560E+02 -0.36800453272E+03  0.53500207005E+03  0.00000000000E+00 0.  1.
          5    1    4    4  502    0 -0.44491539823E+02 -0.97690094491E+02 -0.16184467912E+03  0.19426436069E+03  0.47000000000E+01 0.  1.
         -5    1    4    4    0  502 -0.38549622128E+01  0.36867518120E+02 -0.79523748778E+02  0.87864618850E+02  0.47000000000E+01 0.  1.
<mgrwt>
<rscale>  0 0.10014208E+04</rscale>
<asrwt>0</asrwt>
<pdfrwt beam="1">  1        2 0.13200522E+00 0.10014208E+04</pdfrwt>
<pdfrwt beam="2">  1       -2 0.44952660E-01 0.10014208E+04</pdfrwt>
<totfact> 0.17795063E+02</totfact>
</mgrwt>
</event>
<event>
 9    1  0.4307774E-036  0.9999491E+03  0.7818608E-02  0.8681086E-01
          2   -1    0    0  501    0  0.00000000000E+00  0.00000000000E+00  0.20012229201E+04  0.20012229201E+04  0.00000000000E+00 0. -1.
         -2   -1    0    0    0  501 -0.00000000000E+00 -0.00000000000E+00 -0.12491090432E+03  0.12491090432E+03  0.00000000000E+00 0. -1.
         36    2    1    2    0    0 -0.18651746814E-13 -0.35527136788E-13  0.18763120158E+04  0.21261338244E+04  0.99994912809E+03 0.  0.
         25    2    3    3    0    0 -0.26396134359E+01  0.58722489739E+02  0.62533212135E+03  0.64031330894E+03  0.12452137670E+03 0.  0.
         35    2    3    3    0    0  0.26396134359E+01 -0.58722489739E+02  0.12509798944E+04  0.14858205155E+04  0.79953524599E+03 0.  0.
         22    1    5    5    0    0  0.23724817205E+03 -0.33119102827E+03  0.87713396199E+03  0.96712883301E+03  0.00000000000E+00 0. -1.
         22    1    5    5    0    0 -0.23460855862E+03  0.27246853853E+03  0.37384593245E+03  0.51869168248E+03  0.00000000000E+00 0. -1.
          5    1    4    4  502    0  0.48673897704E+01  0.82989314081E+02  0.23844825134E+03  0.25256796373E+03  0.47000000000E+01 0. -1.
         -5    1    4    4    0  502 -0.75070032062E+01 -0.24266824342E+02  0.38688387000E+03  0.38774534521E+03  0.47000000000E+01 0. -1.
<mgrwt>
<rscale>  0 0.99994913E+03</rscale>
<asrwt>0</asrwt>
<pdfrwt beam="1">  1        2 0.30788043E+00 0.99994913E+03</pdfrwt>
<pdfrwt beam="2">  1       -2 0.19217064E-01 0.99994913E+03</pdfrwt>
<totfact> 0.17930883E+02</totfact>
</mgrwt>
</event>
<event>
 9    1  0.4307774E-036  0.9998544E+03  0.7818608E-02  0.8681177E-01
          3   -1    0    0  501    0  0.00000000000E+00  0.00000000000E+00  0.93635146035E+03  0.93635146035E+03  0.00000000000E+00 0.  1.
         -3   -1    0    0    0  501 -0.00000000000E+00 -0.00000000000E+00 -0.26691602595E+03  0.26691602595E+03  0.00000000000E+00 0.  1.
         36    2    1    2    0    0  0.21316282073E-13 -0.28421709430E-13  0.66943543440E+03  0.12032674863E+04  0.99985441077E+03 0.  0.
         25    2    3    3    0    0  0.98859741962E+01  0.87082912623E+02  0.25718701366E+03  0.29894735717E+03  0.12467235545E+03 0.  0.
         35    2    3    3    0    0 -0.98859741962E+01 -0.87082912623E+02  0.41224842075E+03  0.90432012912E+03  0.80010309921E+03 0.  0.
         22    1    5    5    0    0 -0.31059511604E+03  0.15931151496E+03  0.37727126885E+03  0.51398744655E+03  0.00000000000E+00 0. -1.
         22    1    5    5    0    0  0.30070914184E+03 -0.24639442758E+03  0.34977151896E+02  0.39033268258E+03  0.00000000000E+00 0. -1.
          5    1    4    4  502    0  0.45268091427E+02  0.99228627355E+02  0.15148547891E+03  0.18672295228E+03  0.47000000000E+01 0.  1.
         -5    1    4    4    0  502 -0.35382117230E+02 -0.12145714733E+02  0.10570153475E+03  0.11222440489E+03  0.47000000000E+01 0.  1.
<mgrwt>
<rscale>  0 0.99985441E+03</rscale>
<asrwt>0</asrwt>
<pdfrwt beam="1">  1        3 0.14405407E+00 0.99985441E+03</pdfrwt>
<pdfrwt beam="2">  1       -3 0.41064005E-01 0.99985441E+03</pdfrwt>
<totfact> 0.88425624E+00</totfact>
</mgrwt>
</event>
<event>
 9    1  0.4307774E-036  0.1000368E+04  0.7818608E-02  0.8680687E-01
          2   -1    0    0  501    0  0.00000000000E+00  0.00000000000E+00  0.29284110051E+04  0.29284110051E+04  0.00000000000E+00 0. -1.
         -2   -1    0    0    0  501 -0.00000000000E+00 -0.00000000000E+00 -0.85433411257E+02  0.85433411257E+02  0.00000000000E+00 0. -1.
         36    2    1    2    0    0  0.00000000000E+00  0.71054273576E-14  0.28429775939E+04  0.30138444164E+04  0.10003682157E+04 0.  0.
         25    2    3    3    0    0  0.13435511944E+03  0.33474986419E+02  0.53737772434E+03  0.56902042826E+03  0.12584735329E+03 0.  0.
         35    2    3    3    0    0 -0.13435511944E+03 -0.33474986419E+02  0.23055998695E+04  0.24448239881E+04  0.80137488211E+03 0.  0.
         22    1    5    5    0    0 -0.39858136775E+03  0.18550113653E+03  0.16134194864E+04  0.16722440664E+04  0.00000000000E+00 0.  1.
         22    1    5    5    0    0  0.26422624831E+03 -0.21897612295E+03  0.69218038310E+03  0.77257992173E+03  0.00000000000E+00 0.  1.
          5    1    4    4  502    0  0.95128093238E+02  0.81194363651E+02  0.35867301988E+03  0.37988196062E+03  0.47000000000E+01 0.  1.
         -5    1    4    4    0  502  0.39227026198E+02 -0.47719377232E+02  0.17870470445E+03  0.18913846764E+03  0.47000000000E+01 0.  1.
<mgrwt>
<rscale>  0 0.10003682E+04</rscale>
<asrwt>0</asrwt>
<pdfrwt beam="1">  1        2 0.45052469E+00 0.10003682E+04</pdfrwt>
<pdfrwt beam="2">  1       -2 0.13143604E-01 0.10003682E+04</pdfrwt>
<totfact> 0.93032464E+01</totfact>
</mgrwt>
</event>
<event>
 9    1  0.4307774E-036  0.1001211E+04  0.7818608E-02  0.8679885E-01
         -2   -1    0    0    0  501 -0.00000000000E+00  0.00000000000E+00  0.12643930758E+03  0.12643930758E+03  0.00000000000E+00 0.  1.
          2   -1    0    0  501    0  0.00000000000E+00 -0.00000000000E+00 -0.19820260195E+04  0.19820260195E+04  0.00000000000E+00 0.  1.
         36    2    1    2    0    0  0.14210854715E-13  0.00000000000E+00 -0.18555867120E+04  0.21084653271E+04  0.10012112614E+04 0.  0.
         25    2    3    3    0    0  0.12755140331E+03  0.55764403326E+02 -0.33074672623E+03  0.38050886585E+03  0.12654868990E+03 0.  0.
         35    2    3    3    0    0 -0.12755140331E+03 -0.55764403326E+02 -0.15248399857E+04  0.17279564613E+04  0.80082302713E+03 0.  0.
         22    1    5    5    0    0 -0.46759642616E+03 -0.39307996247E+02 -0.80781266594E+03  0.93421241674E+03  0.00000000000E+00 0.  1.
         22    1    5    5    0    0  0.34004502285E+03 -0.16456407079E+02 -0.71702731978E+03  0.79374404452E+03  0.00000000000E+00 0.  1.
          5    1    4    4  502    0  0.79930314817E+02  0.66048836884E+02 -0.31076781754E+03  0.32764314505E+03  0.47000000000E+01 0.  1.
         -5    1    4    4    0  502  0.47621088493E+02 -0.10284433558E+02 -0.19978908683E+02  0.52865720794E+02  0.47000000000E+01 0.  1.
<mgrwt>
<rscale>  0 0.10012113E+04</rscale>
<asrwt>0</asrwt>
<pdfrwt beam="1">  1        2 0.30492708E+00 0.10012113E+04</pdfrwt>
<pdfrwt beam="2">  1       -2 0.19452201E-01 0.10012113E+04</pdfrwt>
<totfact> 0.18006351E+02</totfact>
</mgrwt>
</event>
<event>
 9    1  0.4307774E-036  0.9999174E+03  0.7818608E-02  0.8681117E-01
         -1   -1    0    0    0  501 -0.00000000000E+00  0.00000000000E+00  0.10410827086E+03  0.10410827086E+03  0.00000000000E+00 0.  1.
          1   -1    0    0  501    0  0.00000000000E+00 -0.00000000000E+00 -0.24009496483E+04  0.24009496483E+04  0.00000000000E+00 0.  1.
         36    2    1    2    0    0  0.00000000000E+00  0.00000000000E+00 -0.22968413774E+04  0.25050579191E+04  0.99991742921E+03 0.  0.
         25    2    3    3    0    0  0.98573839226E+02  0.87946042673E+02 -0.31556150126E+03  0.36413829797E+03  0.12476510238E+03 0.  0.
         35    2    3    3    0    0 -0.98573839226E+02 -0.87946042673E+02 -0.19812798762E+04  0.21409196212E+04  0.80038463780E+03 0.  0.
         22    1    5    5    0    0 -0.41225079960E+02 -0.65284719450E+02  0.60572850673E+02  0.98135987538E+02  0.00000000000E+00 0. -1.
         22    1    5    5    0    0 -0.57348759265E+02 -0.22661323223E+02 -0.20418527268E+04  0.20427836336E+04  0.00000000000E+00 0. -1.
          5    1    4    4  502    0  0.12688053605E+03  0.74676406542E+02 -0.28121368188E+03  0.31745623478E+03  0.47000000000E+01 0. -1.
         -5    1    4    4    0  502 -0.28306696823E+02  0.13269636131E+02 -0.34347819373E+02  0.46682063191E+02  0.47000000000E+01 0. -1.
<mgrwt>
<rscale>  0 0.99991743E+03</rscale>
<asrwt>0</asrwt>
<pdfrwt beam="1">  1        1 0.36937687E+00 0.99991743E+03</pdfrwt>
<pdfrwt beam="2">  1       -1 0.16016657E-01 0.99991743E+03</pdfrwt>
<totfact> 0.47924911E+01</totfact>
</mgrwt>
</event>
<event>
 9    1  0.4307774E-036  0.1000357E+04  0.7818608E-02  0.8680698E-01
         -2   -1    0    0    0  501 -0.00000000000E+00  0.00000000000E+00  0.12863628397E+03  0.12863628397E+03  0.00000000000E+00 0. -1.
          2   -1    0    0  501    0  0.00000000000E+00 -0.00000000000E+00 -0.19448510812E+04  0.19448510812E+04  0.00000000000E+00 0. -1.
         36    2    1    2    0    0  0.28421709430E-13  0.00000000000E+00 -0.18162147972E+04  0.20734873652E+04  0.10003567683E+04 0.  0.
         25    2    3    3    0    0  0.62234162230E+02  0.12983589085E+03 -0.33372117091E+03  0.38297130971E+03  0.12069281107E+03 0.  0.
         35    2    3    3    0    0 -0.62234162230E+02 -0.12983589085E+03 -0.14824936263E+04  0.16905160555E+04  0.79957909691E+03 0.  0.
         22    1    5    5    0    0 -0.19327535793E+03  0.30340625269E+03 -0.64503936981E+03  0.73857058346E+03  0.00000000000E+00 0.  1.
         22    1    5    5    0    0  0.13104119570E+03 -0.43324214355E+03 -0.83745425651E+03  0.95194547200E+03  0.00000000000E+00 0.  1.
          5    1    4    4  502    0 -0.28233181797E+02  0.71881231605E+02 -0.10704687510E+03  0.13208007980E+03  0.47000000000E+01 0.  1.
         -5    1    4    4    0  502  0.90467344026E+02  0.57954659248E+02 -0.22667429581E+03  0.25089122991E+03  0.47000000000E+01 0.  1.
<mgrwt>
<rscale>  0 0.10003568E+04</rscale>
<asrwt>0</asrwt>
<pdfrwt beam="1">  1        2 0.29920785E+00 0.10003568E+04</pdfrwt>
<pdfrwt beam="2">  1       -2 0.19790198E-01 0.10003568E+04</pdfrwt>
<totfact> 0.18349682E+02</totfact>
</mgrwt>
</event>
<event>
 9    1  0.4307774E-036  0.9975567E+03  0.7818608E-02  0.8683368E-01
          1   -1    0    0  501    0  0.00000000000E+00  0.00000000000E+00  0.80320988192E+03  0.80320988192E+03  0.00000000000E+00 0.  1.
         -1   -1    0    0    0  501 -0.00000000000E+00 -0.00000000000E+00 -0.30973202015E+03  0.30973202015E+03  0.00000000000E+00 0.  1.
         36    2    1    2    0    0 -0.42632564146E-13  0.14210854715E-13  0.49347786177E+03  0.11129419021E+04  0.99755665369E+03 0.  0.
         25    2    3    3    0    0  0.63480539152E+02 -0.76805505599E+02  0.19841591889E+03  0.25483075603E+03  0.12506387491E+03 0.  0.
         35    2    3    3    0    0 -0.63480539152E+02  0.76805505599E+02  0.29506194287E+03  0.85811114603E+03  0.79960260397E+03 0.  0.
         22    1    5    5    0    0 -0.33156049144E+03 -0.21675581480E+03  0.73159766600E+02  0.40282476858E+03  0.00000000000E+00 0.  1.
         22    1    5    5    0    0  0.26807995229E+03  0.29356132040E+03  0.22190217627E+03  0.45528637745E+03  0.00000000000E+00 0.  1.
          5    1    4    4  502    0  0.36603463294E+02 -0.69967872347E+02  0.30827968438E+02  0.84898588468E+02  0.47000000000E+01 0.  1.
         -5    1    4    4    0  502  0.26877075858E+02 -0.68376332523E+01  0.16758795046E+03  0.16993216756E+03  0.47000000000E+01 0.  1.
<mgrwt>
<rscale>  0 0.99755665E+03</rscale>
<asrwt>0</asrwt>
<pdfrwt beam="1">  1        1 0.12357075E+00 0.99755665E+03</pdfrwt>
<pdfrwt beam="2">  1       -1 0.47651080E-01 0.99755665E+03</pdfrwt>
<totfact> 0.10997961E+02</totfact>
</mgrwt>
</event>
<event>
 9    1  0.4307774E-036  0.1002151E+04  0.7818608E-02  0.8678992E-01
         -2   -1    0    0    0  501 -0.00000000000E+00  0.00000000000E+00  0.19292360158E+03  0.19292360158E+03  0.00000000000E+00 0.  1.
          2   -1    0    0  501    0  0.00000000000E+00 -0.00000000000E+00 -0.13014298725E+04  0.13014298725E+04  0.00000000000E+00 0.  1.
         36    2    1    2    0    0  0.00000000000E+00  0.71054273576E-14 -0.11085062710E+04  0.14943534741E+04  0.10021507635E+04 0.  0.
         25    2    3    3    0    0 -0.18666331321E+02 -0.53801500879E+02 -0.39842951933E+03  0.42257166803E+03  0.12875441480E+03 0.  0.
         35    2    3    3    0    0  0.18666331321E+02  0.53801500879E+02 -0.71007675164E+03  0.10717818061E+04  0.80078974346E+03 0.  0.
         22    1    5    5    0    0 -0.29230032193E+02 -0.17340414564E+03  0.11799588519E+03  0.21176973681E+03  0.00000000000E+00 0.  1.
         22    1    5    5    0    0  0.47896363514E+02  0.22720564652E+03 -0.82807263683E+03  0.86001206928E+03  0.00000000000E+00 0.  1.
          5    1    4    4  502    0  0.30046335712E+02 -0.36323341910E+02 -0.34426693605E+03  0.34751112316E+03  0.47000000000E+01 0. -1.
         -5    1    4    4    0  502 -0.48712667033E+02 -0.17478158969E+02 -0.54162583273E+02  0.75060544877E+02  0.47000000000E+01 0. -1.
<mgrwt>
<rscale>  0 0.10021508E+04</rscale>
<asrwt>0</asrwt>
<pdfrwt beam="1">  1        2 0.20021998E+00 0.10021508E+04</pdfrwt>
<pdfrwt beam="2">  1       -2 0.29680555E-01 0.10021508E+04</pdfrwt>
<totfact> 0.20740165E+02</totfact>
</mgrwt>
</event>
<event>
 9    1  0.4307774E-036  0.9993402E+03  0.7818608E-02  0.8681667E-01
          2   -1    0    0  501    0  0.00000000000E+00  0.00000000000E+00  0.72039057626E+03  0.72039057626E+03  0.00000000000E+00 0.  1.
         -2   -1    0    0    0  501 -0.00000000000E+00 -0.00000000000E+00 -0.34657618288E+03  0.34657618288E+03  0.00000000000E+00 0.  1.
         36    2    1    2    0    0  0.00000000000E+00 -0.71054273576E-14  0.37381439337E+03  0.10669667591E+04  0.99934021455E+03 0.  0.
         25    2    3    3    0    0 -0.98283402500E+02 -0.38307277873E+02  0.16167799988E+03  0.23413116830E+03  0.13247850232E+03 0.  0.
         35    2    3    3    0    0  0.98283402500E+02  0.38307277873E+02  0.21213639349E+03  0.83283559084E+03  0.79842732743E+03 0.  0.
         22    1    5    5    0    0  0.14019629733E+03  0.79189255235E+02 -0.28764056327E+03  0.32964076442E+03  0.00000000000E+00 0.  1.
         22    1    5    5    0    0 -0.41912894831E+02 -0.40881977361E+02  0.49977695676E+03  0.50319482642E+03  0.00000000000E+00 0.  1.
          5    1    4    4  502    0 -0.12292132404E+03 -0.50844287299E+02  0.15678625494E+03  0.20566675276E+03  0.47000000000E+01 0.  1.
         -5    1    4    4    0  502  0.24637921540E+02  0.12537009426E+02  0.48917449484E+01  0.28464415535E+02  0.47000000000E+01 0.  1.
<mgrwt>
<rscale>  0 0.99934021E+03</rscale>
<asrwt>0</asrwt>
<pdfrwt beam="1">  1        2 0.11082932E+00 0.99934021E+03</pdfrwt>
<pdfrwt beam="2">  1       -2 0.53319413E-01 0.99934021E+03</pdfrwt>
<totfact> 0.15851878E+02</totfact>
</mgrwt>
</event>
<event>
 9    1  0.4307774E-036  0.1000042E+04  0.7818608E-02  0.8680998E-01
         -2   -1    0    0    0  501 -0.00000000000E+00  0.00000000000E+00  0.41006895276E+03  0.41006895276E+03  0.00000000000E+00 0.  1.
          2   -1    0    0  501    0  0.00000000000E+00 -0.00000000000E+00 -0.60970452729E+03  0.60970452729E+03  0.00000000000E+00 0.  1.
         36    2    1    2    0    0 -0.71054273576E-14  0.28421709430E-13 -0.19963557454E+03  0.10197734800E+04  0.10000417931E+04 0.  0.
         25    2    3    3    0    0  0.58319880587E+02 -0.69364672013E+02  0.72264596994E+02  0.16960911618E+03  0.12382412575E+03 0.  0.
         35    2    3    3    0    0 -0.58319880587E+02  0.69364672013E+02 -0.27190017153E+03  0.85016436387E+03  0.80039807353E+03 0.  0.
         22    1    5    5    0    0 -0.72222067817E+02  0.28485641626E+03 -0.47184320906E+03  0.55587338388E+03  0.00000000000E+00 0. -1.
         22    1    5    5    0    0  0.13902187230E+02 -0.21549174424E+03  0.19994303753E+03  0.29429097999E+03  0.00000000000E+00 0. -1.
          5    1    4    4  502    0  0.53743817012E+02  0.10494391588E+02  0.70591211324E+02  0.89463619634E+02  0.47000000000E+01 0.  1.
         -5    1    4    4    0  502  0.45760635745E+01 -0.79859063601E+02  0.16733856697E+01  0.80145496546E+02  0.47000000000E+01 0.  1.
<mgrwt>
<rscale>  0 0.10000418E+04</rscale>
<asrwt>0</asrwt>
<pdfrwt beam="1">  1        2 0.93800696E-01 0.10000418E+04</pdfrwt>
<pdfrwt beam="2">  1       -2 0.63087532E-01 0.10000418E+04</pdfrwt>
<totfact> 0.13698221E+02</totfact>
</mgrwt>
</event>
<event>
 9    1  0.4307774E-036  0.9995793E+03  0.7818608E-02  0.8681439E-01
          2   -1    0    0  501    0  0.00000000000E+00  0.00000000000E+00  0.15417608542E+04  0.15417608542E+04  0.00000000000E+00 0. -1.
         -2   -1    0    0    0  501 -0.00000000000E+00 -0.00000000000E+00 -0.16201583778E+03  0.16201583778E+03  0.00000000000E+00 0. -1.
         36    2    1    2    0    0  0.00000000000E+00 -0.14210854715E-13  0.13797450164E+04  0.17037766920E+04  0.99957926439E+03 0.  0.
         25    2    3    3    0    0 -0.12955581420E+03 -0.29438167355E+02  0.18545650589E+03  0.26027648269E+03  0.12529332454E+03 0.  0.
         35    2    3    3    0    0  0.12955581420E+03  0.29438167355E+02  0.11942885105E+04  0.14435002093E+04  0.79982278859E+03 0.  0.
         22    1    5    5    0    0 -0.22660633746E+03  0.82311262271E+02  0.53120530584E+02  0.24687520500E+03  0.00000000000E+00 0. -1.
         22    1    5    5    0    0  0.35616215166E+03 -0.52873094917E+02  0.11411679800E+04  0.11966250043E+04  0.00000000000E+00 0. -1.
          5    1    4    4  502    0 -0.11488800471E+03 -0.66080426231E+02  0.17425351894E+03  0.21898003384E+03  0.47000000000E+01 0. -1.
         -5    1    4    4    0  502 -0.14667809489E+02  0.36642258876E+02  0.11202986946E+02  0.41296448845E+02  0.47000000000E+01 0. -1.
<mgrwt>
<rscale>  0 0.99957926E+03</rscale>
<asrwt>0</asrwt>
<pdfrwt beam="1">  1        2 0.23719397E+00 0.99957926E+03</pdfrwt>
<pdfrwt beam="2">  1       -2 0.24925515E-01 0.99957926E+03</pdfrwt>
<totfact> 0.20692583E+02</totfact>
</mgrwt>
</event>
<event>
 9    1  0.4307774E-036  0.1001565E+04  0.7818608E-02  0.8679549E-01
         -2   -1    0    0    0  501 -0.00000000000E+00  0.00000000000E+00  0.97574038270E+02  0.97574038270E+02  0.00000000000E+00 0. -1.
          2   -1    0    0  501    0  0.00000000000E+00 -0.00000000000E+00 -0.25701847906E+04  0.25701847906E+04  0.00000000000E+00 0. -1.
         36    2    1    2    0    0  0.71054273576E-14  0.28421709430E-13 -0.24726107524E+04  0.26677588289E+04  0.10015653930E+04 0.  0.
         25    2    3    3    0    0  0.65635594579E+01 -0.58299929381E+02 -0.12333024557E+03  0.18527246823E+03  0.12519415295E+03 0.  0.
         35    2    3    3    0    0 -0.65635594579E+01  0.58299929381E+02 -0.23492805068E+04  0.24824863607E+04  0.80011103559E+03 0.  0.
         22    1    5    5    0    0 -0.93623713984E+02  0.31220498368E+03 -0.20685939659E+04  0.20941151705E+04  0.00000000000E+00 0.  1.
         22    1    5    5    0    0  0.87060154526E+02 -0.25390505430E+03 -0.28068654089E+03  0.38837119015E+03  0.00000000000E+00 0.  1.
          5    1    4    4  502    0 -0.39118960165E+02  0.15409941811E+02 -0.74410719438E+02  0.85596755303E+02  0.47000000000E+01 0. -1.
         -5    1    4    4    0  502  0.45682519623E+02 -0.73709871192E+02 -0.48919526134E+02  0.99675712926E+02  0.47000000000E+01 0. -1.
<mgrwt>
<rscale>  0 0.10015654E+04</rscale>
<asrwt>0</asrwt>
<pdfrwt beam="1">  1        2 0.39541298E+00 0.10015654E+04</pdfrwt>
<pdfrwt beam="2">  1       -2 0.15011393E-01 0.10015654E+04</pdfrwt>
<totfact> 0.12597668E+02</totfact>
</mgrwt>
</event>
<event>
 9    1  0.4307774E-036  0.9996580E+03  0.7818608E-02  0.8681364E-01
         -2   -1    0    0    0  501 -0.00000000000E+00  0.00000000000E+00  0.16730434652E+03  0.16730434652E+03  0.00000000000E+00 0. -1.
          2   -1    0    0  501    0  0.00000000000E+00 -0.00000000000E+00 -0.14932608934E+04  0.14932608934E+04  0.00000000000E+00 0. -1.
         36    2    1    2    0    0  0.35527136788E-14 -0.28421709430E-13 -0.13259565468E+04  0.16605652399E+04  0.99965801742E+03 0.  0.
         25    2    3    3    0    0  0.24556265251E+02 -0.11328455278E+03 -0.39423170913E+03  0.42710986405E+03  0.11648088008E+03 0.  0.
         35    2    3    3    0    0 -0.24556265251E+02  0.11328455278E+03 -0.93172483772E+03  0.12334553758E+04  0.79991536484E+03 0.  0.
         22    1    5    5    0    0  0.92758588892E+02 -0.19995367991E+03  0.23204647013E+02  0.22163953971E+03  0.00000000000E+00 0.  1.
         22    1    5    5    0    0 -0.11731485414E+03  0.31323823269E+03 -0.95492948473E+03  0.10118158361E+04  0.00000000000E+00 0.  1.
          5    1    4    4  502    0  0.16192110933E+01 -0.58196894103E+02 -0.47600473414E+02  0.75348492997E+02  0.47000000000E+01 0. -1.
         -5    1    4    4    0  502  0.22937054158E+02 -0.55087658679E+02 -0.34663123571E+03  0.35176137105E+03  0.47000000000E+01 0. -1.
<mgrwt>
<rscale>  0 0.99965802E+03</rscale>
<asrwt>0</asrwt>
<pdfrwt beam="1">  1        2 0.22973244E+00 0.99965802E+03</pdfrwt>
<pdfrwt beam="2">  1       -2 0.25739131E-01 0.99965802E+03</pdfrwt>
<totfact> 0.20819256E+02</totfact>
</mgrwt>
</event>
<event>
 9    1  0.4307774E-036  0.9999803E+03  0.7818608E-02  0.8681057E-01
         -3   -1    0    0    0  501 -0.00000000000E+00  0.00000000000E+00  0.19457999905E+04  0.19457999905E+04  0.00000000000E+00 0. -1.
          3   -1    0    0  501    0  0.00000000000E+00 -0.00000000000E+00 -0.12847678605E+03  0.12847678605E+03  0.00000000000E+00 0. -1.
         36    2    1    2    0    0  0.14210854715E-13 -0.14210854715E-13  0.18173232045E+04  0.20742767766E+04  0.99998025796E+03 0.  0.
         25    2    3    3    0    0 -0.62334299538E+02  0.12503715669E+03  0.30966025306E+03  0.36173285096E+03  0.12426313888E+03 0.  0.
         35    2    3    3    0    0  0.62334299538E+02 -0.12503715669E+03  0.15076629514E+04  0.17125439256E+04  0.80014952769E+03 0.  0.
         22    1    5    5    0    0 -0.95689834263E+02 -0.23415123453E+03  0.14991288007E+04  0.15203192119E+04  0.00000000000E+00 0. -1.
         22    1    5    5    0    0  0.15802413380E+03  0.10911407784E+03  0.85341507522E+01  0.19222471375E+03  0.00000000000E+00 0. -1.
          5    1    4    4  502    0  0.13034307566E+02  0.99750366188E+02  0.12421093467E+03  0.15990770782E+03  0.47000000000E+01 0.  1.
         -5    1    4    4    0  502 -0.75368607104E+02  0.25286790499E+02  0.18544931839E+03  0.20182514313E+03  0.47000000000E+01 0.  1.
<mgrwt>
<rscale>  0 0.99998026E+03</rscale>
<asrwt>0</asrwt>
<pdfrwt beam="1">  1        3 0.19765661E-01 0.99998026E+03</pdfrwt>
<pdfrwt beam="2">  1       -3 0.29935382E+00 0.99998026E+03</pdfrwt>
<totfact> 0.16230362E+00</totfact>
</mgrwt>
</event>
<event>
 9    1  0.4307774E-036  0.9992200E+03  0.7818608E-02  0.8681781E-01
         -2   -1    0    0    0  501 -0.00000000000E+00  0.00000000000E+00  0.28168052962E+03  0.28168052962E+03  0.00000000000E+00 0.  1.
          2   -1    0    0  501    0  0.00000000000E+00 -0.00000000000E+00 -0.88614628603E+03  0.88614628603E+03  0.00000000000E+00 0.  1.
         36    2    1    2    0    0  0.00000000000E+00  0.14210854715E-13 -0.60446575641E+03  0.11678268156E+04  0.99922000614E+03 0.  0.
         25    2    3    3    0    0 -0.10601632664E+03  0.63129449680E+02 -0.71768438563E+02  0.18936666521E+03  0.12443567089E+03 0.  0.
         35    2    3    3    0    0  0.10601632664E+03 -0.63129449680E+02 -0.53269731785E+03  0.97846015043E+03  0.81141422505E+03 0.  0.
         22    1    5    5    0    0 -0.14239698189E+03 -0.14348156941E+03  0.14726125673E+03  0.25009945810E+03  0.00000000000E+00 0. -1.
         22    1    5    5    0    0  0.24841330853E+03  0.80352119731E+02 -0.67995857457E+03  0.72836069233E+03  0.00000000000E+00 0. -1.
          5    1    4    4  502    0  0.10683651358E+02  0.42103940918E+02  0.10539383113E+02  0.44944975732E+02  0.47000000000E+01 0.  1.
         -5    1    4    4    0  502 -0.11669997800E+03  0.21025508762E+02 -0.82307821676E+02  0.14442168948E+03  0.47000000000E+01 0.  1.
<mgrwt>
<rscale>  0 0.99922001E+03</rscale>
<asrwt>0</asrwt>
<pdfrwt beam="1">  1        2 0.13633020E+00 0.99922001E+03</pdfrwt>
<pdfrwt beam="2">  1       -2 0.43335467E-01 0.99922001E+03</pdfrwt>
<totfact> 0.18303875E+02</totfact>
</mgrwt>
</event>
<event>
 9    1  0.4307774E-036  0.9990704E+03  0.7818608E-02  0.8681924E-01
         -2   -1    0    0    0  501 -0.00000000000E+00  0.00000000000E+00  0.57262409553E+03  0.57262409553E+03  0.00000000000E+00 0. -1.
          2   -1    0    0  501    0  0.00000000000E+00 -0.00000000000E+00 -0.43577529439E+03  0.43577529439E+03  0.00000000000E+00 0. -1.
         36    2    1    2    0    0  0.00000000000E+00 -0.28421709430E-13  0.13684880114E+03  0.10083993899E+04  0.99907043557E+03 0.  0.
         25    2    3    3    0    0  0.52783401496E+02  0.38904518379E+02  0.14595158171E+03  0.20321103732E+03  0.12527255272E+03 0.  0.
         35    2    3    3    0    0 -0.52783401496E+02 -0.38904518379E+02 -0.91027805627E+01  0.80518835260E+03  0.80246231907E+03 0.  0.
         22    1    5    5    0    0 -0.54688050901E+02  0.29658929089E+03 -0.25034934523E+03  0.39195763169E+03  0.00000000000E+00 0.  1.
         22    1    5    5    0    0  0.19046494056E+01 -0.33549380927E+03  0.24124656466E+03  0.41323072092E+03  0.00000000000E+00 0.  1.
          5    1    4    4  502    0 -0.27314785597E+02 -0.80182142462E+00 -0.45478378321E+01  0.28098278573E+02  0.47000000000E+01 0.  1.
         -5    1    4    4    0  502  0.80098187093E+02  0.39706339803E+02  0.15049941954E+03  0.17511275875E+03  0.47000000000E+01 0.  1.
<mgrwt>
<rscale>  0 0.99907044E+03</rscale>
<asrwt>0</asrwt>
<pdfrwt beam="1">  1        2 0.67042352E-01 0.99907044E+03</pdfrwt>
<pdfrwt beam="2">  1       -2 0.88096016E-01 0.99907044E+03</pdfrwt>
<totfact> 0.95846669E+01</totfact>
</mgrwt>
</event>
<event>
 9    1  0.4307774E-036  0.9981758E+03  0.7818608E-02  0.8682777E-01
          2   -1    0    0  501    0  0.00000000000E+00  0.00000000000E+00  0.18189451663E+04  0.18189451663E+04  0.00000000000E+00 0. -1.
         -2   -1    0    0    0  501 -0.00000000000E+00 -0.00000000000E+00 -0.13694131498E+03  0.13694131498E+03  0.00000000000E+00 0. -1.
         36    2    1    2    0    0  0.14210854715E-13  0.28421709430E-13  0.16820038513E+04  0.19558864812E+04  0.99817582206E+03 0.  0.
         25    2    3    3    0    0 -0.79277175187E+02  0.52791572469E+02  0.51263522506E+03  0.53611362769E+03  0.12470415871E+03 0.  0.
         35    2    3    3    0    0  0.79277175187E+02 -0.52791572469E+02  0.11693686262E+04  0.14197728535E+04  0.79953746067E+03 0.  0.
         22    1    5    5    0    0  0.38425108797E+03 -0.23135747135E+03  0.59010395461E+03  0.74121377173E+03  0.00000000000E+00 0.  1.
         22    1    5    5    0    0 -0.30497391279E+03  0.17856589888E+03  0.57926467161E+03  0.67855908180E+03  0.00000000000E+00 0.  1.
          5    1    4    4  502    0 -0.47762447038E+02  0.30574112801E+02  0.48527704025E+03  0.48860200932E+03  0.47000000000E+01 0.  1.
         -5    1    4    4    0  502 -0.31514728148E+02  0.22217459668E+02  0.27358184810E+02  0.47511618374E+02  0.47000000000E+01 0.  1.
<mgrwt>
<rscale>  0 0.99817582E+03</rscale>
<asrwt>0</asrwt>
<pdfrwt beam="1">  1        2 0.27983770E+00 0.99817582E+03</pdfrwt>
<pdfrwt beam="2">  1       -2 0.21067896E-01 0.99817582E+03</pdfrwt>
<totfact> 0.19398898E+02</totfact>
</mgrwt>
</event>
<event>
 9    1  0.4307774E-036  0.9999622E+03  0.7818608E-02  0.8681074E-01
          2   -1    0    0  501    0  0.00000000000E+00  0.00000000000E+00  0.25765076800E+04  0.25765076800E+04  0.00000000000E+00 0. -1.
         -2   -1    0    0    0  501 -0.00000000000E+00 -0.00000000000E+00 -0.97023236085E+02  0.97023236085E+02  0.00000000000E+00 0. -1.
         36    2    1    2    0    0  0.00000000000E+00 -0.14210854715E-13  0.24794844440E+04  0.26735309161E+04  0.99996222512E+03 0.  0.
         25    2    3    3    0    0  0.11577014932E+03  0.77222063436E+02  0.51621861207E+03  0.54943730590E+03  0.12662433856E+03 0.  0.
         35    2    3    3    0    0 -0.11577014932E+03 -0.77222063436E+02  0.19632658319E+04  0.21240936102E+04  0.79874586934E+03 0.  0.
         22    1    5    5    0    0 -0.13848444560E+03 -0.27307033504E+01 -0.19431220147E+02  0.13986769009E+03  0.00000000000E+00 0. -1.
         22    1    5    5    0    0  0.22714296285E+02 -0.74491360085E+02  0.19826970520E+04  0.19842259201E+04  0.00000000000E+00 0. -1.
          5    1    4    4  502    0  0.54526158269E+02  0.23907363535E+02  0.55286021197E+02  0.81383647661E+02  0.47000000000E+01 0.  1.
         -5    1    4    4    0  502  0.61243991050E+02  0.53314699901E+02  0.46093259087E+03  0.46805365824E+03  0.47000000000E+01 0.  1.
<mgrwt>
<rscale>  0 0.99996223E+03</rscale>
<asrwt>0</asrwt>
<pdfrwt beam="1">  1        2 0.39638574E+00 0.99996223E+03</pdfrwt>
<pdfrwt beam="2">  1       -2 0.14926654E-01 0.99996223E+03</pdfrwt>
<totfact> 0.12604717E+02</totfact>
</mgrwt>
</event>
<event>
 9    1  0.4307774E-036  0.9997978E+03  0.7818608E-02  0.8681231E-01
          2   -1    0    0  501    0  0.00000000000E+00  0.00000000000E+00  0.23464947324E+03  0.23464947324E+03  0.00000000000E+00 0.  1.
         -2   -1    0    0    0  501 -0.00000000000E+00 -0.00000000000E+00 -0.10649881814E+04  0.10649881814E+04  0.00000000000E+00 0.  1.
         36    2    1    2    0    0  0.00000000000E+00  0.21316282073E-13 -0.83033870819E+03  0.12996376547E+04  0.99979781113E+03 0.  0.
         25    2    3    3    0    0 -0.68332419795E+02 -0.28153220537E+02 -0.31171910213E+03  0.34392299065E+03  0.12510915809E+03 0.  0.
         35    2    3    3    0    0  0.68332419795E+02  0.28153220537E+02 -0.51861960605E+03  0.95571466403E+03  0.79935117429E+03 0.  0.
         22    1    5    5    0    0  0.38745197420E+03  0.17967560474E+03 -0.17084528328E+03  0.45998963692E+03  0.00000000000E+00 0. -1.
         22    1    5    5    0    0 -0.31911955441E+03 -0.15152238421E+03 -0.34777432277E+03  0.49572502711E+03  0.00000000000E+00 0. -1.
          5    1    4    4  502    0 -0.14819870271E+02  0.41869860316E+02 -0.46808357152E+02  0.64697960223E+02  0.47000000000E+01 0. -1.
         -5    1    4    4    0  502 -0.53512549524E+02 -0.70023080853E+02 -0.26491074498E+03  0.27922503042E+03  0.47000000000E+01 0. -1.
<mgrwt>
<rscale>  0 0.99979781E+03</rscale>
<asrwt>0</asrwt>
<pdfrwt beam="1">  1        2 0.36099920E-01 0.99979781E+03</pdfrwt>
<pdfrwt beam="2">  1       -2 0.16384433E+00 0.99979781E+03</pdfrwt>
<totfact> 0.38145530E+01</totfact>
</mgrwt>
</event>
<event>
 9    1  0.4307774E-036  0.1000567E+04  0.7818608E-02  0.8680498E-01
         -2   -1    0    0    0  501 -0.00000000000E+00  0.00000000000E+00  0.63574584678E+03  0.63574584678E+03  0.00000000000E+00 0. -1.
          2   -1    0    0  501    0  0.00000000000E+00 -0.00000000000E+00 -0.39368490926E+03  0.39368490926E+03  0.00000000000E+00 0. -1.
         36    2    1    2    0    0  0.00000000000E+00  0.14210854715E-13  0.24206093753E+03  0.10294307560E+04  0.10005669313E+04 0.  0.
         25    2    3    3    0    0  0.39292472402E+02 -0.86724344807E+02 -0.61720739863E+02  0.16830959477E+03  0.12431274911E+03 0.  0.
         35    2    3    3    0    0 -0.39292472402E+02  0.86724344807E+02  0.30378167739E+03  0.86112116128E+03  0.80011332729E+03 0.  0.
         22    1    5    5    0    0  0.75737603166E+02  0.11450338111E+03 -0.25518261230E+03  0.28976779400E+03  0.00000000000E+00 0.  1.
         22    1    5    5    0    0 -0.11503007557E+03 -0.27779036302E+02  0.55896428969E+03  0.57135336727E+03  0.00000000000E+00 0.  1.
          5    1    4    4  502    0  0.39855420867E+02 -0.68259954367E+02  0.22212056338E+02  0.82239536656E+02  0.47000000000E+01 0.  1.
         -5    1    4    4    0  502 -0.56294846479E+00 -0.18464390441E+02 -0.83932796202E+02  0.86070058113E+02  0.47000000000E+01 0.  1.
<mgrwt>
<rscale>  0 0.10005669E+04</rscale>
<asrwt>0</asrwt>
<pdfrwt beam="1">  1        2 0.60566909E-01 0.10005669E+04</pdfrwt>
<pdfrwt beam="2">  1       -2 0.97807053E-01 0.10005669E+04</pdfrwt>
<totfact> 0.83846158E+01</totfact>
</mgrwt>
</event>
<event>
 9    1  0.4307774E-036  0.1000090E+04  0.7818608E-02  0.8680952E-01
          2   -1    0    0  501    0  0.00000000000E+00  0.00000000000E+00  0.13279206666E+04  0.13279206666E+04  0.00000000000E+00 0.  1.
         -2   -1    0    0    0  501 -0.00000000000E+00 -0.00000000000E+00 -0.18829825582E+03  0.18829825582E+03  0.00000000000E+00 0.  1.
         36    2    1    2    0    0 -0.14210854715E-13  0.71054273576E-14  0.11396224108E+04  0.15162189224E+04  0.10000902867E+04 0.  0.
         25    2    3    3    0    0  0.61032765242E+02  0.41673726200E+02  0.37953606089E+03  0.40517374103E+03  0.12106378904E+03 0.  0.
         35    2    3    3    0    0 -0.61032765242E+02 -0.41673726200E+02  0.76008634989E+03  0.11110451814E+04  0.80698726006E+03 0.  0.
         22    1    5    5    0    0  0.27455328868E+03  0.19097591180E+03  0.12710743259E+03  0.35778150683E+03  0.00000000000E+00 0. -1.
         22    1    5    5    0    0 -0.33558605392E+03 -0.23264963800E+03  0.63297891730E+03  0.75326367455E+03  0.00000000000E+00 0. -1.
          5    1    4    4  502    0  0.10814855542E+01 -0.32672100432E+02  0.37251941852E+02  0.49783862138E+02  0.47000000000E+01 0.  1.
         -5    1    4    4    0  502  0.59951279688E+02  0.74345826632E+02  0.34228411903E+03  0.35538987889E+03  0.47000000000E+01 0.  1.
<mgrwt>
<rscale>  0 0.10000903E+04</rscale>
<asrwt>0</asrwt>
<pdfrwt beam="1">  1        2 0.20429548E+00 0.10000903E+04</pdfrwt>
<pdfrwt beam="2">  1       -2 0.28968963E-01 0.10000903E+04</pdfrwt>
<totfact> 0.20923136E+02</totfact>
</mgrwt>
</event>
<event>
 9    1  0.4307774E-036  0.1001654E+04  0.7818608E-02  0.8679464E-01
          1   -1    0    0  501    0  0.00000000000E+00  0.00000000000E+00  0.13839827477E+04  0.13839827477E+04  0.00000000000E+00 0. -1.
         -1   -1    0    0    0  501 -0.00000000000E+00 -0.00000000000E+00 -0.18123630463E+03  0.18123630463E+03  0.00000000000E+00 0. -1.
         36    2    1    2    0    0  0.00000000000E+00  0.14210854715E-13  0.12027464430E+04  0.15652190523E+04  0.10016544691E+04 0.  0.
         25    2    3    3    0    0  0.73924005757E+02  0.10565761853E+03  0.31405310452E+03  0.36169840296E+03  0.12477215740E+03 0.  0.
         35    2    3    3    0    0 -0.73924005757E+02 -0.10565761853E+03  0.88869333852E+03  0.12035206493E+04  0.80128510061E+03 0.  0.
         22    1    5    5    0    0 -0.35963835229E+03 -0.24679127765E+03  0.28543797696E+03  0.52126818228E+03  0.00000000000E+00 0.  1.
         22    1    5    5    0    0  0.28571434654E+03  0.14113365912E+03  0.60325536156E+03  0.68225246706E+03  0.00000000000E+00 0.  1.
          5    1    4    4  502    0  0.20424161920E+02 -0.12580117897E+02  0.30027400129E+01  0.24627468486E+02  0.47000000000E+01 0. -1.
         -5    1    4    4    0  502  0.53499843837E+02  0.11823773643E+03  0.31105036450E+03  0.33707093447E+03  0.47000000000E+01 0. -1.
<mgrwt>
<rscale>  0 0.10016545E+04</rscale>
<asrwt>0</asrwt>
<pdfrwt beam="1">  1        1 0.21292042E+00 0.10016545E+04</pdfrwt>
<pdfrwt beam="2">  1       -1 0.27882509E-01 0.10016545E+04</pdfrwt>
<totfact> 0.99516713E+01</totfact>
</mgrwt>
</event>
<event>
 9    1  0.4307774E-036  0.9986371E+03  0.7818608E-02  0.8682337E-01
         -4   -1    0    0    0  501 -0.00000000000E+00  0.00000000000E+00  0.14311108379E+04  0.14311108379E+04  0.00000000000E+00 0.  1.
          4   -1    0    0  501    0  0.00000000000E+00 -0.00000000000E+00 -0.17421363637E+03  0.17421363637E+03  0.00000000000E+00 0.  1.
         36    2    1    2    0    0 -0.14210854715E-13  0.00000000000E+00  0.12568972016E+04  0.16053244743E+04  0.99863711753E+03 0.  0.
         25    2    3    3    0    0  0.34296859025E+02 -0.69783216921E+02  0.51448368773E+02  0.15633073886E+03  0.12548463397E+03 0.  0.
         35    2    3    3    0    0 -0.34296859025E+02  0.69783216921E+02  0.12054488328E+04  0.14489937354E+04  0.80026869548E+03 0.  0.
         22    1    5    5    0    0  0.36923881681E+03  0.77084789027E+02  0.75632734998E+03  0.84516887594E+03  0.00000000000E+00 0. -1.
         22    1    5    5    0    0 -0.40353567583E+03 -0.73015721064E+01  0.44912148280E+03  0.60382485949E+03  0.00000000000E+00 0. -1.
          5    1    4    4  502    0  0.24041826431E+02 -0.21023839136E+02  0.88406735398E+02  0.94116162767E+02  0.47000000000E+01 0.  1.
         -5    1    4    4    0  502  0.10255032594E+02 -0.48759377785E+02 -0.36958366625E+02  0.62214576098E+02  0.47000000000E+01 0.  1.
<mgrwt>
<rscale>  0 0.99863712E+03</rscale>
<asrwt>0</asrwt>
<pdfrwt beam="1">  1        4 0.26802099E-01 0.99863712E+03</pdfrwt>
<pdfrwt beam="2">  1       -4 0.22017089E+00 0.99863712E+03</pdfrwt>
<totfact> 0.22173727E+00</totfact>
</mgrwt>
</event>
<event>
 9    1  0.4307774E-036  0.9996761E+03  0.7818608E-02  0.8681346E-01
         -2   -1    0    0    0  501 -0.00000000000E+00  0.00000000000E+00  0.75392025088E+02  0.75392025088E+02  0.00000000000E+00 0. -1.
          2   -1    0    0  501    0  0.00000000000E+00 -0.00000000000E+00 -0.33138527458E+04  0.33138527458E+04  0.00000000000E+00 0. -1.
         36    2    1    2    0    0  0.00000000000E+00 -0.14210854715E-13 -0.32384607207E+04  0.33892447709E+04  0.99967608624E+03 0.  0.
         25    2    3    3    0    0  0.75512415003E+02 -0.11725040890E+03 -0.66135987827E+03  0.68719687679E+03  0.12406802844E+03 0.  0.
         35    2    3    3    0    0 -0.75512415003E+02  0.11725040890E+03 -0.25771008424E+04  0.27020478941E+04  0.80010267258E+03 0.  0.
         22    1    5    5    0    0  0.11571335679E+03 -0.31389058613E+03 -0.91132017679E+03  0.97078388204E+03  0.00000000000E+00 0. -1.
         22    1    5    5    0    0 -0.19122577179E+03  0.43114099503E+03 -0.16657806656E+04  0.17312640121E+04  0.00000000000E+00 0. -1.
          5    1    4    4  502    0  0.10050095153E+03 -0.45277249349E+02 -0.39113439541E+03  0.40639718975E+03  0.47000000000E+01 0.  1.
         -5    1    4    4    0  502 -0.24988536527E+02 -0.71973159552E+02 -0.27022548286E+03  0.28079968704E+03  0.47000000000E+01 0.  1.
<mgrwt>
<rscale>  0 0.99967609E+03</rscale>
<asrwt>0</asrwt>
<pdfrwt beam="1">  1        2 0.50982333E+00 0.99967609E+03</pdfrwt>
<pdfrwt beam="2">  1       -2 0.11598777E-01 0.99967609E+03</pdfrwt>
<totfact> 0.62145168E+01</totfact>
</mgrwt>
</event>
<event>
 9    1  0.4307774E-036  0.9993900E+03  0.7818608E-02  0.8681619E-01
          1   -1    0    0  501    0  0.00000000000E+00  0.00000000000E+00  0.22510301728E+04  0.22510301728E+04  0.00000000000E+00 0. -1.
         -1   -1    0    0    0  501 -0.00000000000E+00 -0.00000000000E+00 -0.11092480005E+03  0.11092480005E+03  0.00000000000E+00 0. -1.
         36    2    1    2    0    0  0.00000000000E+00  0.00000000000E+00  0.21401053728E+04  0.23619549729E+04  0.99938995757E+03 0.  0.
         25    2    3    3    0    0 -0.96107174139E+02 -0.91582068320E+02  0.51895432228E+03  0.55010146624E+03  0.12519652705E+03 0.  0.
         35    2    3    3    0    0  0.96107174139E+02  0.91582068320E+02  0.16211510505E+04  0.18118535066E+04  0.79815946829E+03 0.  0.
         22    1    5    5    0    0 -0.10277183544E+03 -0.30963256873E+03  0.43321378513E+03  0.54231776792E+03  0.00000000000E+00 0. -1.
         22    1    5    5    0    0  0.19887900958E+03  0.40121463705E+03  0.11879372653E+04  0.12695357387E+04  0.00000000000E+00 0. -1.
          5    1    4    4  502    0 -0.26147609494E+02 -0.10349729844E+03  0.24948336785E+03  0.27140270651E+03  0.47000000000E+01 0.  1.
         -5    1    4    4    0  502 -0.69959564645E+02  0.11915230116E+02  0.26947095443E+03  0.27869875973E+03  0.47000000000E+01 0.  1.
<mgrwt>
<rscale>  0 0.99938996E+03</rscale>
<asrwt>0</asrwt>
<pdfrwt beam="1">  1        1 0.34631230E+00 0.99938996E+03</pdfrwt>
<pdfrwt beam="2">  1       -1 0.17065356E-01 0.99938996E+03</pdfrwt>
<totfact> 0.55097380E+01</totfact>
</mgrwt>
</event>
<event>
 9    1  0.4307774E-036  0.1001062E+04  0.7818608E-02  0.8680027E-01
         -2   -1    0    0    0  501 -0.00000000000E+00  0.00000000000E+00  0.20923549498E+03  0.20923549498E+03  0.00000000000E+00 0. -1.
          2   -1    0    0  501    0  0.00000000000E+00 -0.00000000000E+00 -0.11973658559E+04  0.11973658559E+04  0.00000000000E+00 0. -1.
         36    2    1    2    0    0  0.14210854715E-13 -0.71054273576E-14 -0.98813036097E+03  0.14066013509E+04  0.10010623108E+04 0.  0.
         25    2    3    3    0    0 -0.75056738532E+02  0.22143764294E+02 -0.23173427035E+02  0.15014069412E+03  0.12602126811E+03 0.  0.
         35    2    3    3    0    0  0.75056738532E+02 -0.22143764294E+02 -0.96495693393E+03  0.12564606568E+04  0.80089177636E+03 0.  0.
         22    1    5    5    0    0  0.29026371585E+03 -0.66059678195E+02 -0.99149660790E+03  0.10352209568E+04  0.00000000000E+00 0. -1.
         22    1    5    5    0    0 -0.21520697732E+03  0.43915913900E+02  0.26539673966E+02  0.22123970005E+03  0.00000000000E+00 0. -1.
          5    1    4    4  502    0  0.26384513809E+02 -0.22902000139E+02  0.48071791267E+01  0.35578689555E+02  0.47000000000E+01 0. -1.
         -5    1    4    4    0  502 -0.10144125234E+03  0.45045764433E+02 -0.27980606162E+02  0.11456200457E+03  0.47000000000E+01 0. -1.
<mgrwt>
<rscale>  0 0.10010623E+04</rscale>
<asrwt>0</asrwt>
<pdfrwt beam="1">  1        2 0.18421013E+00 0.10010623E+04</pdfrwt>
<pdfrwt beam="2">  1       -2 0.32190076E-01 0.10010623E+04</pdfrwt>
<totfact> 0.20567770E+02</totfact>
</mgrwt>
</event>
<event>
 9    1  0.4307774E-036  0.1002014E+04  0.7818608E-02  0.8679122E-01
         -2   -1    0    0    0  501 -0.00000000000E+00  0.00000000000E+00  0.12467059475E+03  0.12467059475E+03  0.00000000000E+00 0. -1.
          2   -1    0    0  501    0  0.00000000000E+00 -0.00000000000E+00 -0.20133718369E+04  0.20133718369E+04  0.00000000000E+00 0. -1.
         36    2    1    2    0    0  0.00000000000E+00 -0.42632564146E-13 -0.18887012422E+04  0.21380424317E+04  0.10020144996E+04 0.  0.
         25    2    3    3    0    0  0.65751046304E+02 -0.12449648459E+03 -0.30716853589E+03  0.36022533960E+03  0.12484875284E+03 0.  0.
         35    2    3    3    0    0 -0.65751046304E+02  0.12449648459E+03 -0.15815327063E+04  0.17778170921E+04  0.79972828950E+03 0.  0.
         22    1    5    5    0    0  0.57871319451E+02  0.30826352725E+03 -0.18565229698E+03  0.36447533143E+03  0.00000000000E+00 0.  1.
         22    1    5    5    0    0 -0.12362236576E+03 -0.18376704266E+03 -0.13958804093E+04  0.14133417606E+04  0.00000000000E+00 0.  1.
          5    1    4    4  502    0 -0.71214775978E+01 -0.64419155983E+02 -0.38798763185E+02  0.75683400594E+02  0.47000000000E+01 0. -1.
         -5    1    4    4    0  502  0.72872523902E+02 -0.60077328607E+02 -0.26836977270E+03  0.28454193901E+03  0.47000000000E+01 0. -1.
<mgrwt>
<rscale>  0 0.10020145E+04</rscale>
<asrwt>0</asrwt>
<pdfrwt beam="1">  1        2 0.30974950E+00 0.10020145E+04</pdfrwt>
<pdfrwt beam="2">  1       -2 0.19180092E-01 0.10020145E+04</pdfrwt>
<totfact> 0.17705454E+02</totfact>
</mgrwt>
</event>
<event>
 9    1  0.4307774E-036  0.1001614E+04  0.7818608E-02  0.8679503E-01
         -3   -1    0    0    0  501 -0.00000000000E+00  0.00000000000E+00  0.79206774188E+03  0.79206774188E+03  0.00000000000E+00 0. -1.
          3   -1    0    0  501    0  0.00000000000E+00 -0.00000000000E+00 -0.31664907912E+03  0.31664907912E+03  0.00000000000E+00 0. -1.
         36    2    1    2    0    0  0.28421709430E-13 -0.17763568394E-14  0.47541866276E+03  0.11087168210E+04  0.10016137401E+04 0.  0.
         25    2    3    3    0    0  0.11949027061E+03  0.12324492139E+02  0.16832168116E+03  0.24251296338E+03  0.12669069099E+03 0.  0.
         35    2    3    3    0    0 -0.11949027061E+03 -0.12324492139E+02  0.30709698160E+03  0.86620385762E+03  0.80098111649E+03 0.  0.
         22    1    5    5    0    0  0.17913408523E+03  0.29911669556E+03  0.25422985835E+03  0.43150045067E+03  0.00000000000E+00 0. -1.
         22    1    5    5    0    0 -0.29862435584E+03 -0.31144118770E+03  0.52867123243E+02  0.43470340695E+03  0.00000000000E+00 0. -1.
          5    1    4    4  502    0  0.18477424690E+01  0.11615137534E+02 -0.18059542423E+02  0.22058165035E+02  0.47000000000E+01 0.  1.
         -5    1    4    4    0  502  0.11764252814E+03  0.70935460518E+00  0.18638122358E+03  0.22045479835E+03  0.47000000000E+01 0.  1.
<mgrwt>
<rscale>  0 0.10016137E+04</rscale>
<asrwt>0</asrwt>
<pdfrwt beam="1">  1        3 0.48715243E-01 0.10016137E+04</pdfrwt>
<pdfrwt beam="2">  1       -3 0.12185657E+00 0.10016137E+04</pdfrwt>
<totfact> 0.79437775E+00</totfact>
</mgrwt>
</event>
<event>
 9    1  0.4307774E-036  0.9997760E+03  0.7818608E-02  0.8681251E-01
         -1   -1    0    0    0  501 -0.00000000000E+00  0.00000000000E+00  0.27603963094E+03  0.27603963094E+03  0.00000000000E+00 0. -1.
          1   -1    0    0  501    0  0.00000000000E+00 -0.00000000000E+00 -0.90526132145E+03  0.90526132145E+03  0.00000000000E+00 0. -1.
         36    2    1    2    0    0 -0.88817841970E-15  0.00000000000E+00 -0.62922169051E+03  0.11813009524E+04  0.99977597706E+03 0.  0.
         25    2    3    3    0    0  0.55898941254E+01  0.10266180029E+03 -0.22983696489E+03  0.28150852043E+03  0.12590204323E+03 0.  0.
         35    2    3    3    0    0 -0.55898941254E+01 -0.10266180029E+03 -0.39938472563E+03  0.89979243196E+03  0.79971718088E+03 0.  0.
         22    1    5    5    0    0 -0.72249318470E+00 -0.80780563075E+02 -0.64656785263E+03  0.65159497345E+03  0.00000000000E+00 0.  1.
         22    1    5    5    0    0 -0.48674009407E+01 -0.21881237211E+02  0.24718312701E+03  0.24819745851E+03  0.00000000000E+00 0.  1.
          5    1    4    4  502    0  0.55622213193E+02  0.95489161626E+02 -0.14118984816E+03  0.17935627620E+03  0.47000000000E+01 0.  1.
         -5    1    4    4    0  502 -0.50032319068E+02  0.71726386607E+01 -0.88647116732E+02  0.10215224423E+03  0.47000000000E+01 0.  1.
<mgrwt>
<rscale>  0 0.99977598E+03</rscale>
<asrwt>0</asrwt>
<pdfrwt beam="1">  1        1 0.13927097E+00 0.99977598E+03</pdfrwt>
<pdfrwt beam="2">  1       -1 0.42467635E-01 0.99977598E+03</pdfrwt>
<totfact> 0.11086300E+02</totfact>
</mgrwt>
</event>
<event>
 9    1  0.4307774E-036  0.9947499E+03  0.7818608E-02  0.8686054E-01
         -2   -1    0    0    0  501 -0.00000000000E+00  0.00000000000E+00  0.65291337690E+03  0.65291337690E+03  0.00000000000E+00 0. -1.
          2   -1    0    0  501    0  0.00000000000E+00 -0.00000000000E+00 -0.37888922013E+03  0.37888922013E+03  0.00000000000E+00 0. -1.
         36    2    1    2    0    0  0.00000000000E+00 -0.14210854715E-13  0.27402415677E+03  0.10318025970E+04  0.99474989859E+03 0.  0.
         25    2    3    3    0    0 -0.60163637395E+02  0.81450614345E+02  0.14103684051E+03  0.21423454689E+03  0.12550372448E+03 0.  0.
         35    2    3    3    0    0  0.60163637395E+02 -0.81450614345E+02  0.13298731626E+03  0.81756805014E+03  0.80029870953E+03 0.  0.
         22    1    5    5    0    0  0.88735385215E+02 -0.13697806452E+03  0.45820773999E+03  0.48640650873E+03  0.00000000000E+00 0.  1.
         22    1    5    5    0    0 -0.28571747819E+02  0.55527450176E+02 -0.32522042373E+03  0.33116154141E+03  0.00000000000E+00 0.  1.
          5    1    4    4  502    0 -0.16932421042E+02  0.40706565857E+01  0.12216382158E+03  0.12348832508E+03  0.47000000000E+01 0.  1.
         -5    1    4    4    0  502 -0.43231216354E+02  0.77379957760E+02  0.18873018936E+02  0.90746221817E+02  0.47000000000E+01 0.  1.
<mgrwt>
<rscale>  0 0.99474990E+03</rscale>
<asrwt>0</asrwt>
<pdfrwt beam="1">  1        2 0.58290649E-01 0.99474990E+03</pdfrwt>
<pdfrwt beam="2">  1       -2 0.10044821E+00 0.99474990E+03</pdfrwt>
<totfact> 0.82068217E+01</totfact>
</mgrwt>
</event>
<event>
 9    1  0.4307774E-036  0.1001344E+04  0.7818608E-02  0.8679759E-01
         -2   -1    0    0    0  501 -0.00000000000E+00  0.00000000000E+00  0.26761551173E+03  0.26761551173E+03  0.00000000000E+00 0.  1.
          2   -1    0    0  501    0  0.00000000000E+00 -0.00000000000E+00 -0.93668812828E+03  0.93668812828E+03  0.00000000000E+00 0.  1.
         36    2    1    2    0    0  0.14210854715E-13 -0.28421709430E-13 -0.66907261656E+03  0.12043036400E+04  0.10013436429E+04 0.  0.
         25    2    3    3    0    0  0.11553256354E+03 -0.66825540069E+02 -0.18373929627E+03  0.25835382338E+03  0.12317931247E+03 0.  0.
         35    2    3    3    0    0 -0.11553256354E+03  0.66825540069E+02 -0.48533332029E+03  0.94594981663E+03  0.80091147935E+03 0.  0.
         22    1    5    5    0    0  0.20817233137E+03  0.28740089229E+03 -0.41828472294E+03  0.54854088442E+03  0.00000000000E+00 0. -1.
         22    1    5    5    0    0 -0.32370489491E+03 -0.22057535222E+03 -0.67048597347E+02  0.39740893221E+03  0.00000000000E+00 0. -1.
          5    1    4    4  502    0  0.29956674792E+02 -0.87484457209E+02 -0.10673836235E+03  0.14130145298E+03  0.47000000000E+01 0. -1.
         -5    1    4    4    0  502  0.85575888745E+02  0.20658917140E+02 -0.77000933922E+02  0.11705237040E+03  0.47000000000E+01 0. -1.
<mgrwt>
<rscale>  0 0.10013436E+04</rscale>
<asrwt>0</asrwt>
<pdfrwt beam="1">  1        2 0.14410586E+00 0.10013436E+04</pdfrwt>
<pdfrwt beam="2">  1       -2 0.41171618E-01 0.10013436E+04</pdfrwt>
<totfact> 0.18726597E+02</totfact>
</mgrwt>
</event>
<event>
 9    1  0.4307774E-036  0.9997156E+03  0.7818608E-02  0.8681309E-01
          2   -1    0    0  501    0  0.00000000000E+00  0.00000000000E+00  0.24832330405E+03  0.24832330405E+03  0.00000000000E+00 0.  1.
         -2   -1    0    0    0  501 -0.00000000000E+00 -0.00000000000E+00 -0.10061794940E+04  0.10061794940E+04  0.00000000000E+00 0.  1.
         36    2    1    2    0    0  0.00000000000E+00  0.71054273576E-14 -0.75785618994E+03  0.12545027980E+04  0.99971559239E+03 0.  0.
         25    2    3    3    0    0 -0.10799793240E+03 -0.40790080807E+02 -0.42464570402E+02  0.17527462112E+03  0.12486219993E+03 0.  0.
         35    2    3    3    0    0  0.10799793240E+03  0.40790080807E+02 -0.71539161954E+03  0.10792281769E+04  0.79976303020E+03 0.  0.
         22    1    5    5    0    0  0.61405347664E+02 -0.37853985400E+03 -0.29709642032E+03  0.48510753525E+03  0.00000000000E+00 0. -1.
         22    1    5    5    0    0  0.46592584739E+02  0.41932993481E+03 -0.41829519921E+03  0.59412064168E+03  0.00000000000E+00 0. -1.
          5    1    4    4  502    0 -0.93034514720E+02 -0.34972172979E+02 -0.84177739728E+02  0.13033209765E+03  0.47000000000E+01 0.  1.
         -5    1    4    4    0  502 -0.14963417684E+02 -0.58179078279E+01  0.41713169326E+02  0.44942523466E+02  0.47000000000E+01 0.  1.
<mgrwt>
<rscale>  0 0.99971559E+03</rscale>
<asrwt>0</asrwt>
<pdfrwt beam="1">  1        2 0.38203585E-01 0.99971559E+03</pdfrwt>
<pdfrwt beam="2">  1       -2 0.15479684E+00 0.99971559E+03</pdfrwt>
<totfact> 0.42112403E+01</totfact>
</mgrwt>
</event>
<event>
 9    1  0.4307774E-036  0.9941386E+03  0.7818608E-02  0.8686640E-01
         -2   -1    0    0    0  501 -0.00000000000E+00  0.00000000000E+00  0.12187200895E+03  0.12187200895E+03  0.00000000000E+00 0. -1.
          2   -1    0    0  501    0  0.00000000000E+00 -0.00000000000E+00 -0.20273556180E+04  0.20273556180E+04  0.00000000000E+00 0. -1.
         36    2    1    2    0    0 -0.28421709430E-13  0.00000000000E+00 -0.19054836091E+04  0.21492276270E+04  0.99413862622E+03 0.  0.
         25    2    3    3    0    0  0.11124812785E+03 -0.68164844694E+02 -0.40236068218E+03  0.44101147096E+03  0.12479746373E+03 0.  0.
         35    2    3    3    0    0 -0.11124812785E+03  0.68164844694E+02 -0.15031229269E+04  0.17082161560E+04  0.80100019372E+03 0.  0.
         22    1    5    5    0    0  0.23412919126E+03 -0.12579421084E+03 -0.16532390668E+03  0.31300583988E+03  0.00000000000E+00 0.  1.
         22    1    5    5    0    0 -0.34537731910E+03  0.19395905553E+03 -0.13377990202E+04  0.13952103162E+04  0.00000000000E+00 0.  1.
          5    1    4    4  502    0  0.98142218047E+02 -0.73526783111E+02 -0.40722826527E+03  0.42531756704E+03  0.47000000000E+01 0. -1.
         -5    1    4    4    0  502  0.13105909800E+02  0.53619384173E+01  0.48675830875E+01  0.15693903925E+02  0.47000000000E+01 0. -1.
<mgrwt>
<rscale>  0 0.99413863E+03</rscale>
<asrwt>0</asrwt>
<pdfrwt beam="1">  1        2 0.31190086E+00 0.99413863E+03</pdfrwt>
<pdfrwt beam="2">  1       -2 0.18749540E-01 0.99413863E+03</pdfrwt>
<totfact> 0.18076427E+02</totfact>
</mgrwt>
</event>
<event>
 9    1  0.4307774E-036  0.9995866E+03  0.7818608E-02  0.8681432E-01
         -1   -1    0    0    0  501 -0.00000000000E+00  0.00000000000E+00  0.35310656333E+03  0.35310656333E+03  0.00000000000E+00 0.  1.
          1   -1    0    0  501    0  0.00000000000E+00 -0.00000000000E+00 -0.70741635676E+03  0.70741635676E+03  0.00000000000E+00 0.  1.
         36    2    1    2    0    0  0.28421709430E-13  0.00000000000E+00 -0.35430979343E+03  0.10605229201E+04  0.99958663172E+03 0.  0.
         25    2    3    3    0    0 -0.21304821235E+02 -0.81211014959E+02  0.47405368448E+02  0.16078192648E+03  0.12866403759E+03 0.  0.
         35    2    3    3    0    0  0.21304821235E+02  0.81211014959E+02 -0.40171516188E+03  0.89974099361E+03  0.80069323710E+03 0.  0.
         22    1    5    5    0    0 -0.35879364209E+03  0.54952436018E+02 -0.24832398193E+02  0.36382591418E+03  0.00000000000E+00 0.  1.
         22    1    5    5    0    0  0.38009846333E+03  0.26258578940E+02 -0.37688276369E+03  0.53591507943E+03  0.00000000000E+00 0.  1.
          5    1    4    4  502    0  0.15858456043E+02  0.21612345118E+02  0.43458170963E+02  0.51276570800E+02  0.47000000000E+01 0. -1.
         -5    1    4    4    0  502 -0.37163277279E+02 -0.10282336008E+03  0.39471974854E+01  0.10950535568E+03  0.47000000000E+01 0. -1.
<mgrwt>
<rscale>  0 0.99958663E+03</rscale>
<asrwt>0</asrwt>
<pdfrwt beam="1">  1        1 0.10883328E+00 0.99958663E+03</pdfrwt>
<pdfrwt beam="2">  1       -1 0.54324087E-01 0.99958663E+03</pdfrwt>
<totfact> 0.10544869E+02</totfact>
</mgrwt>
</event>
<event>
 9    1  0.4307774E-036  0.9993736E+03  0.7818608E-02  0.8681635E-01
         -2   -1    0    0    0  501 -0.00000000000E+00  0.00000000000E+00  0.19551721633E+03  0.19551721633E+03  0.00000000000E+00 0.  1.
          2   -1    0    0  501    0  0.00000000000E+00 -0.00000000000E+00 -0.12770583007E+04  0.12770583007E+04  0.00000000000E+00 0.  1.
         36    2    1    2    0    0  0.00000000000E+00  0.42632564146E-13 -0.10815410843E+04  0.14725755170E+04  0.99937357187E+03 0.  0.
         25    2    3    3    0    0 -0.43212944026E+02  0.63100958032E+02 -0.35974599235E+03  0.39149461149E+03  0.13417064649E+03 0.  0.
         35    2    3    3    0    0  0.43212944026E+02 -0.63100958032E+02 -0.72179509200E+03  0.10810809055E+04  0.80118579617E+03 0.  0.
         22    1    5    5    0    0  0.16928040302E+03 -0.35683905958E+03 -0.14330022133E+03  0.42014869120E+03  0.00000000000E+00 0.  1.
         22    1    5    5    0    0 -0.12606745900E+03  0.29373810154E+03 -0.57849487067E+03  0.66093221431E+03  0.00000000000E+00 0.  1.
          5    1    4    4  502    0 -0.78752943247E+02  0.49878266103E+02 -0.33035686431E+03  0.34328940458E+03  0.47000000000E+01 0. -1.
         -5    1    4    4    0  502  0.35539999221E+02  0.13222691929E+02 -0.29389128034E+02  0.48205206908E+02  0.47000000000E+01 0. -1.
<mgrwt>
<rscale>  0 0.99937357E+03</rscale>
<asrwt>0</asrwt>
<pdfrwt beam="1">  1        2 0.19647050E+00 0.99937357E+03</pdfrwt>
<pdfrwt beam="2">  1       -2 0.30079572E-01 0.99937357E+03</pdfrwt>
<totfact> 0.20912956E+02</totfact>
</mgrwt>
</event>
<event>
 9    1  0.4307774E-036  0.1000536E+04  0.7818608E-02  0.8680527E-01
         -2   -1    0    0    0  501 -0.00000000000E+00  0.00000000000E+00  0.40752310336E+03  0.40752310336E+03  0.00000000000E+00 0. -1.
          2   -1    0    0  501    0  0.00000000000E+00 -0.00000000000E+00 -0.61412042984E+03  0.61412042984E+03  0.00000000000E+00 0. -1.
         36    2    1    2    0    0 -0.14210854715E-13 -0.10658141036E-13 -0.20659732649E+03  0.10216435332E+04  0.10005363830E+04 0.  0.
         25    2    3    3    0    0  0.70182853075E+02  0.23537127053E+02 -0.16169936937E+03  0.21722092211E+03  0.12473417227E+03 0.  0.
         35    2    3    3    0    0 -0.70182853075E+02 -0.23537127053E+02 -0.44897957120E+02  0.80442261109E+03  0.79975013689E+03 0.  0.
         22    1    5    5    0    0  0.23798155871E+03 -0.16514039327E+03  0.22838895253E+03  0.36887407799E+03  0.00000000000E+00 0.  1.
         22    1    5    5    0    0 -0.30816441179E+03  0.14160326621E+03 -0.27328690965E+03  0.43554853310E+03  0.00000000000E+00 0.  1.
          5    1    4    4  502    0  0.60226980142E+02  0.41857840529E+02 -0.23181803680E+02  0.77063960271E+02  0.47000000000E+01 0. -1.
         -5    1    4    4    0  502  0.99558729324E+01 -0.18320713476E+02 -0.13851756569E+03  0.14015696184E+03  0.47000000000E+01 0. -1.
<mgrwt>
<rscale>  0 0.10005364E+04</rscale>
<asrwt>0</asrwt>
<pdfrwt beam="1">  1        2 0.94480066E-01 0.10005364E+04</pdfrwt>
<pdfrwt beam="2">  1       -2 0.62695862E-01 0.10005364E+04</pdfrwt>
<totfact> 0.13760509E+02</totfact>
</mgrwt>
</event>
<event>
 9    1  0.4307774E-036  0.1000646E+04  0.7818608E-02  0.8680423E-01
         -2   -1    0    0    0  501 -0.00000000000E+00  0.00000000000E+00  0.56612181375E+03  0.56612181375E+03  0.00000000000E+00 0.  1.
          2   -1    0    0  501    0  0.00000000000E+00 -0.00000000000E+00 -0.44217157427E+03  0.44217157427E+03  0.00000000000E+00 0.  1.
         36    2    1    2    0    0 -0.42632564146E-13  0.00000000000E+00  0.12395023948E+03  0.10082933880E+04  0.10006457387E+04 0.  0.
         25    2    3    3    0    0  0.12444241783E+03  0.36171069798E+02 -0.19712556794E+02  0.18113065670E+03  0.12500187302E+03 0.  0.
         35    2    3    3    0    0 -0.12444241783E+03 -0.36171069798E+02  0.14366279627E+03  0.82716273132E+03  0.80421696290E+03 0.  0.
         22    1    5    5    0    0 -0.44658045633E+03  0.45239587020E+02  0.19779956868E+03  0.49051543664E+03  0.00000000000E+00 0. -1.
         22    1    5    5    0    0  0.32213803850E+03 -0.81410656817E+02 -0.54136772403E+02  0.33664729469E+03  0.00000000000E+00 0. -1.
          5    1    4    4  502    0  0.29786171001E+02  0.33603639655E+02  0.47023753500E+02  0.65190060394E+02  0.47000000000E+01 0. -1.
         -5    1    4    4    0  502  0.94656246828E+02  0.25674301423E+01 -0.66736310294E+02  0.11594059631E+03  0.47000000000E+01 0. -1.
<mgrwt>
<rscale>  0 0.10006457E+04</rscale>
<asrwt>0</asrwt>
<pdfrwt beam="1">  1        2 0.68026396E-01 0.10006457E+04</pdfrwt>
<pdfrwt beam="2">  1       -2 0.87095663E-01 0.10006457E+04</pdfrwt>
<totfact> 0.96829995E+01</totfact>
</mgrwt>
</event>
<event>
 9    1  0.4307774E-036  0.9998250E+03  0.7818608E-02  0.8681205E-01
          1   -1    0    0  501    0  0.00000000000E+00  0.00000000000E+00  0.15926878168E+03  0.15926878168E+03  0.00000000000E+00 0. -1.
         -1   -1    0    0    0  501 -0.00000000000E+00 -0.00000000000E+00 -0.15691242523E+04  0.15691242523E+04  0.00000000000E+00 0. -1.
         36    2    1    2    0    0 -0.28421709430E-13  0.00000000000E+00 -0.14098554706E+04  0.17283930340E+04  0.99982500061E+03 0.  0.
         25    2    3    3    0    0 -0.11695949527E+03 -0.16483191633E+02 -0.13447625360E+03  0.21855971755E+03  0.12543232524E+03 0.  0.
         35    2    3    3    0    0  0.11695949527E+03  0.16483191633E+02 -0.12753792170E+04  0.15098333164E+04  0.79940807916E+03 0.  0.
         22    1    5    5    0    0 -0.38707809068E+02 -0.43898084108E+02  0.10456222103E+03  0.11982735221E+03  0.00000000000E+00 0. -1.
         22    1    5    5    0    0  0.15566730434E+03  0.60381275740E+02 -0.13799414380E+04  0.13900059642E+04  0.00000000000E+00 0. -1.
          5    1    4    4  502    0 -0.10847899933E+03  0.22937194935E+02 -0.13882643040E+03  0.17773203422E+03  0.47000000000E+01 0. -1.
         -5    1    4    4    0  502 -0.84804959365E+01 -0.39420386568E+02  0.43501768061E+01  0.40827683338E+02  0.47000000000E+01 0. -1.
<mgrwt>
<rscale>  0 0.99982500E+03</rscale>
<asrwt>0</asrwt>
<pdfrwt beam="1">  1        1 0.24502890E-01 0.99982500E+03</pdfrwt>
<pdfrwt beam="2">  1       -1 0.24140373E+00 0.99982500E+03</pdfrwt>
<totfact> 0.13527787E+01</totfact>
</mgrwt>
</event>
<event>
 9    1  0.4307774E-036  0.9936555E+03  0.7818608E-02  0.8687103E-01
          2   -1    0    0  501    0  0.00000000000E+00  0.00000000000E+00  0.25585726653E+04  0.25585726653E+04  0.00000000000E+00 0. -1.
         -2   -1    0    0    0  501 -0.00000000000E+00 -0.00000000000E+00 -0.96474809003E+02  0.96474809003E+02  0.00000000000E+00 0. -1.
         36    2    1    2    0    0 -0.14210854715E-13  0.14210854715E-13  0.24620978563E+04  0.26550474743E+04  0.99365549201E+03 0.  0.
         25    2    3    3    0    0 -0.68894290943E+02  0.96343471929E+02  0.61938230473E+03  0.64283175920E+03  0.12477877754E+03 0.  0.
         35    2    3    3    0    0  0.68894290943E+02 -0.96343471929E+02  0.18427155516E+04  0.20122157151E+04  0.79961427712E+03 0.  0.
         22    1    5    5    0    0 -0.26929980140E+03 -0.14754240261E+03  0.29031789537E+03  0.42258209141E+03  0.00000000000E+00 0.  1.
         22    1    5    5    0    0  0.33819409235E+03  0.51198930683E+02  0.15523976562E+04  0.15896336237E+04  0.00000000000E+00 0.  1.
          5    1    4    4  502    0 -0.17119397581E+01  0.39745207389E+02  0.45171273570E+03  0.45348549904E+03  0.47000000000E+01 0. -1.
         -5    1    4    4    0  502 -0.67182351185E+02  0.56598264540E+02  0.16766956903E+03  0.18934626017E+03  0.47000000000E+01 0. -1.
<mgrwt>
<rscale>  0 0.99365549E+03</rscale>
<asrwt>0</asrwt>
<pdfrwt beam="1">  1        2 0.39362651E+00 0.99365549E+03</pdfrwt>
<pdfrwt beam="2">  1       -2 0.14842280E-01 0.99365549E+03</pdfrwt>
<totfact> 0.13054250E+02</totfact>
</mgrwt>
</event>
<event>
 9    1  0.4307774E-036  0.9987414E+03  0.7818608E-02  0.8682237E-01
          2   -1    0    0  501    0  0.00000000000E+00  0.00000000000E+00  0.18410288358E+04  0.18410288358E+04  0.00000000000E+00 0. -1.
         -2   -1    0    0    0  501 -0.00000000000E+00 -0.00000000000E+00 -0.13545203876E+03  0.13545203876E+03  0.00000000000E+00 0. -1.
         36    2    1    2    0    0  0.28421709430E-13  0.10658141036E-13  0.17055767970E+04  0.19764808745E+04  0.99874142643E+03 0.  0.
         25    2    3    3    0    0  0.86563658544E+02  0.58852919817E+01  0.10847002294E+03  0.18801496750E+03  0.12671218759E+03 0.  0.
         35    2    3    3    0    0 -0.86563658544E+02 -0.58852919817E+01  0.15971067741E+04  0.17884659070E+04  0.80020769128E+03 0.  0.
         22    1    5    5    0    0  0.23139296963E+03 -0.27640815999E+03  0.51501056372E+03  0.62863348466E+03  0.00000000000E+00 0. -1.
         22    1    5    5    0    0 -0.31795662817E+03  0.27052286800E+03  0.10820962104E+04  0.11598324224E+04  0.00000000000E+00 0. -1.
          5    1    4    4  502    0 -0.26844414117E+02 -0.23388130097E+02  0.19581536128E+02  0.40904202179E+02  0.47000000000E+01 0.  1.
         -5    1    4    4    0  502  0.11340807266E+03  0.29273422079E+02  0.88888486811E+02  0.14711076532E+03  0.47000000000E+01 0.  1.
<mgrwt>
<rscale>  0 0.99874143E+03</rscale>
<asrwt>0</asrwt>
<pdfrwt beam="1">  1        2 0.28323519E+00 0.99874143E+03</pdfrwt>
<pdfrwt beam="2">  1       -2 0.20838776E-01 0.99874143E+03</pdfrwt>
<totfact> 0.19211875E+02</totfact>
</mgrwt>
</event>
<event>
 9    1  0.4307774E-036  0.9993156E+03  0.7818608E-02  0.8681690E-01
         -1   -1    0    0    0  501 -0.00000000000E+00  0.00000000000E+00  0.76578083349E+03  0.76578083349E+03  0.00000000000E+00 0.  1.
          1   -1    0    0  501    0  0.00000000000E+00 -0.00000000000E+00 -0.32601748164E+03  0.32601748164E+03  0.00000000000E+00 0.  1.
         36    2    1    2    0    0  0.00000000000E+00 -0.14210854715E-13  0.43976335186E+03  0.10917983151E+04  0.99931564347E+03 0.  0.
         25    2    3    3    0    0 -0.23607244564E+02  0.86528251001E+02 -0.34091305011E+02  0.15776292248E+03  0.12522971857E+03 0.  0.
         35    2    3    3    0    0  0.23607244564E+02 -0.86528251001E+02  0.47385465687E+03  0.93403539265E+03  0.79989964288E+03 0.  0.
         22    1    5    5    0    0 -0.19011252958E+03 -0.38417791696E+03  0.32759202797E+03  0.53949233782E+03  0.00000000000E+00 0.  1.
         22    1    5    5    0    0  0.21371977414E+03  0.29764966596E+03  0.14626262890E+03  0.39454305483E+03  0.00000000000E+00 0.  1.
          5    1    4    4  502    0 -0.54596059573E+00  0.29252814301E+02 -0.76947735022E+02  0.82456468167E+02  0.47000000000E+01 0.  1.
         -5    1    4    4    0  502 -0.23061283968E+02  0.57275436700E+02  0.42856430012E+02  0.75306454310E+02  0.47000000000E+01 0.  1.
<mgrwt>
<rscale>  0 0.99931564E+03</rscale>
<asrwt>0</asrwt>
<pdfrwt beam="1">  1        1 0.50156536E-01 0.99931564E+03</pdfrwt>
<pdfrwt beam="2">  1       -1 0.11781244E+00 0.99931564E+03</pdfrwt>
<totfact> 0.61227099E+01</totfact>
</mgrwt>
</event>
<event>
 9    1  0.4307774E-036  0.9999505E+03  0.7818608E-02  0.8681085E-01
         -1   -1    0    0    0  501 -0.00000000000E+00  0.00000000000E+00  0.13125782145E+04  0.13125782145E+04  0.00000000000E+00 0.  1.
          1   -1    0    0  501    0  0.00000000000E+00 -0.00000000000E+00 -0.19044599148E+03  0.19044599148E+03  0.00000000000E+00 0.  1.
         36    2    1    2    0    0  0.00000000000E+00  0.28421709430E-13  0.11221322230E+04  0.15030242060E+04  0.99995051767E+03 0.  0.
         25    2    3    3    0    0  0.99929703267E+02 -0.96360802521E+02  0.17123481335E+03  0.25287193394E+03  0.12390118568E+03 0.  0.
         35    2    3    3    0    0 -0.99929703267E+02  0.96360802521E+02  0.95089740966E+03  0.12501522720E+04  0.79962708164E+03 0.  0.
         22    1    5    5    0    0 -0.22586272593E+03  0.41211165890E+03  0.59140368260E+03  0.75538619670E+03  0.00000000000E+00 0. -1.
         22    1    5    5    0    0  0.12593302266E+03 -0.31575085638E+03  0.35949372706E+03  0.49476607533E+03  0.00000000000E+00 0. -1.
          5    1    4    4  502    0 -0.31426153078E+01 -0.29580056734E+02  0.11285905734E+03  0.11680801604E+03  0.47000000000E+01 0.  1.
         -5    1    4    4    0  502  0.10307231858E+03 -0.66780745787E+02  0.58375756009E+02  0.13606391790E+03  0.47000000000E+01 0.  1.
<mgrwt>
<rscale>  0 0.99995052E+03</rscale>
<asrwt>0</asrwt>
<pdfrwt beam="1">  1        1 0.29299384E-01 0.99995052E+03</pdfrwt>
<pdfrwt beam="2">  1       -1 0.20193510E+00 0.99995052E+03</pdfrwt>
<totfact> 0.23775842E+01</totfact>
</mgrwt>
</event>
<event>
 9    1  0.4307774E-036  0.9994763E+03  0.7818608E-02  0.8681537E-01
          1   -1    0    0  501    0  0.00000000000E+00  0.00000000000E+00  0.18898851295E+04  0.18898851295E+04  0.00000000000E+00 0. -1.
         -1   -1    0    0    0  501 -0.00000000000E+00 -0.00000000000E+00 -0.13214464480E+03  0.13214464480E+03  0.00000000000E+00 0. -1.
         36    2    1    2    0    0  0.00000000000E+00  0.14210854715E-13  0.17577404847E+04  0.20220297743E+04  0.99947626117E+03 0.  0.
         25    2    3    3    0    0  0.69018516699E+02 -0.11038915361E+03  0.20910801840E+03  0.27403257110E+03  0.12007649971E+03 0.  0.
         35    2    3    3    0    0 -0.69018516699E+02  0.11038915361E+03  0.15486324663E+04  0.17479972032E+04  0.80017647171E+03 0.  0.
         22    1    5    5    0    0  0.15066110348E+03  0.25377906661E+02 -0.26744949707E+02  0.15510673287E+03  0.00000000000E+00 0.  1.
         22    1    5    5    0    0 -0.21967962017E+03  0.85011246944E+02  0.15753774160E+04  0.15928904704E+04  0.00000000000E+00 0.  1.
          5    1    4    4  502    0  0.82914788922E+02 -0.30867818876E+02  0.14871268158E+03  0.17310469701E+03  0.47000000000E+01 0. -1.
         -5    1    4    4    0  502 -0.13896272223E+02 -0.79521334730E+02  0.60395336827E+02  0.10092787409E+03  0.47000000000E+01 0. -1.
<mgrwt>
<rscale>  0 0.99947626E+03</rscale>
<asrwt>0</asrwt>
<pdfrwt beam="1">  1        1 0.29075154E+00 0.99947626E+03</pdfrwt>
<pdfrwt beam="2">  1       -1 0.20329947E-01 0.99947626E+03</pdfrwt>
<totfact> 0.74056238E+01</totfact>
</mgrwt>
</event>
<event>
 9    1  0.4307774E-036  0.9988580E+03  0.7818608E-02  0.8682126E-01
          2   -1    0    0  501    0  0.00000000000E+00  0.00000000000E+00  0.34437540118E+03  0.34437540118E+03  0.00000000000E+00 0. -1.
         -2   -1    0    0    0  501 -0.00000000000E+00 -0.00000000000E+00 -0.72429483222E+03  0.72429483222E+03  0.00000000000E+00 0. -1.
         36    2    1    2    0    0  0.00000000000E+00 -0.28421709430E-13 -0.37991943104E+03  0.10686702334E+04  0.99885799474E+03 0.  0.
         25    2    3    3    0    0  0.73638202438E+02  0.11723213255E+03 -0.10200330000E+03  0.21168135181E+03  0.12344376749E+03 0.  0.
         35    2    3    3    0    0 -0.73638202438E+02 -0.11723213255E+03 -0.27791613104E+03  0.85698888159E+03  0.79876567873E+03 0.  0.
         22    1    5    5    0    0 -0.25609262401E+03 -0.37528465243E+03 -0.30023178594E+02  0.45532778707E+03  0.00000000000E+00 0. -1.
         22    1    5    5    0    0  0.18245442158E+03  0.25805251989E+03 -0.24789295245E+03  0.40166109452E+03  0.00000000000E+00 0. -1.
          5    1    4    4  502    0  0.79120709373E+02  0.62422956700E+02 -0.11691007694E+03  0.15442398863E+03  0.47000000000E+01 0. -1.
         -5    1    4    4    0  502 -0.54825069352E+01  0.54809175846E+02  0.14906776940E+02  0.57257363176E+02  0.47000000000E+01 0. -1.
<mgrwt>
<rscale>  0 0.99885799E+03</rscale>
<asrwt>0</asrwt>
<pdfrwt beam="1">  1        2 0.52980831E-01 0.99885799E+03</pdfrwt>
<pdfrwt beam="2">  1       -2 0.11142997E+00 0.99885799E+03</pdfrwt>
<totfact> 0.70522852E+01</totfact>
</mgrwt>
</event>
<event>
 9    1  0.4307774E-036  0.1000493E+04  0.7818608E-02  0.8680569E-01
          2   -1    0    0  501    0  0.00000000000E+00  0.00000000000E+00  0.42476241427E+03  0.42476241427E+03  0.00000000000E+00 0. -1.
         -2   -1    0    0    0  501 -0.00000000000E+00 -0.00000000000E+00 -0.58914456187E+03  0.58914456187E+03  0.00000000000E+00 0. -1.
         36    2    1    2    0    0 -0.28421709430E-13  0.00000000000E+00 -0.16438214760E+03  0.10139069761E+04  0.10004928115E+04 0.  0.
         25    2    3    3    0    0 -0.65130802700E+02 -0.10456862125E+03  0.40494017217E+02  0.18034322799E+03  0.12532875345E+03 0.  0.
         35    2    3    3    0    0  0.65130802700E+02  0.10456862125E+03 -0.20487616482E+03  0.83356374816E+03  0.79854721922E+03 0.  0.
         22    1    5    5    0    0 -0.31203378680E+03 -0.26731115796E+02  0.10258991422E+03  0.32955170635E+03  0.00000000000E+00 0.  1.
         22    1    5    5    0    0  0.37716458950E+03  0.13129973705E+03 -0.30746607904E+03  0.50401204181E+03  0.00000000000E+00 0.  1.
          5    1    4    4  502    0 -0.80321340810E+02 -0.11727693871E+02  0.14101134592E+02  0.82522655009E+02  0.47000000000E+01 0.  1.
         -5    1    4    4    0  502  0.15190538110E+02 -0.92840927380E+02  0.26392882625E+02  0.97820572980E+02  0.47000000000E+01 0.  1.
<mgrwt>
<rscale>  0 0.10004928E+04</rscale>
<asrwt>0</asrwt>
<pdfrwt beam="1">  1        2 0.65348064E-01 0.10004928E+04</pdfrwt>
<pdfrwt beam="2">  1       -2 0.90637624E-01 0.10004928E+04</pdfrwt>
<totfact> 0.92273004E+01</totfact>
</mgrwt>
</event>
<event>
 9    1  0.4307774E-036  0.9985975E+03  0.7818608E-02  0.8682375E-01
         -2   -1    0    0    0  501 -0.00000000000E+00  0.00000000000E+00  0.32544663993E+03  0.32544663993E+03  0.00000000000E+00 0. -1.
          2   -1    0    0  501    0  0.00000000000E+00 -0.00000000000E+00 -0.76602193486E+03  0.76602193486E+03  0.00000000000E+00 0. -1.
         36    2    1    2    0    0 -0.71054273576E-14 -0.14210854715E-13 -0.44057529492E+03  0.10914685748E+04  0.99859754619E+03 0.  0.
         25    2    3    3    0    0 -0.11306931008E+02  0.12422918135E+03 -0.14942650631E+03  0.23127266239E+03  0.12489206297E+03 0.  0.
         35    2    3    3    0    0  0.11306931008E+02 -0.12422918135E+03 -0.29114878861E+03  0.86019591240E+03  0.79975537161E+03 0.  0.
         22    1    5    5    0    0  0.37910703379E+03  0.69113871577E+02 -0.77908443947E+02  0.39315212825E+03  0.00000000000E+00 0. -1.
         22    1    5    5    0    0 -0.36780010278E+03 -0.19334305293E+03 -0.21324034467E+03  0.46704378415E+03  0.00000000000E+00 0. -1.
          5    1    4    4  502    0 -0.54341458428E+02  0.11891329837E+02 -0.41134130382E+02  0.69343381166E+02  0.47000000000E+01 0.  1.
         -5    1    4    4    0  502  0.43034527419E+02  0.11233785151E+03 -0.10829237593E+03  0.16192928122E+03  0.47000000000E+01 0.  1.
<mgrwt>
<rscale>  0 0.99859755E+03</rscale>
<asrwt>0</asrwt>
<pdfrwt beam="1">  1        2 0.11784953E+00 0.99859755E+03</pdfrwt>
<pdfrwt beam="2">  1       -2 0.50068715E-01 0.99859755E+03</pdfrwt>
<totfact> 0.16661121E+02</totfact>
</mgrwt>
</event>
<event>
 9    1  0.4307774E-036  0.9996381E+03  0.7818608E-02  0.8681383E-01
          2   -1    0    0  501    0  0.00000000000E+00  0.00000000000E+00  0.57960864017E+03  0.57960864017E+03  0.00000000000E+00 0.  1.
         -2   -1    0    0    0  501 -0.00000000000E+00 -0.00000000000E+00 -0.43101334867E+03  0.43101334867E+03  0.00000000000E+00 0.  1.
         36    2    1    2    0    0 -0.17763568394E-13 -0.14210854715E-13  0.14859529150E+03  0.10106219888E+04  0.99963805633E+03 0.  0.
         25    2    3    3    0    0  0.26421432828E+02  0.41477786019E+02  0.16110582952E+03  0.20878811048E+03  0.12336485694E+03 0.  0.
         35    2    3    3    0    0 -0.26421432828E+02 -0.41477786019E+02 -0.12510538017E+02  0.80183387836E+03  0.80022656546E+03 0.  0.
         22    1    5    5    0    0 -0.15179046956E+03  0.32777468049E+03 -0.14608309531E+03  0.38963682905E+03  0.00000000000E+00 0.  1.
         22    1    5    5    0    0  0.12536903673E+03 -0.36925246651E+03  0.13357255729E+03  0.41219704930E+03  0.00000000000E+00 0.  1.
          5    1    4    4  502    0  0.24522931760E+02  0.71742273291E+02  0.16108980562E+03  0.17810205904E+03  0.47000000000E+01 0. -1.
         -5    1    4    4    0  502  0.18985010680E+01 -0.30264487271E+02  0.16023891539E-01  0.30686051438E+02  0.47000000000E+01 0. -1.
<mgrwt>
<rscale>  0 0.99963806E+03</rscale>
<asrwt>0</asrwt>
<pdfrwt beam="1">  1        2 0.89170560E-01 0.99963806E+03</pdfrwt>
<pdfrwt beam="2">  1       -2 0.66309746E-01 0.99963806E+03</pdfrwt>
<totfact> 0.13082771E+02</totfact>
</mgrwt>
</event>
<event>
 9    1  0.4307774E-036  0.9989356E+03  0.7818608E-02  0.8682052E-01
          1   -1    0    0  501    0  0.00000000000E+00  0.00000000000E+00  0.83210353773E+03  0.83210353773E+03  0.00000000000E+00 0.  1.
         -1   -1    0    0    0  501 -0.00000000000E+00 -0.00000000000E+00 -0.29980410935E+03  0.29980410935E+03  0.00000000000E+00 0.  1.
         36    2    1    2    0    0  0.28421709430E-13 -0.14210854715E-13  0.53229942838E+03  0.11319076471E+04  0.99893555351E+03 0.  0.
         25    2    3    3    0    0  0.93216805957E+02  0.84072728999E+02  0.27593365000E+02  0.17950641145E+03  0.12531385114E+03 0.  0.
         35    2    3    3    0    0 -0.93216805957E+02 -0.84072728999E+02  0.50470606338E+03  0.95240123563E+03  0.79786108223E+03 0.  0.
         22    1    5    5    0    0  0.27843235231E+03 -0.27049429200E+03  0.28928334863E+03  0.48412456311E+03  0.00000000000E+00 0. -1.
         22    1    5    5    0    0 -0.37164915826E+03  0.18642156300E+03  0.21542271475E+03  0.46827667251E+03  0.00000000000E+00 0. -1.
          5    1    4    4  502    0  0.51410050835E+02 -0.61700869751E+00  0.60359111865E+02  0.79427239733E+02  0.47000000000E+01 0. -1.
         -5    1    4    4    0  502  0.41806755122E+02  0.84689737696E+02 -0.32765746865E+02  0.10007917172E+03  0.47000000000E+01 0. -1.
<mgrwt>
<rscale>  0 0.99893555E+03</rscale>
<asrwt>0</asrwt>
<pdfrwt beam="1">  1        1 0.12801593E+00 0.99893555E+03</pdfrwt>
<pdfrwt beam="2">  1       -1 0.46123709E-01 0.99893555E+03</pdfrwt>
<totfact> 0.11012140E+02</totfact>
</mgrwt>
</event>
<event>
 9    1  0.4307774E-036  0.9989864E+03  0.7818608E-02  0.8682004E-01
         -1   -1    0    0    0  501 -0.00000000000E+00  0.00000000000E+00  0.72776461318E+03  0.72776461318E+03  0.00000000000E+00 0.  1.
          1   -1    0    0  501    0  0.00000000000E+00 -0.00000000000E+00 -0.34282166688E+03  0.34282166688E+03  0.00000000000E+00 0.  1.
         36    2    1    2    0    0  0.35527136788E-14 -0.71054273576E-14  0.38494294630E+03  0.10705862801E+04  0.99898644192E+03 0.  0.
         25    2    3    3    0    0 -0.15100355272E+02  0.11154924170E+02  0.21664770050E+03  0.25078211010E+03  0.12491191918E+03 0.  0.
         35    2    3    3    0    0  0.15100355272E+02 -0.11154924170E+02  0.16829524581E+03  0.81980416996E+03  0.80212413893E+03 0.  0.
         22    1    5    5    0    0  0.66218248514E+02  0.20632862493E+03  0.42648280609E+03  0.47837635999E+03  0.00000000000E+00 0. -1.
         22    1    5    5    0    0 -0.51117893243E+02 -0.21748354910E+03 -0.25818756028E+03  0.34142780998E+03  0.00000000000E+00 0. -1.
          5    1    4    4  502    0 -0.15734333911E+02 -0.10844173437E+01 -0.12868428340E+02  0.20890947143E+02  0.47000000000E+01 0. -1.
         -5    1    4    4    0  502  0.63397863895E+00  0.12239341514E+02  0.22951612884E+03  0.22989116296E+03  0.47000000000E+01 0. -1.
<mgrwt>
<rscale>  0 0.99898644E+03</rscale>
<asrwt>0</asrwt>
<pdfrwt beam="1">  1        1 0.52741795E-01 0.99898644E+03</pdfrwt>
<pdfrwt beam="2">  1       -1 0.11196379E+00 0.99898644E+03</pdfrwt>
<totfact> 0.64798373E+01</totfact>
</mgrwt>
</event>
<event>
 9    1  0.4307774E-036  0.1002606E+04  0.7818608E-02  0.8678560E-01
         -2   -1    0    0    0  501 -0.00000000000E+00  0.00000000000E+00  0.24990899908E+03  0.24990899908E+03  0.00000000000E+00 0.  1.
          2   -1    0    0  501    0  0.00000000000E+00 -0.00000000000E+00 -0.10055846618E+04  0.10055846618E+04  0.00000000000E+00 0.  1.
         36    2    1    2    0    0 -0.28421709430E-13  0.14210854715E-13 -0.75567566267E+03  0.12554936608E+04  0.10026059172E+04 0.  0.
         25    2    3    3    0    0  0.66274890310E+02  0.12072829978E+03 -0.18840970669E+03  0.26489550786E+03  0.12531452053E+03 0.  0.
         35    2    3    3    0    0 -0.66274890310E+02 -0.12072829978E+03 -0.56726595598E+03  0.99059815298E+03  0.80032890265E+03 0.  0.
         22    1    5    5    0    0 -0.34454340438E+03  0.17863094940E+03 -0.37216117201E+03  0.53770169382E+03  0.00000000000E+00 0. -1.
         22    1    5    5    0    0  0.27826851407E+03 -0.29935924918E+03 -0.19510478397E+03  0.45289645916E+03  0.00000000000E+00 0. -1.
          5    1    4    4  502    0  0.27285168698E+01  0.48679499573E+02 -0.15582546259E+03  0.16334259479E+03  0.47000000000E+01 0.  1.
         -5    1    4    4    0  502  0.63546373440E+02  0.72048800208E+02 -0.32584244103E+02  0.10155291307E+03  0.47000000000E+01 0.  1.
<mgrwt>
<rscale>  0 0.10026059E+04</rscale>
<asrwt>0</asrwt>
<pdfrwt beam="1">  1        2 0.15470533E+00 0.10026059E+04</pdfrwt>
<pdfrwt beam="2">  1       -2 0.38447538E-01 0.10026059E+04</pdfrwt>
<totfact> 0.19296192E+02</totfact>
</mgrwt>
</event>
<event>
 9    1  0.4307774E-036  0.1000055E+04  0.7818608E-02  0.8680986E-01
          2   -1    0    0  501    0  0.00000000000E+00  0.00000000000E+00  0.10106324005E+04  0.10106324005E+04  0.00000000000E+00 0.  1.
         -2   -1    0    0    0  501 -0.00000000000E+00 -0.00000000000E+00 -0.24739685528E+03  0.24739685528E+03  0.00000000000E+00 0.  1.
         36    2    1    2    0    0  0.00000000000E+00  0.14210854715E-13  0.76323554520E+03  0.12580292557E+04  0.10000545539E+04 0.  0.
         25    2    3    3    0    0 -0.66840572373E+02  0.12502301440E+03  0.13720339447E+03  0.23260467925E+03  0.12321424070E+03 0.  0.
         35    2    3    3    0    0  0.66840572373E+02 -0.12502301440E+03  0.62603215073E+03  0.10254245765E+04  0.79967549174E+03 0.  0.
         22    1    5    5    0    0  0.28129301224E+02 -0.94850340811E+02  0.81969256869E+03  0.82564141848E+03  0.00000000000E+00 0.  1.
         22    1    5    5    0    0  0.38711271150E+02 -0.30172673594E+02 -0.19366041796E+03  0.19978315802E+03  0.00000000000E+00 0.  1.
          5    1    4    4  502    0  0.79498268634E+01  0.11018127418E+03  0.92013327878E+02  0.14384594340E+03  0.47000000000E+01 0. -1.
         -5    1    4    4    0  502 -0.74790399237E+02  0.14841740226E+02  0.45190066587E+02  0.88758735847E+02  0.47000000000E+01 0. -1.
<mgrwt>
<rscale>  0 0.10000546E+04</rscale>
<asrwt>0</asrwt>
<pdfrwt beam="1">  1        2 0.15548191E+00 0.10000546E+04</pdfrwt>
<pdfrwt beam="2">  1       -2 0.38061055E-01 0.10000546E+04</pdfrwt>
<totfact> 0.19527544E+02</totfact>
</mgrwt>
</event>
<event>
 9    1  0.4307774E-036  0.9983019E+03  0.7818608E-02  0.8682657E-01
          1   -1    0    0  501    0  0.00000000000E+00  0.00000000000E+00  0.29059646447E+03  0.29059646447E+03  0.00000000000E+00 0.  1.
         -1   -1    0    0    0  501 -0.00000000000E+00 -0.00000000000E+00 -0.85738029733E+03  0.85738029733E+03  0.00000000000E+00 0.  1.
         36    2    1    2    0    0 -0.71054273576E-14 -0.14210854715E-13 -0.56678383287E+03  0.11479767618E+04  0.99830192449E+03 0.  0.
         25    2    3    3    0    0  0.59340073496E+02 -0.10731202598E+03 -0.18070969069E+03  0.25119095398E+03  0.12411199704E+03 0.  0.
         35    2    3    3    0    0 -0.59340073496E+02  0.10731202598E+03 -0.38607414218E+03  0.89678580782E+03  0.80008401222E+03 0.  0.
         22    1    5    5    0    0  0.87648760348E+02 -0.10151771834E+03 -0.56775375776E+03  0.58338022059E+03  0.00000000000E+00 0.  1.
         22    1    5    5    0    0 -0.14698883384E+03  0.20882974432E+03  0.18167961558E+03  0.31340558723E+03  0.00000000000E+00 0.  1.
          5    1    4    4  502    0  0.63073469942E+02  0.36298841762E+01 -0.63959882873E+02  0.90024414948E+02  0.47000000000E+01 0.  1.
         -5    1    4    4    0  502 -0.37333964466E+01 -0.11094191016E+03 -0.11674980781E+03  0.16116653903E+03  0.47000000000E+01 0.  1.
<mgrwt>
<rscale>  0 0.99830192E+03</rscale>
<asrwt>0</asrwt>
<pdfrwt beam="1">  1        1 0.44707150E-01 0.99830192E+03</pdfrwt>
<pdfrwt beam="2">  1       -1 0.13190466E+00 0.99830192E+03</pdfrwt>
<totfact> 0.53444452E+01</totfact>
</mgrwt>
</event>
<event>
 9    1  0.4307774E-036  0.1000011E+04  0.7818608E-02  0.8681027E-01
          2   -1    0    0  501    0  0.00000000000E+00  0.00000000000E+00  0.44865175408E+03  0.44865175408E+03  0.00000000000E+00 0.  1.
         -2   -1    0    0    0  501 -0.00000000000E+00 -0.00000000000E+00 -0.55723772962E+03  0.55723772962E+03  0.00000000000E+00 0.  1.
         36    2    1    2    0    0 -0.42632564146E-13 -0.71054273576E-14 -0.10858597554E+03  0.10058894837E+04  0.10000113696E+04 0.  0.
         25    2    3    3    0    0  0.77375833084E+02 -0.18740216430E+02  0.96787796224E+02  0.17655876339E+03  0.12436600892E+03 0.  0.
         35    2    3    3    0    0 -0.77375833084E+02  0.18740216430E+02 -0.20537377177E+03  0.82933072030E+03  0.79954539724E+03 0.  0.
         22    1    5    5    0    0  0.22696894427E+03 -0.28110624936E+03 -0.15034042198E+02  0.36160980009E+03  0.00000000000E+00 0. -1.
         22    1    5    5    0    0 -0.30434477736E+03  0.29984646579E+03 -0.19033972957E+03  0.46772092021E+03  0.00000000000E+00 0. -1.
          5    1    4    4  502    0  0.72898842084E+02 -0.12315441834E+02  0.12588320020E+03  0.14606362100E+03  0.47000000000E+01 0. -1.
         -5    1    4    4    0  502  0.44769910004E+01 -0.64247745962E+01 -0.29095403980E+02  0.30495142396E+02  0.47000000000E+01 0. -1.
<mgrwt>
<rscale>  0 0.10000114E+04</rscale>
<asrwt>0</asrwt>
<pdfrwt beam="1">  1        2 0.69023347E-01 0.10000114E+04</pdfrwt>
<pdfrwt beam="2">  1       -2 0.85728881E-01 0.10000114E+04</pdfrwt>
<totfact> 0.98844059E+01</totfact>
</mgrwt>
</event>
<event>
 9    1  0.4307774E-036  0.1000463E+04  0.7818608E-02  0.8680597E-01
         -2   -1    0    0    0  501 -0.00000000000E+00  0.00000000000E+00  0.25697393423E+03  0.25697393423E+03  0.00000000000E+00 0.  1.
          2   -1    0    0  501    0  0.00000000000E+00 -0.00000000000E+00 -0.97376314391E+03  0.97376314391E+03  0.00000000000E+00 0.  1.
         36    2    1    2    0    0 -0.21316282073E-13 -0.71054273576E-14 -0.71678920968E+03  0.12307370781E+04  0.10004633848E+04 0.  0.
         25    2    3    3    0    0 -0.51795610684E+02 -0.16820506801E+02  0.30208602797E+02  0.13541042994E+03  0.12024021839E+03 0.  0.
         35    2    3    3    0    0  0.51795610684E+02  0.16820506801E+02 -0.74699781248E+03  0.10953266482E+04  0.79923026700E+03 0.  0.
         22    1    5    5    0    0  0.29867012423E+03  0.23747159636E+03 -0.64402308184E+03  0.74857353154E+03  0.00000000000E+00 0. -1.
         22    1    5    5    0    0 -0.24687451355E+03 -0.22065108956E+03 -0.10297473064E+03  0.34675311666E+03  0.00000000000E+00 0. -1.
          5    1    4    4  502    0  0.29603923744E+02 -0.32017856846E+02 -0.71630668670E+01  0.44440240605E+02  0.47000000000E+01 0.  1.
         -5    1    4    4    0  502 -0.81399534428E+02  0.15197350046E+02  0.37371669664E+02  0.90970189331E+02  0.47000000000E+01 0.  1.
<mgrwt>
<rscale>  0 0.10004634E+04</rscale>
<asrwt>0</asrwt>
<pdfrwt beam="1">  1        2 0.14980972E+00 0.10004634E+04</pdfrwt>
<pdfrwt beam="2">  1       -2 0.39534451E-01 0.10004634E+04</pdfrwt>
<totfact> 0.19164411E+02</totfact>
</mgrwt>
</event>
<event>
 9    1  0.4307774E-036  0.9996814E+03  0.7818608E-02  0.8681341E-01
         -1   -1    0    0    0  501 -0.00000000000E+00  0.00000000000E+00  0.50496159357E+03  0.50496159357E+03  0.00000000000E+00 0.  1.
          1   -1    0    0  501    0  0.00000000000E+00 -0.00000000000E+00 -0.49477177408E+03  0.49477177408E+03  0.00000000000E+00 0.  1.
         36    2    1    2    0    0 -0.71054273576E-14  0.14210854715E-13  0.10189819482E+02  0.99973336765E+03  0.99968143624E+03 0.  0.
         25    2    3    3    0    0 -0.17562307453E+02  0.73053739403E+02  0.12190967573E+03  0.18944103921E+03  0.12401876800E+03 0.  0.
         35    2    3    3    0    0  0.17562307453E+02 -0.73053739403E+02 -0.11171985625E+03  0.81029232844E+03  0.79902881535E+03 0.  0.
         22    1    5    5    0    0 -0.82930105466E+02 -0.55365263923E+02  0.33631480323E+03  0.35078534991E+03  0.00000000000E+00 0.  1.
         22    1    5    5    0    0  0.10049241292E+03 -0.17688475479E+02 -0.44803465948E+03  0.45950697853E+03  0.00000000000E+00 0.  1.
          5    1    4    4  502    0 -0.43197665836E+02  0.94377641915E+00 -0.22420668932E+01  0.43520637766E+02  0.47000000000E+01 0. -1.
         -5    1    4    4    0  502  0.25635358383E+02  0.72109962983E+02  0.12415174262E+03  0.14592040144E+03  0.47000000000E+01 0. -1.
<mgrwt>
<rscale>  0 0.99968144E+03</rscale>
<asrwt>0</asrwt>
<pdfrwt beam="1">  1        1 0.76118735E-01 0.99968144E+03</pdfrwt>
<pdfrwt beam="2">  1       -1 0.77686399E-01 0.99968144E+03</pdfrwt>
<totfact> 0.88180475E+01</totfact>
</mgrwt>
</event>
<event>
 9    1  0.4307774E-036  0.1000228E+04  0.7818608E-02  0.8680821E-01
          1   -1    0    0  501    0  0.00000000000E+00  0.00000000000E+00  0.11037831220E+04  0.11037831220E+04  0.00000000000E+00 0. -1.
         -1   -1    0    0    0  501 -0.00000000000E+00 -0.00000000000E+00 -0.22659705143E+03  0.22659705143E+03  0.00000000000E+00 0. -1.
         36    2    1    2    0    0  0.28421709430E-13 -0.21316282073E-13  0.87718607059E+03  0.13303801734E+04  0.10002279757E+04 0.  0.
         25    2    3    3    0    0  0.98332050805E+02 -0.50622640117E+02  0.28869487197E+03  0.33283452681E+03  0.12329740153E+03 0.  0.
         35    2    3    3    0    0 -0.98332050805E+02  0.50622640117E+02  0.58849119862E+03  0.99754564664E+03  0.79783681437E+03 0.  0.
         22    1    5    5    0    0 -0.18536570290E+03  0.36269277380E+03  0.11394653411E+03  0.42295425830E+03  0.00000000000E+00 0. -1.
         22    1    5    5    0    0  0.87033652091E+02 -0.31207013369E+03  0.47454466451E+03  0.57459138834E+03  0.00000000000E+00 0. -1.
          5    1    4    4  502    0  0.99710446711E+02 -0.36290901931E+02  0.29709862064E+03  0.31551368137E+03  0.47000000000E+01 0. -1.
         -5    1    4    4    0  502 -0.13783959059E+01 -0.14331738186E+02 -0.84037486738E+01  0.17320845432E+02  0.47000000000E+01 0. -1.
<mgrwt>
<rscale>  0 0.10002280E+04</rscale>
<asrwt>0</asrwt>
<pdfrwt beam="1">  1        1 0.16981278E+00 0.10002280E+04</pdfrwt>
<pdfrwt beam="2">  1       -1 0.34861085E-01 0.10002280E+04</pdfrwt>
<totfact> 0.10930481E+02</totfact>
</mgrwt>
</event>
<event>
 9    1  0.4307774E-036  0.1000296E+04  0.7818608E-02  0.8680756E-01
          3   -1    0    0  501    0  0.00000000000E+00  0.00000000000E+00  0.12878751661E+04  0.12878751661E+04  0.00000000000E+00 0.  1.
         -3   -1    0    0    0  501 -0.00000000000E+00 -0.00000000000E+00 -0.19423313694E+03  0.19423313694E+03  0.00000000000E+00 0.  1.
         36    2    1    2    0    0 -0.28421709430E-13 -0.71054273576E-14  0.10936420291E+04  0.14821083030E+04  0.10002960232E+04 0.  0.
         25    2    3    3    0    0 -0.13423914934E+03  0.37605111538E+02  0.25492127168E+03  0.31592820953E+03  0.12406242457E+03 0.  0.
         35    2    3    3    0    0  0.13423914934E+03 -0.37605111538E+02  0.83872075745E+03  0.11661800935E+04  0.79817868165E+03 0.  0.
         22    1    5    5    0    0 -0.12621063166E+03 -0.17751965887E+03  0.84280923446E+03  0.87049971771E+03  0.00000000000E+00 0. -1.
         22    1    5    5    0    0  0.26044978100E+03  0.13991454733E+03 -0.40884770097E+01  0.29568037578E+03  0.00000000000E+00 0. -1.
          5    1    4    4  502    0 -0.32696465913E+02  0.71158756230E+01  0.18677547439E+03  0.18980743506E+03  0.47000000000E+01 0. -1.
         -5    1    4    4    0  502 -0.10154268343E+03  0.30489235915E+02  0.68145797284E+02  0.12612077447E+03  0.47000000000E+01 0. -1.
<mgrwt>
<rscale>  0 0.10002960E+04</rscale>
<asrwt>0</asrwt>
<pdfrwt beam="1">  1        3 0.19813464E+00 0.10002960E+04</pdfrwt>
<pdfrwt beam="2">  1       -3 0.29882022E-01 0.10002960E+04</pdfrwt>
<totfact> 0.66292815E+00</totfact>
</mgrwt>
</event>
<event>
 9    1  0.4307774E-036  0.1000112E+04  0.7818608E-02  0.8680932E-01
         -1   -1    0    0    0  501 -0.00000000000E+00  0.00000000000E+00  0.12097239684E+03  0.12097239684E+03  0.00000000000E+00 0. -1.
          1   -1    0    0  501    0  0.00000000000E+00 -0.00000000000E+00 -0.20670486211E+04  0.20670486211E+04  0.00000000000E+00 0. -1.
         36    2    1    2    0    0  0.14210854715E-13  0.71054273576E-14 -0.19460762242E+04  0.21880210179E+04  0.10001116459E+04 0.  0.
         25    2    3    3    0    0 -0.12780643011E+03 -0.32791090572E+02 -0.48906738126E+03  0.52112629347E+03  0.12237635040E+03 0.  0.
         35    2    3    3    0    0  0.12780643011E+03  0.32791090572E+02 -0.14570088430E+04  0.16668947244E+04  0.79890770097E+03 0.  0.
         22    1    5    5    0    0 -0.49028787189E+02  0.24095360368E+03 -0.13521465247E+04  0.13743226278E+04  0.00000000000E+00 0.  1.
         22    1    5    5    0    0  0.17683521729E+03 -0.20816251311E+03 -0.10486231832E+03  0.29257209666E+03  0.00000000000E+00 0.  1.
          5    1    4    4  502    0 -0.14667095730E+03 -0.38069617685E+02 -0.46815039698E+03  0.49208591699E+03  0.47000000000E+01 0. -1.
         -5    1    4    4    0  502  0.18864527196E+02  0.52785271129E+01 -0.20916984282E+02  0.29040376483E+02  0.47000000000E+01 0. -1.
<mgrwt>
<rscale>  0 0.10001116E+04</rscale>
<asrwt>0</asrwt>
<pdfrwt beam="1">  1        1 0.31800744E+00 0.10001116E+04</pdfrwt>
<pdfrwt beam="2">  1       -1 0.18611140E-01 0.10001116E+04</pdfrwt>
<totfact> 0.64358300E+01</totfact>
</mgrwt>
</event>
<event>
 9    1  0.4307774E-036  0.9873268E+03  0.7818608E-02  0.8693201E-01
          2   -1    0    0  501    0  0.00000000000E+00  0.00000000000E+00  0.37876510577E+03  0.37876510577E+03  0.00000000000E+00 0.  1.
         -2   -1    0    0    0  501 -0.00000000000E+00 -0.00000000000E+00 -0.64341607304E+03  0.64341607304E+03  0.00000000000E+00 0.  1.
         36    2    1    2    0    0  0.71054273576E-14  0.28421709430E-13 -0.26465096727E+03  0.10221811788E+04  0.98732680903E+03 0.  0.
         25    2    3    3    0    0  0.33088661200E+02  0.10628763224E+03  0.16519792420E+02  0.16850176488E+03  0.12541140681E+03 0.  0.
         35    2    3    3    0    0 -0.33088661200E+02 -0.10628763224E+03 -0.28117075969E+03  0.85367941392E+03  0.79832300818E+03 0.  0.
         22    1    5    5    0    0  0.21532579232E+03  0.25209022767E+03  0.59457850082E+01  0.33158714101E+03  0.00000000000E+00 0.  1.
         22    1    5    5    0    0 -0.24841445352E+03 -0.35837785991E+03 -0.28711654469E+03  0.52209227291E+03  0.00000000000E+00 0.  1.
          5    1    4    4  502    0 -0.26317578985E+02  0.45875823865E+02 -0.40057764259E+02  0.66512560140E+02  0.47000000000E+01 0. -1.
         -5    1    4    4    0  502  0.59406240185E+02  0.60411808377E+02  0.56577556678E+02  0.10198920474E+03  0.47000000000E+01 0. -1.
<mgrwt>
<rscale>  0 0.98732681E+03</rscale>
<asrwt>0</asrwt>
<pdfrwt beam="1">  1        2 0.58271555E-01 0.98732681E+03</pdfrwt>
<pdfrwt beam="2">  1       -2 0.98987088E-01 0.98732681E+03</pdfrwt>
<totfact> 0.85129983E+01</totfact>
</mgrwt>
</event>
<event>
 9    1  0.4307774E-036  0.9998124E+03  0.7818608E-02  0.8681217E-01
          2   -1    0    0  501    0  0.00000000000E+00  0.00000000000E+00  0.17147108294E+03  0.17147108294E+03  0.00000000000E+00 0.  1.
         -2   -1    0    0    0  501 -0.00000000000E+00 -0.00000000000E+00 -0.14574248952E+04  0.14574248952E+04  0.00000000000E+00 0.  1.
         36    2    1    2    0    0  0.14210854715E-13  0.42632564146E-13 -0.12859538123E+04  0.16288959781E+04  0.99981243257E+03 0.  0.
         25    2    3    3    0    0 -0.63867860823E+02 -0.12208689896E+03 -0.20448345093E+03  0.27648166417E+03  0.12507723364E+03 0.  0.
         35    2    3    3    0    0  0.63867860823E+02  0.12208689896E+03 -0.10814703613E+04  0.13524143140E+04  0.80028871017E+03 0.  0.
         22    1    5    5    0    0 -0.20585898603E+03 -0.20536185782E+03 -0.14628012567E+03  0.32549852525E+03  0.00000000000E+00 0. -1.
         22    1    5    5    0    0  0.26972684685E+03  0.32744875678E+03 -0.93519023567E+03  0.10269157887E+04  0.00000000000E+00 0. -1.
          5    1    4    4  502    0 -0.16740268861E+01 -0.11279375444E+03 -0.17147003364E+03  0.20530293676E+03  0.47000000000E+01 0.  1.
         -5    1    4    4    0  502 -0.62193833937E+02 -0.92931445262E+01 -0.33013417292E+02  0.71178727414E+02  0.47000000000E+01 0.  1.
<mgrwt>
<rscale>  0 0.99981243E+03</rscale>
<asrwt>0</asrwt>
<pdfrwt beam="1">  1        2 0.26380166E-01 0.99981243E+03</pdfrwt>
<pdfrwt beam="2">  1       -2 0.22421922E+00 0.99981243E+03</pdfrwt>
<totfact> 0.20646041E+01</totfact>
</mgrwt>
</event>
<event>
 9    1  0.4307774E-036  0.1000687E+04  0.7818608E-02  0.8680384E-01
         -2   -1    0    0    0  501 -0.00000000000E+00  0.00000000000E+00  0.20429184604E+03  0.20429184604E+03  0.00000000000E+00 0.  1.
          2   -1    0    0  501    0  0.00000000000E+00 -0.00000000000E+00 -0.12254216877E+04  0.12254216877E+04  0.00000000000E+00 0.  1.
         36    2    1    2    0    0  0.14210854715E-13  0.00000000000E+00 -0.10211298417E+04  0.14297135338E+04  0.10006870815E+04 0.  0.
         25    2    3    3    0    0 -0.12430391067E+03 -0.52437687122E+02 -0.14396403245E+03  0.23328354784E+03  0.12447649504E+03 0.  0.
         35    2    3    3    0    0  0.12430391067E+03  0.52437687122E+02 -0.87716580923E+03  0.11964299859E+04  0.80238624182E+03 0.  0.
         22    1    5    5    0    0  0.94311825794E+02 -0.31376563706E+03 -0.73087161040E+03  0.80094750538E+03  0.00000000000E+00 0. -1.
         22    1    5    5    0    0  0.29992084878E+02  0.36620332418E+03 -0.14629419883E+03  0.39548248053E+03  0.00000000000E+00 0. -1.
          5    1    4    4  502    0 -0.16158411043E+02 -0.65540842040E+02 -0.25590494216E+02  0.72344036499E+02  0.47000000000E+01 0.  1.
         -5    1    4    4    0  502 -0.10814549963E+03  0.13103154918E+02 -0.11837353823E+03  0.16093951134E+03  0.47000000000E+01 0.  1.
<mgrwt>
<rscale>  0 0.10006871E+04</rscale>
<asrwt>0</asrwt>
<pdfrwt beam="1">  1        2 0.18852641E+00 0.10006871E+04</pdfrwt>
<pdfrwt beam="2">  1       -2 0.31429515E-01 0.10006871E+04</pdfrwt>
<totfact> 0.20688605E+02</totfact>
</mgrwt>
</event>
<event>
 9    1  0.4307774E-036  0.9996019E+03  0.7818608E-02  0.8681417E-01
         -2   -1    0    0    0  501 -0.00000000000E+00  0.00000000000E+00  0.81088220866E+03  0.81088220866E+03  0.00000000000E+00 0. -1.
          2   -1    0    0  501    0  0.00000000000E+00 -0.00000000000E+00 -0.30806078219E+03  0.30806078219E+03  0.00000000000E+00 0. -1.
         36    2    1    2    0    0  0.00000000000E+00 -0.28421709430E-13  0.50282142647E+03  0.11189429909E+04  0.99960193570E+03 0.  0.
         25    2    3    3    0    0  0.38967253992E+02 -0.13012022441E+03  0.55923061389E+02  0.19278060586E+03  0.12484892276E+03 0.  0.
         35    2    3    3    0    0 -0.38967253992E+02  0.13012022441E+03  0.44689836509E+03  0.92616238500E+03  0.79975552201E+03 0.  0.
         22    1    5    5    0    0  0.22945358171E+01 -0.28751904677E+03  0.41554289413E+03  0.50532006097E+03  0.00000000000E+00 0.  1.
         22    1    5    5    0    0 -0.41261789809E+02  0.41763927119E+03  0.31355470952E+02  0.42084232403E+03  0.00000000000E+00 0.  1.
          5    1    4    4  502    0  0.10583955144E+02 -0.46206957581E+02 -0.39944901042E+02  0.62167420363E+02  0.47000000000E+01 0.  1.
         -5    1    4    4    0  502  0.28383298847E+02 -0.83913266834E+02  0.95867962431E+02  0.13061318549E+03  0.47000000000E+01 0.  1.
<mgrwt>
<rscale>  0 0.99960194E+03</rscale>
<asrwt>0</asrwt>
<pdfrwt beam="1">  1        2 0.47393967E-01 0.99960194E+03</pdfrwt>
<pdfrwt beam="2">  1       -2 0.12475111E+00 0.99960194E+03</pdfrwt>
<totfact> 0.59616627E+01</totfact>
</mgrwt>
</event>
<event>
 9    1  0.4307774E-036  0.1000017E+04  0.7818608E-02  0.8681021E-01
         -2   -1    0    0    0  501 -0.00000000000E+00  0.00000000000E+00  0.21563270343E+03  0.21563270343E+03  0.00000000000E+00 0. -1.
          2   -1    0    0  501    0  0.00000000000E+00 -0.00000000000E+00 -0.11594190026E+04  0.11594190026E+04  0.00000000000E+00 0. -1.
         36    2    1    2    0    0  0.28421709430E-13 -0.56843418861E-13 -0.94378629914E+03  0.13750517060E+04  0.10000173077E+04 0.  0.
         25    2    3    3    0    0 -0.89888543806E+02 -0.10451342823E+03 -0.14252280635E+03  0.23451326311E+03  0.12522265474E+03 0.  0.
         35    2    3    3    0    0  0.89888543806E+02  0.10451342823E+03 -0.80126349279E+03  0.11405384429E+04  0.79987608280E+03 0.  0.
         22    1    5    5    0    0  0.17499986790E+03  0.43546191354E+03 -0.44119625040E+03  0.64413210080E+03  0.00000000000E+00 0. -1.
         22    1    5    5    0    0 -0.85111324098E+02 -0.33094848531E+03 -0.36006724239E+03  0.49640634209E+03  0.00000000000E+00 0. -1.
          5    1    4    4  502    0  0.28252432711E+02 -0.10509044945E+02 -0.46201684877E+02  0.55365383275E+02  0.47000000000E+01 0. -1.
         -5    1    4    4    0  502 -0.11814097652E+03 -0.94004383283E+02 -0.96321121473E+02  0.17914787984E+03  0.47000000000E+01 0. -1.
<mgrwt>
<rscale>  0 0.10000173E+04</rscale>
<asrwt>0</asrwt>
<pdfrwt beam="1">  1        2 0.17837215E+00 0.10000173E+04</pdfrwt>
<pdfrwt beam="2">  1       -2 0.33174262E-01 0.10000173E+04</pdfrwt>
<totfact> 0.20492740E+02</totfact>
</mgrwt>
</event>
