<event>
 5    1  0.1111501E+001  0.2755181E+03  0.7818608E-02  0.1098162E+00
          2   -1    0    0  501    0  0.00000000000E+00  0.00000000000E+00  0.41225220673E+03  0.41225220673E+03  0.00000000000E+00 0.  1.
         -2   -1    0    0    0  501 -0.00000000000E+00 -0.00000000000E+00 -0.46033850901E+02  0.46033850901E+02  0.00000000000E+00 0.  1.
         35    2    1    2    0    0  0.00000000000E+00  0.00000000000E+00  0.36621835583E+03  0.45828605763E+03  0.27551810553E+03 0.  0.
         25    1    3    3    0    0 -0.24447171089E+01  0.53118489924E+02  0.11352567772E+03  0.17353855513E+03  0.12000000000E+03 0.  0.
         25    1    3    3    0    0  0.24447171089E+01 -0.53118489924E+02  0.25269267811E+03  0.28474750251E+03  0.12000000000E+03 0.  0.
<mgrwt>
<rscale>  0 0.27551811E+03</rscale>
<asrwt>0</asrwt>
<pdfrwt beam="1">  1        2 0.63423414E-01 0.27551811E+03</pdfrwt>
<pdfrwt beam="2">  1       -2 0.70821312E-02 0.27551811E+03</pdfrwt>
<totfact> 0.87797508E+03</totfact>
</mgrwt>
</event>
<event>
 5    1  0.1111501E+001  0.2692396E+03  0.7818608E-02  0.1101716E+00
         -2   -1    0    0    0  501 -0.00000000000E+00  0.00000000000E+00  0.40789725655E+02  0.40789725655E+02  0.00000000000E+00 0. -1.
          2   -1    0    0  501    0  0.00000000000E+00 -0.00000000000E+00 -0.44429051983E+03  0.44429051983E+03  0.00000000000E+00 0. -1.
         35    2    1    2    0    0  0.00000000000E+00  0.00000000000E+00 -0.40350079418E+03  0.48508024549E+03  0.26923958413E+03 0.  0.
         25    1    3    3    0    0  0.56563497134E+02 -0.64498837388E+00 -0.24293902535E+03  0.27680176165E+03  0.12000000000E+03 0.  0.
         25    1    3    3    0    0 -0.56563497134E+02  0.64498837388E+00 -0.16056176883E+03  0.20827848383E+03  0.12000000000E+03 0.  0.
<mgrwt>
<rscale>  0 0.26923958E+03</rscale>
<asrwt>0</asrwt>
<pdfrwt beam="1">  1        2 0.68352387E-01 0.26923958E+03</pdfrwt>
<pdfrwt beam="2">  1       -2 0.62753425E-02 0.26923958E+03</pdfrwt>
<totfact> 0.97410565E+03</totfact>
</mgrwt>
</event>
<event>
 5    1  0.1111501E+001  0.2736280E+03  0.7818608E-02  0.1099221E+00
          1   -1    0    0  501    0  0.00000000000E+00  0.00000000000E+00  0.98388073343E+03  0.98388073343E+03  0.00000000000E+00 0.  1.
         -1   -1    0    0    0  501 -0.00000000000E+00 -0.00000000000E+00 -0.19024735010E+02  0.19024735010E+02  0.00000000000E+00 0.  1.
         35    2    1    2    0    0  0.00000000000E+00  0.00000000000E+00  0.96485599842E+03  0.10029054684E+04  0.27362799736E+03 0.  0.
         25    1    3    3    0    0  0.59704045008E+02 -0.25501663447E+02  0.51965518435E+03  0.53726754829E+03  0.12000000000E+03 0.  0.
         25    1    3    3    0    0 -0.59704045008E+02  0.25501663447E+02  0.44520081408E+03  0.46563792015E+03  0.12000000000E+03 0.  0.
<mgrwt>
<rscale>  0 0.27362800E+03</rscale>
<asrwt>0</asrwt>
<pdfrwt beam="1">  1        1 0.15136623E+00 0.27362800E+03</pdfrwt>
<pdfrwt beam="2">  1       -1 0.29268831E-02 0.27362800E+03</pdfrwt>
<totfact> 0.64282558E+03</totfact>
</mgrwt>
</event>
<event>
 5    1  0.1111501E+001  0.2746807E+03  0.7818608E-02  0.1098630E+00
         -1   -1    0    0    0  501 -0.00000000000E+00  0.00000000000E+00  0.62843431052E+02  0.62843431052E+02  0.00000000000E+00 0.  1.
          1   -1    0    0  501    0  0.00000000000E+00 -0.00000000000E+00 -0.30014857870E+03  0.30014857870E+03  0.00000000000E+00 0.  1.
         35    2    1    2    0    0  0.00000000000E+00  0.00000000000E+00 -0.23730514765E+03  0.36299200975E+03  0.27468066194E+03 0.  0.
         25    1    3    3    0    0 -0.62553347377E+02  0.54023065890E+01 -0.14879507833E+03  0.20120159423E+03  0.12000000000E+03 0.  0.
         25    1    3    3    0    0  0.62553347377E+02 -0.54023065890E+01 -0.88510069313E+02  0.16179041552E+03  0.12000000000E+03 0.  0.
<mgrwt>
<rscale>  0 0.27468066E+03</rscale>
<asrwt>0</asrwt>
<pdfrwt beam="1">  1        1 0.46176704E-01 0.27468066E+03</pdfrwt>
<pdfrwt beam="2">  1       -1 0.96682203E-02 0.27468066E+03</pdfrwt>
<totfact> 0.55875893E+03</totfact>
</mgrwt>
</event>
<event>
 5    1  0.1111501E+001  0.2755466E+03  0.7818608E-02  0.1098146E+00
          2   -1    0    0  501    0  0.00000000000E+00  0.00000000000E+00  0.48685654033E+02  0.48685654033E+02  0.00000000000E+00 0. -1.
         -2   -1    0    0    0  501 -0.00000000000E+00 -0.00000000000E+00 -0.38987835005E+03  0.38987835005E+03  0.00000000000E+00 0. -1.
         35    2    1    2    0    0  0.00000000000E+00  0.00000000000E+00 -0.34119269602E+03  0.43856400408E+03  0.27554660198E+03 0.  0.
         25    1    3    3    0    0 -0.19393487994E+02  0.76174868641E+01 -0.68096501716E+02  0.13953948197E+03  0.12000000000E+03 0.  0.
         25    1    3    3    0    0  0.19393487994E+02 -0.76174868641E+01 -0.27309619430E+03  0.29902452211E+03  0.12000000000E+03 0.  0.
<mgrwt>
<rscale>  0 0.27554660E+03</rscale>
<asrwt>0</asrwt>
<pdfrwt beam="1">  1        2 0.74901006E-02 0.27554660E+03</pdfrwt>
<pdfrwt beam="2">  1       -2 0.59981285E-01 0.27554660E+03</pdfrwt>
<totfact> 0.24423141E+03</totfact>
</mgrwt>
</event>
<event>
 5    1  0.1111501E+001  0.2753174E+03  0.7818608E-02  0.1098274E+00
          1   -1    0    0  501    0  0.00000000000E+00  0.00000000000E+00  0.78758335903E+03  0.78758335903E+03  0.00000000000E+00 0.  1.
         -1   -1    0    0    0  501 -0.00000000000E+00 -0.00000000000E+00 -0.24060834804E+02  0.24060834804E+02  0.00000000000E+00 0.  1.
         35    2    1    2    0    0  0.00000000000E+00  0.00000000000E+00  0.76352252423E+03  0.81164419384E+03  0.27531736666E+03 0.  0.
         25    1    3    3    0    0  0.11328512474E+02 -0.65716438379E+02  0.35185252598E+03  0.37768662341E+03  0.12000000000E+03 0.  0.
         25    1    3    3    0    0 -0.11328512474E+02  0.65716438379E+02  0.41166999825E+03  0.43395757042E+03  0.12000000000E+03 0.  0.
<mgrwt>
<rscale>  0 0.27531737E+03</rscale>
<asrwt>0</asrwt>
<pdfrwt beam="1">  1        1 0.12116665E+00 0.27531737E+03</pdfrwt>
<pdfrwt beam="2">  1       -1 0.37016675E-02 0.27531737E+03</pdfrwt>
<totfact> 0.65040227E+03</totfact>
</mgrwt>
</event>
<event>
 5    1  0.1111501E+001  0.2749243E+03  0.7818608E-02  0.1098494E+00
          2   -1    0    0  501    0  0.00000000000E+00  0.00000000000E+00  0.25386911318E+03  0.25386911318E+03  0.00000000000E+00 0. -1.
         -2   -1    0    0    0  501 -0.00000000000E+00 -0.00000000000E+00 -0.74431423743E+02  0.74431423743E+02  0.00000000000E+00 0. -1.
         35    2    1    2    0    0  0.00000000000E+00  0.00000000000E+00  0.17943768943E+03  0.32830053692E+03  0.27492427712E+03 0.  0.
         25    1    3    3    0    0  0.42332707833E+02 -0.11050770707E+02  0.15039362047E+03  0.19731299695E+03  0.12000000000E+03 0.  0.
         25    1    3    3    0    0 -0.42332707833E+02  0.11050770707E+02  0.29044068959E+02  0.13098753997E+03  0.12000000000E+03 0.  0.
<mgrwt>
<rscale>  0 0.27492428E+03</rscale>
<asrwt>0</asrwt>
<pdfrwt beam="1">  1        2 0.39056786E-01 0.27492428E+03</pdfrwt>
<pdfrwt beam="2">  1       -2 0.11450988E-01 0.27492428E+03</pdfrwt>
<totfact> 0.69430044E+03</totfact>
</mgrwt>
</event>
<event>
 5    1  0.1111501E+001  0.2770693E+03  0.7818608E-02  0.1097300E+00
         -1   -1    0    0    0  501 -0.00000000000E+00  0.00000000000E+00  0.31537220857E+02  0.31537220857E+02  0.00000000000E+00 0.  1.
          1   -1    0    0  501    0  0.00000000000E+00 -0.00000000000E+00 -0.60854603792E+03  0.60854603792E+03  0.00000000000E+00 0.  1.
         35    2    1    2    0    0  0.00000000000E+00  0.00000000000E+00 -0.57700881707E+03  0.64008325878E+03  0.27706931118E+03 0.  0.
         25    1    3    3    0    0  0.66538104346E+02  0.45388989589E+01 -0.24566110125E+03  0.28142014427E+03  0.12000000000E+03 0.  0.
         25    1    3    3    0    0 -0.66538104346E+02 -0.45388989589E+01 -0.33134771581E+03  0.35866311451E+03  0.12000000000E+03 0.  0.
<mgrwt>
<rscale>  0 0.27706931E+03</rscale>
<asrwt>0</asrwt>
<pdfrwt beam="1">  1        1 0.93622472E-01 0.27706931E+03</pdfrwt>
<pdfrwt beam="2">  1       -1 0.48518799E-02 0.27706931E+03</pdfrwt>
<totfact> 0.63283132E+03</totfact>
</mgrwt>
</event>
<event>
 4    1  0.1111501E+001  0.2560299E+03  0.7818608E-02  0.1109552E+00
          2   -1    0    0  501    0  0.00000000000E+00  0.00000000000E+00  0.16067408524E+04  0.16067408524E+04  0.00000000000E+00 0. -1.
         -2   -1    0    0    0  501 -0.00000000000E+00 -0.00000000000E+00 -0.10199425234E+02  0.10199425234E+02  0.00000000000E+00 0. -1.
         25    1    1    2    0    0 -0.39738059134E+02  0.20084854023E+02  0.81283527329E+03  0.82285095625E+03  0.12000000000E+03 0.  0.
         25    1    1    2    0    0  0.39738059134E+02 -0.20084854023E+02  0.78370615384E+03  0.79408932135E+03  0.12000000000E+03 0.  0.
<mgrwt>
<rscale>  0 0.25602995E+03</rscale>
<asrwt>0</asrwt>
<pdfrwt beam="1">  1        2 0.24719070E+00 0.25602995E+03</pdfrwt>
<pdfrwt beam="2">  1       -2 0.15691436E-02 0.25602995E+03</pdfrwt>
<totfact> 0.13189335E+04</totfact>
</mgrwt>
</event>
<event>
 5    1  0.1111501E+001  0.2756526E+03  0.7818608E-02  0.1098087E+00
          2   -1    0    0  501    0  0.00000000000E+00  0.00000000000E+00  0.47665816157E+03  0.47665816157E+03  0.00000000000E+00 0.  1.
         -2   -1    0    0    0  501 -0.00000000000E+00 -0.00000000000E+00 -0.39852656451E+02  0.39852656451E+02  0.00000000000E+00 0.  1.
         35    2    1    2    0    0  0.00000000000E+00  0.00000000000E+00  0.43680550511E+03  0.51651081802E+03  0.27565263618E+03 0.  0.
         25    1    3    3    0    0 -0.66927791018E+02 -0.89106134333E+01  0.20694883846E+03  0.24856900447E+03  0.12000000000E+03 0.  0.
         25    1    3    3    0    0  0.66927791018E+02  0.89106134333E+01  0.22985666665E+03  0.26794181355E+03  0.12000000000E+03 0.  0.
<mgrwt>
<rscale>  0 0.27565264E+03</rscale>
<asrwt>0</asrwt>
<pdfrwt beam="1">  1        2 0.73332021E-01 0.27565264E+03</pdfrwt>
<pdfrwt beam="2">  1       -2 0.61311783E-02 0.27565264E+03</pdfrwt>
<totfact> 0.93497320E+03</totfact>
</mgrwt>
</event>
<event>
 5    1  0.1111501E+001  0.2777932E+03  0.7818608E-02  0.1096900E+00
          2   -1    0    0  501    0  0.00000000000E+00  0.00000000000E+00  0.23458017262E+02  0.23458017262E+02  0.00000000000E+00 0. -1.
         -2   -1    0    0    0  501 -0.00000000000E+00 -0.00000000000E+00 -0.82241697981E+03  0.82241697981E+03  0.00000000000E+00 0. -1.
         35    2    1    2    0    0  0.00000000000E+00  0.00000000000E+00 -0.79895896255E+03  0.84587499708E+03  0.27779324476E+03 0.  0.
         25    1    3    3    0    0  0.54235955408E+02  0.39255592836E+02 -0.33784353495E+03  0.36472015921E+03  0.12000000000E+03 0.  0.
         25    1    3    3    0    0 -0.54235955408E+02 -0.39255592836E+02 -0.46111542761E+03  0.48115483787E+03  0.12000000000E+03 0.  0.
<mgrwt>
<rscale>  0 0.27779324E+03</rscale>
<asrwt>0</asrwt>
<pdfrwt beam="1">  1        2 0.36089261E-02 0.27779324E+03</pdfrwt>
<pdfrwt beam="2">  1       -2 0.12652568E+00 0.27779324E+03</pdfrwt>
<totfact> 0.11881309E+03</totfact>
</mgrwt>
</event>
<event>
 5    1  0.1111501E+001  0.2752736E+03  0.7818608E-02  0.1098299E+00
         -1   -1    0    0    0  501 -0.00000000000E+00  0.00000000000E+00  0.11383701284E+03  0.11383701284E+03  0.00000000000E+00 0. -1.
          1   -1    0    0  501    0  0.00000000000E+00 -0.00000000000E+00 -0.16641239960E+03  0.16641239960E+03  0.00000000000E+00 0. -1.
         35    2    1    2    0    0  0.00000000000E+00  0.00000000000E+00 -0.52575386752E+02  0.28024941244E+03  0.27527361276E+03 0.  0.
         25    1    3    3    0    0  0.24418955821E+02  0.59189651307E+02 -0.48309090335E+01  0.13609936777E+03  0.12000000000E+03 0.  0.
         25    1    3    3    0    0 -0.24418955821E+02 -0.59189651307E+02 -0.47744477718E+02  0.14415004467E+03  0.12000000000E+03 0.  0.
<mgrwt>
<rscale>  0 0.27527361E+03</rscale>
<asrwt>0</asrwt>
<pdfrwt beam="1">  1        1 0.25601908E-01 0.27527361E+03</pdfrwt>
<pdfrwt beam="2">  1       -1 0.17513387E-01 0.27527361E+03</pdfrwt>
<totfact> 0.46158314E+03</totfact>
</mgrwt>
</event>
<event>
 5    1  0.1111501E+001  0.2746278E+03  0.7818608E-02  0.1098660E+00
         -1   -1    0    0    0  501 -0.00000000000E+00  0.00000000000E+00  0.19965152216E+02  0.19965152216E+02  0.00000000000E+00 0. -1.
          1   -1    0    0  501    0  0.00000000000E+00 -0.00000000000E+00 -0.94440109394E+03  0.94440109394E+03  0.00000000000E+00 0. -1.
         35    2    1    2    0    0  0.00000000000E+00  0.00000000000E+00 -0.92443594172E+03  0.96436624615E+03  0.27462783248E+03 0.  0.
         25    1    3    3    0    0 -0.62943858285E+02  0.22029417496E+02 -0.45235619580E+03  0.47272968217E+03  0.12000000000E+03 0.  0.
         25    1    3    3    0    0  0.62943858285E+02 -0.22029417496E+02 -0.47207974592E+03  0.49163656398E+03  0.12000000000E+03 0.  0.
<mgrwt>
<rscale>  0 0.27462783E+03</rscale>
<asrwt>0</asrwt>
<pdfrwt beam="1">  1        1 0.14529251E+00 0.27462783E+03</pdfrwt>
<pdfrwt beam="2">  1       -1 0.30715612E-02 0.27462783E+03</pdfrwt>
<totfact> 0.64156464E+03</totfact>
</mgrwt>
</event>
<event>
 5    1  0.1111501E+001  0.2745894E+03  0.7818608E-02  0.1098681E+00
          1   -1    0    0  501    0  0.00000000000E+00  0.00000000000E+00  0.16203572647E+03  0.16203572647E+03  0.00000000000E+00 0. -1.
         -1   -1    0    0    0  501 -0.00000000000E+00 -0.00000000000E+00 -0.11633135990E+03  0.11633135990E+03  0.00000000000E+00 0. -1.
         35    2    1    2    0    0  0.00000000000E+00  0.00000000000E+00  0.45704366568E+02  0.27836708637E+03  0.27458941285E+03 0.  0.
         25    1    3    3    0    0 -0.45395816586E+02 -0.19612491422E+01 -0.26658324823E+02  0.13105454187E+03  0.12000000000E+03 0.  0.
         25    1    3    3    0    0  0.45395816586E+02  0.19612491422E+01  0.72362691391E+02  0.14731254450E+03  0.12000000000E+03 0.  0.
<mgrwt>
<rscale>  0 0.27458941E+03</rscale>
<asrwt>0</asrwt>
<pdfrwt beam="1">  1        1 0.24928573E-01 0.27458941E+03</pdfrwt>
<pdfrwt beam="2">  1       -1 0.17897132E-01 0.27458941E+03</pdfrwt>
<totfact> 0.46111242E+03</totfact>
</mgrwt>
</event>
<event>
 5    1  0.1111501E+001  0.2742995E+03  0.7818608E-02  0.1098844E+00
          2   -1    0    0  501    0  0.00000000000E+00  0.00000000000E+00  0.16569804739E+04  0.16569804739E+04  0.00000000000E+00 0. -1.
         -2   -1    0    0    0  501 -0.00000000000E+00 -0.00000000000E+00 -0.11352008041E+02  0.11352008041E+02  0.00000000000E+00 0. -1.
         35    2    1    2    0    0  0.00000000000E+00  0.00000000000E+00  0.16456284659E+04  0.16683324819E+04  0.27429951267E+03 0.  0.
         25    1    3    3    0    0 -0.58980056696E+02  0.30421106106E+02  0.83766874387E+03  0.84881859973E+03  0.12000000000E+03 0.  0.
         25    1    3    3    0    0  0.58980056696E+02 -0.30421106106E+02  0.80795972198E+03  0.81951388220E+03  0.12000000000E+03 0.  0.
<mgrwt>
<rscale>  0 0.27429951E+03</rscale>
<asrwt>0</asrwt>
<pdfrwt beam="1">  1        2 0.25491988E+00 0.27429951E+03</pdfrwt>
<pdfrwt beam="2">  1       -2 0.17464641E-02 0.27429951E+03</pdfrwt>
<totfact> 0.10623553E+04</totfact>
</mgrwt>
</event>
<event>
 5    1  0.1111501E+001  0.2746405E+03  0.7818608E-02  0.1098653E+00
         -1   -1    0    0    0  501 -0.00000000000E+00  0.00000000000E+00  0.62025130455E+01  0.62025130455E+01  0.00000000000E+00 0. -1.
          1   -1    0    0  501    0  0.00000000000E+00 -0.00000000000E+00 -0.30401950179E+04  0.30401950179E+04  0.00000000000E+00 0. -1.
         35    2    1    2    0    0  0.00000000000E+00  0.00000000000E+00 -0.30339925048E+04  0.30463975309E+04  0.27464048689E+03 0.  0.
         25    1    3    3    0    0  0.46675071299E+02 -0.47496242979E+02 -0.14645050283E+04  0.14709212873E+04  0.12000000000E+03 0.  0.
         25    1    3    3    0    0 -0.46675071299E+02  0.47496242979E+02 -0.15694874765E+04  0.15754762436E+04  0.12000000000E+03 0.  0.
<mgrwt>
<rscale>  0 0.27464049E+03</rscale>
<asrwt>0</asrwt>
<pdfrwt beam="1">  1        1 0.46772416E+00 0.27464049E+03</pdfrwt>
<pdfrwt beam="2">  1       -1 0.95422900E-03 0.27464049E+03</pdfrwt>
<totfact> 0.13653352E+03</totfact>
</mgrwt>
</event>
<event>
 5    1  0.1111501E+001  0.2753308E+03  0.7818608E-02  0.1098267E+00
         -2   -1    0    0    0  501 -0.00000000000E+00  0.00000000000E+00  0.19000933492E+02  0.19000933492E+02  0.00000000000E+00 0. -1.
          2   -1    0    0  501    0  0.00000000000E+00 -0.00000000000E+00 -0.99741184971E+03  0.99741184971E+03  0.00000000000E+00 0. -1.
         35    2    1    2    0    0  0.00000000000E+00  0.00000000000E+00 -0.97841091622E+03  0.10164127832E+04  0.27533075543E+03 0.  0.
         25    1    3    3    0    0 -0.61220671573E+02  0.42000801034E+01 -0.59271173762E+03  0.60784275533E+03  0.12000000000E+03 0.  0.
         25    1    3    3    0    0  0.61220671573E+02 -0.42000801034E+01 -0.38569917860E+03  0.40857002787E+03  0.12000000000E+03 0.  0.
<mgrwt>
<rscale>  0 0.27533076E+03</rscale>
<asrwt>0</asrwt>
<pdfrwt beam="1">  1        2 0.15344801E+00 0.27533076E+03</pdfrwt>
<pdfrwt beam="2">  1       -2 0.29232199E-02 0.27533076E+03</pdfrwt>
<totfact> 0.11574638E+04</totfact>
</mgrwt>
</event>
<event>
 5    1  0.1111501E+001  0.2738743E+03  0.7818608E-02  0.1099082E+00
         -2   -1    0    0    0  501 -0.00000000000E+00  0.00000000000E+00  0.18186378892E+02  0.18186378892E+02  0.00000000000E+00 0.  1.
          2   -1    0    0  501    0  0.00000000000E+00 -0.00000000000E+00 -0.10310897010E+04  0.10310897010E+04  0.00000000000E+00 0.  1.
         35    2    1    2    0    0  0.00000000000E+00  0.00000000000E+00 -0.10129033221E+04  0.10492760799E+04  0.27387433595E+03 0.  0.
         25    1    3    3    0    0  0.70472199372E+01 -0.56437715199E+02 -0.37841117211E+03  0.40103602604E+03  0.12000000000E+03 0.  0.
         25    1    3    3    0    0 -0.70472199372E+01  0.56437715199E+02 -0.63449214998E+03  0.64824005383E+03  0.12000000000E+03 0.  0.
<mgrwt>
<rscale>  0 0.27387434E+03</rscale>
<asrwt>0</asrwt>
<pdfrwt beam="1">  1        2 0.15862918E+00 0.27387434E+03</pdfrwt>
<pdfrwt beam="2">  1       -2 0.27979046E-02 0.27387434E+03</pdfrwt>
<totfact> 0.11781845E+04</totfact>
</mgrwt>
</event>
<event>
 5    1  0.1111501E+001  0.2745524E+03  0.7818608E-02  0.1098702E+00
         -1   -1    0    0    0  501 -0.00000000000E+00  0.00000000000E+00  0.32720392269E+02  0.32720392269E+02  0.00000000000E+00 0.  1.
          1   -1    0    0  501    0  0.00000000000E+00 -0.00000000000E+00 -0.57593298458E+03  0.57593298458E+03  0.00000000000E+00 0.  1.
         35    2    1    2    0    0  0.00000000000E+00  0.00000000000E+00 -0.54321259231E+03  0.60865337685E+03  0.27455238609E+03 0.  0.
         25    1    3    3    0    0  0.57394291416E+02 -0.17235059562E+01 -0.34670887412E+03  0.37135443791E+03  0.12000000000E+03 0.  0.
         25    1    3    3    0    0 -0.57394291416E+02  0.17235059562E+01 -0.19650371818E+03  0.23729893894E+03  0.12000000000E+03 0.  0.
<mgrwt>
<rscale>  0 0.27455239E+03</rscale>
<asrwt>0</asrwt>
<pdfrwt beam="1">  1        1 0.88605075E-01 0.27455239E+03</pdfrwt>
<pdfrwt beam="2">  1       -1 0.50339065E-02 0.27455239E+03</pdfrwt>
<totfact> 0.64613313E+03</totfact>
</mgrwt>
</event>
<event>
 5    1  0.1111501E+001  0.2761093E+03  0.7818608E-02  0.1097833E+00
         -1   -1    0    0    0  501 -0.00000000000E+00  0.00000000000E+00  0.21802338579E+02  0.21802338579E+02  0.00000000000E+00 0.  1.
          1   -1    0    0  501    0  0.00000000000E+00 -0.00000000000E+00 -0.87417635766E+03  0.87417635766E+03  0.00000000000E+00 0.  1.
         35    2    1    2    0    0  0.00000000000E+00  0.00000000000E+00 -0.85237401908E+03  0.89597869624E+03  0.27610931840E+03 0.  0.
         25    1    3    3    0    0 -0.51811562126E+02 -0.44408324553E+02 -0.42100344303E+03  0.44305805072E+03  0.12000000000E+03 0.  0.
         25    1    3    3    0    0  0.51811562126E+02  0.44408324553E+02 -0.43137057604E+03  0.45292064552E+03  0.12000000000E+03 0.  0.
<mgrwt>
<rscale>  0 0.27610932E+03</rscale>
<asrwt>0</asrwt>
<pdfrwt beam="1">  1        1 0.13448867E+00 0.27610932E+03</pdfrwt>
<pdfrwt beam="2">  1       -1 0.33542060E-02 0.27610932E+03</pdfrwt>
<totfact> 0.63929806E+03</totfact>
</mgrwt>
</event>
<event>
 5    1  0.1111501E+001  0.2751792E+03  0.7818608E-02  0.1098351E+00
          2   -1    0    0  501    0  0.00000000000E+00  0.00000000000E+00  0.78665014449E+02  0.78665014449E+02  0.00000000000E+00 0.  1.
         -2   -1    0    0    0  501 -0.00000000000E+00 -0.00000000000E+00 -0.24065203994E+03  0.24065203994E+03  0.00000000000E+00 0.  1.
         35    2    1    2    0    0  0.00000000000E+00  0.00000000000E+00 -0.16198702549E+03  0.31931705439E+03  0.27517918671E+03 0.  0.
         25    1    3    3    0    0 -0.10560633116E+02  0.66174154731E+02 -0.88364588031E+02  0.16339781560E+03  0.12000000000E+03 0.  0.
         25    1    3    3    0    0  0.10560633116E+02 -0.66174154731E+02 -0.73622437461E+02  0.15591923879E+03  0.12000000000E+03 0.  0.
<mgrwt>
<rscale>  0 0.27517919E+03</rscale>
<asrwt>0</asrwt>
<pdfrwt beam="1">  1        2 0.12102310E-01 0.27517919E+03</pdfrwt>
<pdfrwt beam="2">  1       -2 0.37023390E-01 0.27517919E+03</pdfrwt>
<totfact> 0.34763293E+03</totfact>
</mgrwt>
</event>
<event>
 5    1  0.1111501E+001  0.2746947E+03  0.7818608E-02  0.1098622E+00
         -1   -1    0    0    0  501 -0.00000000000E+00  0.00000000000E+00  0.12677274165E+02  0.12677274165E+02  0.00000000000E+00 0.  1.
          1   -1    0    0  501    0  0.00000000000E+00 -0.00000000000E+00 -0.14880402426E+04  0.14880402426E+04  0.00000000000E+00 0.  1.
         35    2    1    2    0    0  0.00000000000E+00  0.00000000000E+00 -0.14753629685E+04  0.15007175168E+04  0.27469469689E+03 0.  0.
         25    1    3    3    0    0 -0.45326479361E+02 -0.35181677683E+02 -0.55064665917E+03  0.56648387747E+03  0.12000000000E+03 0.  0.
         25    1    3    3    0    0  0.45326479361E+02  0.35181677683E+02 -0.92471630928E+03  0.93423363931E+03  0.12000000000E+03 0.  0.
<mgrwt>
<rscale>  0 0.27469470E+03</rscale>
<asrwt>0</asrwt>
<pdfrwt beam="1">  1        1 0.22892939E+00 0.27469470E+03</pdfrwt>
<pdfrwt beam="2">  1       -1 0.19503488E-02 0.27469470E+03</pdfrwt>
<totfact> 0.51849241E+03</totfact>
</mgrwt>
</event>
<event>
 5    1  0.1111501E+001  0.2748128E+03  0.7818608E-02  0.1098556E+00
          2   -1    0    0  501    0  0.00000000000E+00  0.00000000000E+00  0.18824310336E+04  0.18824310336E+04  0.00000000000E+00 0.  1.
         -2   -1    0    0    0  501 -0.00000000000E+00 -0.00000000000E+00 -0.10029855954E+02  0.10029855954E+02  0.00000000000E+00 0.  1.
         35    2    1    2    0    0  0.00000000000E+00  0.00000000000E+00  0.18724011776E+04  0.18924608895E+04  0.27481275160E+03 0.  0.
         25    1    3    3    0    0  0.33926894672E+02  0.57022414282E+02  0.87541220055E+03  0.88608640142E+03  0.12000000000E+03 0.  0.
         25    1    3    3    0    0 -0.33926894672E+02 -0.57022414282E+02  0.99698897707E+03  0.10063744881E+04  0.12000000000E+03 0.  0.
<mgrwt>
<rscale>  0 0.27481275E+03</rscale>
<asrwt>0</asrwt>
<pdfrwt beam="1">  1        2 0.28960449E+00 0.27481275E+03</pdfrwt>
<pdfrwt beam="2">  1       -2 0.15430563E-02 0.27481275E+03</pdfrwt>
<totfact> 0.96953856E+03</totfact>
</mgrwt>
</event>
<event>
 5    1  0.1111501E+001  0.2741134E+03  0.7818608E-02  0.1098948E+00
         -2   -1    0    0    0  501 -0.00000000000E+00  0.00000000000E+00  0.14248597483E+02  0.14248597483E+02  0.00000000000E+00 0.  1.
          2   -1    0    0  501    0  0.00000000000E+00 -0.00000000000E+00 -0.13183433746E+04  0.13183433746E+04  0.00000000000E+00 0.  1.
         35    2    1    2    0    0  0.00000000000E+00  0.00000000000E+00 -0.13040947771E+04  0.13325919720E+04  0.27411343702E+03 0.  0.
         25    1    3    3    0    0 -0.16650264888E+02 -0.35059987973E+02 -0.91285518059E+03  0.92152645909E+03  0.12000000000E+03 0.  0.
         25    1    3    3    0    0  0.16650264888E+02  0.35059987973E+02 -0.39123959649E+03  0.41106551295E+03  0.12000000000E+03 0.  0.
<mgrwt>
<rscale>  0 0.27411344E+03</rscale>
<asrwt>0</asrwt>
<pdfrwt beam="1">  1        2 0.20282210E+00 0.27411344E+03</pdfrwt>
<pdfrwt beam="2">  1       -2 0.21920915E-02 0.27411344E+03</pdfrwt>
<totfact> 0.11562609E+04</totfact>
</mgrwt>
</event>
<event>
 5    1  0.1111501E+001  0.2746606E+03  0.7818608E-02  0.1098641E+00
         -1   -1    0    0    0  501 -0.00000000000E+00  0.00000000000E+00  0.11991405886E+03  0.11991405886E+03  0.00000000000E+00 0.  1.
          1   -1    0    0  501    0  0.00000000000E+00 -0.00000000000E+00 -0.15727606661E+03  0.15727606661E+03  0.00000000000E+00 0.  1.
         35    2    1    2    0    0  0.00000000000E+00  0.00000000000E+00 -0.37362007749E+02  0.27719012546E+03  0.27466060153E+03 0.  0.
         25    1    3    3    0    0  0.63404253071E+01  0.62588164109E+02 -0.41295683336E+02  0.14164325872E+03  0.12000000000E+03 0.  0.
         25    1    3    3    0    0 -0.63404253071E+01 -0.62588164109E+02  0.39336755868E+01  0.13554686674E+03  0.12000000000E+03 0.  0.
<mgrwt>
<rscale>  0 0.27466060E+03</rscale>
<asrwt>0</asrwt>
<pdfrwt beam="1">  1        1 0.24196318E-01 0.27466060E+03</pdfrwt>
<pdfrwt beam="2">  1       -1 0.18448317E-01 0.27466060E+03</pdfrwt>
<totfact> 0.45612020E+03</totfact>
</mgrwt>
</event>
<event>
 5    1  0.1111501E+001  0.2741278E+03  0.7818608E-02  0.1098940E+00
         -2   -1    0    0    0  501 -0.00000000000E+00  0.00000000000E+00  0.13978632492E+03  0.13978632492E+03  0.00000000000E+00 0. -1.
          2   -1    0    0  501    0  0.00000000000E+00 -0.00000000000E+00 -0.13439445327E+03  0.13439445327E+03  0.00000000000E+00 0. -1.
         35    2    1    2    0    0  0.00000000000E+00  0.00000000000E+00  0.53918716540E+01  0.27418077818E+03  0.27412775643E+03 0.  0.
         25    1    3    3    0    0  0.36199125434E+02  0.54926572116E+02 -0.49998168160E+01  0.13693904912E+03  0.12000000000E+03 0.  0.
         25    1    3    3    0    0 -0.36199125434E+02 -0.54926572116E+02  0.10391688470E+02  0.13724172906E+03  0.12000000000E+03 0.  0.
<mgrwt>
<rscale>  0 0.27412776E+03</rscale>
<asrwt>0</asrwt>
<pdfrwt beam="1">  1        2 0.20676070E-01 0.27412776E+03</pdfrwt>
<pdfrwt beam="2">  1       -2 0.21505588E-01 0.27412776E+03</pdfrwt>
<totfact> 0.49180560E+03</totfact>
</mgrwt>
</event>
<event>
 5    1  0.1111501E+001  0.2732181E+03  0.7818608E-02  0.1099452E+00
         -1   -1    0    0    0  501 -0.00000000000E+00  0.00000000000E+00  0.48273844704E+02  0.48273844704E+02  0.00000000000E+00 0.  1.
          1   -1    0    0  501    0  0.00000000000E+00 -0.00000000000E+00 -0.38658681867E+03  0.38658681867E+03  0.00000000000E+00 0.  1.
         35    2    1    2    0    0  0.00000000000E+00  0.00000000000E+00 -0.33831297396E+03  0.43486066337E+03  0.27321809639E+03 0.  0.
         25    1    3    3    0    0 -0.33612894500E+02 -0.40065712862E+02 -0.10696195252E+03  0.16904421703E+03  0.12000000000E+03 0.  0.
         25    1    3    3    0    0  0.33612894500E+02  0.40065712862E+02 -0.23135102144E+03  0.26581644634E+03  0.12000000000E+03 0.  0.
<mgrwt>
<rscale>  0 0.27321810E+03</rscale>
<asrwt>0</asrwt>
<pdfrwt beam="1">  1        1 0.59474898E-01 0.27321810E+03</pdfrwt>
<pdfrwt beam="2">  1       -1 0.74267450E-02 0.27321810E+03</pdfrwt>
<totfact> 0.60734573E+03</totfact>
</mgrwt>
</event>
<event>
 5    1  0.1111501E+001  0.2763469E+03  0.7818608E-02  0.1097701E+00
          1   -1    0    0  501    0  0.00000000000E+00  0.00000000000E+00  0.73245169306E+03  0.73245169306E+03  0.00000000000E+00 0. -1.
         -1   -1    0    0    0  501 -0.00000000000E+00 -0.00000000000E+00 -0.26065754535E+02  0.26065754535E+02  0.00000000000E+00 0. -1.
         35    2    1    2    0    0  0.00000000000E+00  0.00000000000E+00  0.70638593852E+03  0.75851744759E+03  0.27634692718E+03 0.  0.
         25    1    3    3    0    0 -0.60659762309E+02  0.16453133648E+02  0.42793999945E+03  0.44886852808E+03  0.12000000000E+03 0.  0.
         25    1    3    3    0    0  0.60659762309E+02 -0.16453133648E+02  0.27844593907E+03  0.30964891951E+03  0.12000000000E+03 0.  0.
<mgrwt>
<rscale>  0 0.27634693E+03</rscale>
<asrwt>0</asrwt>
<pdfrwt beam="1">  1        1 0.11268486E+00 0.27634693E+03</pdfrwt>
<pdfrwt beam="2">  1       -1 0.40101166E-02 0.27634693E+03</pdfrwt>
<totfact> 0.64425492E+03</totfact>
</mgrwt>
</event>
<event>
 5    1  0.1111501E+001  0.2749845E+03  0.7818608E-02  0.1098460E+00
          2   -1    0    0  501    0  0.00000000000E+00  0.00000000000E+00  0.67966849350E+02  0.67966849350E+02  0.00000000000E+00 0. -1.
         -2   -1    0    0    0  501 -0.00000000000E+00 -0.00000000000E+00 -0.27813737457E+03  0.27813737457E+03  0.00000000000E+00 0. -1.
         35    2    1    2    0    0  0.00000000000E+00  0.00000000000E+00 -0.21017052523E+03  0.34610422392E+03  0.27498451619E+03 0.  0.
         25    1    3    3    0    0 -0.10970388318E+02  0.33327376978E+02 -0.17709238916E+03  0.21677817643E+03  0.12000000000E+03 0.  0.
         25    1    3    3    0    0  0.10970388318E+02 -0.33327376978E+02 -0.33078136066E+02  0.12932604750E+03  0.12000000000E+03 0.  0.
<mgrwt>
<rscale>  0 0.27498452E+03</rscale>
<asrwt>0</asrwt>
<pdfrwt beam="1">  1        2 0.10456438E-01 0.27498452E+03</pdfrwt>
<pdfrwt beam="2">  1       -2 0.42790366E-01 0.27498452E+03</pdfrwt>
<totfact> 0.31548546E+03</totfact>
</mgrwt>
</event>
<event>
 5    1  0.1111501E+001  0.2737208E+03  0.7818608E-02  0.1099169E+00
         -2   -1    0    0    0  501 -0.00000000000E+00  0.00000000000E+00  0.27966256999E+02  0.27966256999E+02  0.00000000000E+00 0. -1.
          2   -1    0    0  501    0  0.00000000000E+00 -0.00000000000E+00 -0.66976329992E+03  0.66976329992E+03  0.00000000000E+00 0. -1.
         35    2    1    2    0    0  0.00000000000E+00  0.00000000000E+00 -0.64179704292E+03  0.69772955692E+03  0.27372082547E+03 0.  0.
         25    1    3    3    0    0  0.56735959064E+02  0.16122679291E+02 -0.24650003678E+03  0.28043034424E+03  0.12000000000E+03 0.  0.
         25    1    3    3    0    0 -0.56735959064E+02 -0.16122679291E+02 -0.39529700614E+03  0.41729921268E+03  0.12000000000E+03 0.  0.
<mgrwt>
<rscale>  0 0.27372083E+03</rscale>
<asrwt>0</asrwt>
<pdfrwt beam="1">  1        2 0.10304051E+00 0.27372083E+03</pdfrwt>
<pdfrwt beam="2">  1       -2 0.43025009E-02 0.27372083E+03</pdfrwt>
<totfact> 0.10844130E+04</totfact>
</mgrwt>
</event>
<event>
 5    1  0.1111501E+001  0.2748148E+03  0.7818608E-02  0.1098555E+00
         -1   -1    0    0    0  501 -0.00000000000E+00  0.00000000000E+00  0.19136336465E+04  0.19136336465E+04  0.00000000000E+00 0.  1.
          1   -1    0    0  501    0  0.00000000000E+00 -0.00000000000E+00 -0.98664642502E+01  0.98664642502E+01  0.00000000000E+00 0.  1.
         35    2    1    2    0    0  0.00000000000E+00  0.00000000000E+00  0.19037671823E+04  0.19235001108E+04  0.27481483193E+03 0.  0.
         25    1    3    3    0    0  0.60292815810E+02 -0.17332635838E+02  0.11153060242E+04  0.11234959598E+04  0.12000000000E+03 0.  0.
         25    1    3    3    0    0 -0.60292815810E+02  0.17332635838E+02  0.78846115804E+03  0.80000415102E+03  0.12000000000E+03 0.  0.
<mgrwt>
<rscale>  0 0.27481483E+03</rscale>
<asrwt>0</asrwt>
<pdfrwt beam="1">  1        1 0.15179191E-02 0.27481483E+03</pdfrwt>
<pdfrwt beam="2">  1       -1 0.29440488E+00 0.27481483E+03</pdfrwt>
<totfact> 0.37447555E+02</totfact>
</mgrwt>
</event>
<event>
 5    1  0.1111501E+001  0.2744801E+03  0.7818608E-02  0.1098743E+00
         -1   -1    0    0    0  501 -0.00000000000E+00  0.00000000000E+00  0.73173846213E+03  0.73173846213E+03  0.00000000000E+00 0.  1.
          1   -1    0    0  501    0  0.00000000000E+00 -0.00000000000E+00 -0.25739847451E+02  0.25739847451E+02  0.00000000000E+00 0.  1.
         35    2    1    2    0    0  0.00000000000E+00  0.00000000000E+00  0.70599861468E+03  0.75747830958E+03  0.27448013691E+03 0.  0.
         25    1    3    3    0    0  0.51381144166E+01 -0.62630868944E+02  0.29217282596E+03  0.32204655904E+03  0.12000000000E+03 0.  0.
         25    1    3    3    0    0 -0.51381144166E+01  0.62630868944E+02  0.41382578872E+03  0.43543175054E+03  0.12000000000E+03 0.  0.
<mgrwt>
<rscale>  0 0.27448014E+03</rscale>
<asrwt>0</asrwt>
<pdfrwt beam="1">  1        1 0.39599771E-02 0.27448014E+03</pdfrwt>
<pdfrwt beam="2">  1       -1 0.11257513E+00 0.27448014E+03</pdfrwt>
<totfact> 0.17716938E+03</totfact>
</mgrwt>
</event>
<event>
 5    1  0.1111501E+001  0.2748601E+03  0.7818608E-02  0.1098530E+00
         -1   -1    0    0    0  501 -0.00000000000E+00  0.00000000000E+00  0.25561692581E+03  0.25561692581E+03  0.00000000000E+00 0.  1.
          1   -1    0    0  501    0  0.00000000000E+00 -0.00000000000E+00 -0.73887970944E+02  0.73887970944E+02  0.00000000000E+00 0.  1.
         35    2    1    2    0    0  0.00000000000E+00  0.00000000000E+00  0.18172895487E+03  0.32950489675E+03  0.27486008067E+03 0.  0.
         25    1    3    3    0    0  0.23691905741E+02  0.62465760935E+02  0.96705313412E+02  0.16797379358E+03  0.12000000000E+03 0.  0.
         25    1    3    3    0    0 -0.23691905741E+02 -0.62465760935E+02  0.85023641454E+02  0.16153110317E+03  0.12000000000E+03 0.  0.
<mgrwt>
<rscale>  0 0.27486008E+03</rscale>
<asrwt>0</asrwt>
<pdfrwt beam="1">  1        1 0.11367380E-01 0.27486008E+03</pdfrwt>
<pdfrwt beam="2">  1       -1 0.39325680E-01 0.27486008E+03</pdfrwt>
<totfact> 0.34185583E+03</totfact>
</mgrwt>
</event>
<event>
 5    1  0.1111501E+001  0.2741747E+03  0.7818608E-02  0.1098914E+00
         -3   -1    0    0    0  501 -0.00000000000E+00  0.00000000000E+00  0.32403127752E+02  0.32403127752E+02  0.00000000000E+00 0.  1.
          3   -1    0    0  501    0  0.00000000000E+00 -0.00000000000E+00 -0.57997293630E+03  0.57997293630E+03  0.00000000000E+00 0.  1.
         35    2    1    2    0    0  0.00000000000E+00  0.00000000000E+00 -0.54756980855E+03  0.61237606406E+03  0.27417466803E+03 0.  0.
         25    1    3    3    0    0 -0.99941999820E+00 -0.62597654311E+02 -0.22518470801E+03  0.26273107523E+03  0.12000000000E+03 0.  0.
         25    1    3    3    0    0  0.99941999820E+00  0.62597654311E+02 -0.32238510054E+03  0.34964498883E+03  0.12000000000E+03 0.  0.
<mgrwt>
<rscale>  0 0.27417467E+03</rscale>
<asrwt>0</asrwt>
<pdfrwt beam="1">  1        3 0.89226602E-01 0.27417467E+03</pdfrwt>
<pdfrwt beam="2">  1       -3 0.49850968E-02 0.27417467E+03</pdfrwt>
<totfact> 0.68200144E+02</totfact>
</mgrwt>
</event>
<event>
 5    1  0.1111501E+001  0.2749237E+03  0.7818608E-02  0.1098494E+00
         -2   -1    0    0    0  501 -0.00000000000E+00  0.00000000000E+00  0.12118477577E+02  0.12118477577E+02  0.00000000000E+00 0. -1.
          2   -1    0    0  501    0  0.00000000000E+00 -0.00000000000E+00 -0.15592515896E+04  0.15592515896E+04  0.00000000000E+00 0. -1.
         35    2    1    2    0    0  0.00000000000E+00  0.00000000000E+00 -0.15471331121E+04  0.15713700672E+04  0.27492366524E+03 0.  0.
         25    1    3    3    0    0  0.15457128587E+02  0.42959396557E+02 -0.10542352874E+04  0.10620247049E+04  0.12000000000E+03 0.  0.
         25    1    3    3    0    0 -0.15457128587E+02 -0.42959396557E+02 -0.49289782464E+03  0.50934536232E+03  0.12000000000E+03 0.  0.
<mgrwt>
<rscale>  0 0.27492367E+03</rscale>
<asrwt>0</asrwt>
<pdfrwt beam="1">  1        2 0.23988482E+00 0.27492367E+03</pdfrwt>
<pdfrwt beam="2">  1       -2 0.18643814E-02 0.27492367E+03</pdfrwt>
<totfact> 0.10874289E+04</totfact>
</mgrwt>
</event>
<event>
 5    1  0.1111501E+001  0.2746436E+03  0.7818608E-02  0.1098651E+00
          2   -1    0    0  501    0  0.00000000000E+00  0.00000000000E+00  0.16910694250E+04  0.16910694250E+04  0.00000000000E+00 0.  1.
         -2   -1    0    0    0  501 -0.00000000000E+00 -0.00000000000E+00 -0.11151096353E+02  0.11151096353E+02  0.00000000000E+00 0.  1.
         35    2    1    2    0    0  0.00000000000E+00  0.00000000000E+00  0.16799183287E+04  0.17022205214E+04  0.27464360977E+03 0.  0.
         25    1    3    3    0    0  0.60738623388E+02 -0.27688315390E+02  0.83248323051E+03  0.84373227523E+03  0.12000000000E+03 0.  0.
         25    1    3    3    0    0 -0.60738623388E+02  0.27688315390E+02  0.84743509816E+03  0.85848824615E+03  0.12000000000E+03 0.  0.
<mgrwt>
<rscale>  0 0.27464361E+03</rscale>
<asrwt>0</asrwt>
<pdfrwt beam="1">  1        2 0.26016432E+00 0.27464361E+03</pdfrwt>
<pdfrwt beam="2">  1       -2 0.17155546E-02 0.27464361E+03</pdfrwt>
<totfact> 0.10463518E+04</totfact>
</mgrwt>
</event>
<event>
 5    1  0.1111501E+001  0.2753437E+03  0.7818608E-02  0.1098260E+00
         -1   -1    0    0    0  501 -0.00000000000E+00  0.00000000000E+00  0.84767880301E+02  0.84767880301E+02  0.00000000000E+00 0. -1.
          1   -1    0    0  501    0  0.00000000000E+00 -0.00000000000E+00 -0.22359341814E+03  0.22359341814E+03  0.00000000000E+00 0. -1.
         35    2    1    2    0    0  0.00000000000E+00  0.00000000000E+00 -0.13882553784E+03  0.30836129844E+03  0.27534371324E+03 0.  0.
         25    1    3    3    0    0 -0.63465295349E+02 -0.15606553332E+02 -0.50601816487E+02  0.14571188027E+03  0.12000000000E+03 0.  0.
         25    1    3    3    0    0  0.63465295349E+02  0.15606553332E+02 -0.88223721348E+02  0.16264941816E+03  0.12000000000E+03 0.  0.
<mgrwt>
<rscale>  0 0.27534371E+03</rscale>
<asrwt>0</asrwt>
<pdfrwt beam="1">  1        1 0.34398987E-01 0.27534371E+03</pdfrwt>
<pdfrwt beam="2">  1       -1 0.13041212E-01 0.27534371E+03</pdfrwt>
<totfact> 0.50767732E+03</totfact>
</mgrwt>
</event>
<event>
 5    1  0.1111501E+001  0.2702796E+03  0.7818608E-02  0.1101120E+00
          1   -1    0    0  501    0  0.00000000000E+00  0.00000000000E+00  0.18941544635E+04  0.18941544635E+04  0.00000000000E+00 0.  1.
         -1   -1    0    0    0  501 -0.00000000000E+00 -0.00000000000E+00 -0.96416484901E+01  0.96416484901E+01  0.00000000000E+00 0.  1.
         35    2    1    2    0    0  0.00000000000E+00  0.00000000000E+00  0.18845128150E+04  0.19037961119E+04  0.27027964424E+03 0.  0.
         25    1    3    3    0    0 -0.53506085782E+02  0.21562892559E+02  0.11051665996E+04  0.11131581524E+04  0.12000000000E+03 0.  0.
         25    1    3    3    0    0  0.53506085782E+02 -0.21562892559E+02  0.77934621542E+03  0.79063795952E+03  0.12000000000E+03 0.  0.
<mgrwt>
<rscale>  0 0.27027964E+03</rscale>
<asrwt>0</asrwt>
<pdfrwt beam="1">  1        1 0.29140808E+00 0.27027964E+03</pdfrwt>
<pdfrwt beam="2">  1       -1 0.14833320E-02 0.27027964E+03</pdfrwt>
<totfact> 0.41926486E+03</totfact>
</mgrwt>
</event>
<event>
 5    1  0.1111501E+001  0.2743030E+03  0.7818608E-02  0.1098842E+00
         -2   -1    0    0    0  501 -0.00000000000E+00  0.00000000000E+00  0.12897880778E+02  0.12897880778E+02  0.00000000000E+00 0.  1.
          2   -1    0    0  501    0  0.00000000000E+00 -0.00000000000E+00 -0.14584206870E+04  0.14584206870E+04  0.00000000000E+00 0.  1.
         35    2    1    2    0    0  0.00000000000E+00  0.00000000000E+00 -0.14455228062E+04  0.14713185678E+04  0.27430301599E+03 0.  0.
         25    1    3    3    0    0 -0.51813748711E+02 -0.23613424811E+02 -0.53942479713E+03  0.55553701060E+03  0.12000000000E+03 0.  0.
         25    1    3    3    0    0  0.51813748711E+02  0.23613424811E+02 -0.90609800911E+03  0.91578155719E+03  0.12000000000E+03 0.  0.
<mgrwt>
<rscale>  0 0.27430302E+03</rscale>
<asrwt>0</asrwt>
<pdfrwt beam="1">  1        2 0.22437254E+00 0.27430302E+03</pdfrwt>
<pdfrwt beam="2">  1       -2 0.19842882E-02 0.27430302E+03</pdfrwt>
<totfact> 0.11233516E+04</totfact>
</mgrwt>
</event>
<event>
 5    1  0.1111501E+001  0.2755950E+03  0.7818608E-02  0.1098119E+00
         -2   -1    0    0    0  501 -0.00000000000E+00  0.00000000000E+00  0.56349835511E+02  0.56349835511E+02  0.00000000000E+00 0.  1.
          2   -1    0    0  501    0  0.00000000000E+00 -0.00000000000E+00 -0.33696913113E+03  0.33696913113E+03  0.00000000000E+00 0.  1.
         35    2    1    2    0    0  0.00000000000E+00  0.00000000000E+00 -0.28061929562E+03  0.39331896665E+03  0.27559502979E+03 0.  0.
         25    1    3    3    0    0 -0.20461760437E+02  0.44667605804E+01 -0.23224285569E+03  0.26225060459E+03  0.12000000000E+03 0.  0.
         25    1    3    3    0    0  0.20461760437E+02 -0.44667605804E+01 -0.48376439930E+02  0.13106836205E+03  0.12000000000E+03 0.  0.
<mgrwt>
<rscale>  0 0.27559503E+03</rscale>
<asrwt>0</asrwt>
<pdfrwt beam="1">  1        2 0.51841405E-01 0.27559503E+03</pdfrwt>
<pdfrwt beam="2">  1       -2 0.86692055E-02 0.27559503E+03</pdfrwt>
<totfact> 0.79669719E+03</totfact>
</mgrwt>
</event>
<event>
 5    1  0.1111501E+001  0.2759116E+03  0.7818608E-02  0.1097943E+00
         -2   -1    0    0    0  501 -0.00000000000E+00  0.00000000000E+00  0.50426101105E+02  0.50426101105E+02  0.00000000000E+00 0.  1.
          2   -1    0    0  501    0  0.00000000000E+00 -0.00000000000E+00 -0.37741966576E+03  0.37741966576E+03  0.00000000000E+00 0.  1.
         35    2    1    2    0    0  0.00000000000E+00  0.00000000000E+00 -0.32699356465E+03  0.42784576686E+03  0.27591159617E+03 0.  0.
         25    1    3    3    0    0 -0.36031828113E+02  0.18303159591E+02 -0.78584679260E+02  0.14902634030E+03  0.12000000000E+03 0.  0.
         25    1    3    3    0    0  0.36031828113E+02 -0.18303159591E+02 -0.24840888539E+03  0.27881942657E+03  0.12000000000E+03 0.  0.
<mgrwt>
<rscale>  0 0.27591160E+03</rscale>
<asrwt>0</asrwt>
<pdfrwt beam="1">  1        2 0.58064562E-01 0.27591160E+03</pdfrwt>
<pdfrwt beam="2">  1       -2 0.77578620E-02 0.27591160E+03</pdfrwt>
<totfact> 0.83872161E+03</totfact>
</mgrwt>
</event>
<event>
 5    1  0.1111501E+001  0.2748732E+03  0.7818608E-02  0.1098523E+00
         -4   -1    0    0    0  501 -0.00000000000E+00  0.00000000000E+00  0.16552775830E+03  0.16552775830E+03  0.00000000000E+00 0. -1.
          4   -1    0    0  501    0  0.00000000000E+00 -0.00000000000E+00 -0.11411267859E+03  0.11411267859E+03  0.00000000000E+00 0. -1.
         35    2    1    2    0    0  0.00000000000E+00  0.00000000000E+00  0.51415079713E+02  0.27964043690E+03  0.27487317717E+03 0.  0.
         25    1    3    3    0    0 -0.57749906641E+02  0.28764752760E+02  0.73289780674E+01  0.13644111051E+03  0.12000000000E+03 0.  0.
         25    1    3    3    0    0  0.57749906641E+02 -0.28764752760E+02  0.44086101646E+02  0.14319932638E+03  0.12000000000E+03 0.  0.
<mgrwt>
<rscale>  0 0.27487318E+03</rscale>
<asrwt>0</asrwt>
<pdfrwt beam="1">  1        4 0.17555797E-01 0.27487318E+03</pdfrwt>
<pdfrwt beam="2">  1       -4 0.25465809E-01 0.27487318E+03</pdfrwt>
<totfact> 0.77429628E+02</totfact>
</mgrwt>
</event>
<event>
 5    1  0.1111501E+001  0.2754248E+03  0.7818608E-02  0.1098214E+00
          2   -1    0    0  501    0  0.00000000000E+00  0.00000000000E+00  0.18015950512E+03  0.18015950512E+03  0.00000000000E+00 0. -1.
         -2   -1    0    0    0  501 -0.00000000000E+00 -0.00000000000E+00 -0.10526619773E+03  0.10526619773E+03  0.00000000000E+00 0. -1.
         35    2    1    2    0    0  0.00000000000E+00  0.00000000000E+00  0.74893307392E+02  0.28542570285E+03  0.27542480709E+03 0.  0.
         25    1    3    3    0    0  0.11816907252E+02 -0.63480044009E+02  0.58052067426E+02  0.14811953894E+03  0.12000000000E+03 0.  0.
         25    1    3    3    0    0 -0.11816907252E+02  0.63480044009E+02  0.16841239965E+02  0.13730616391E+03  0.12000000000E+03 0.  0.
<mgrwt>
<rscale>  0 0.27542481E+03</rscale>
<asrwt>0</asrwt>
<pdfrwt beam="1">  1        2 0.27716847E-01 0.27542481E+03</pdfrwt>
<pdfrwt beam="2">  1       -2 0.16194800E-01 0.27542481E+03</pdfrwt>
<totfact> 0.57256236E+03</totfact>
</mgrwt>
</event>
<event>
 5    1  0.1111501E+001  0.2754759E+03  0.7818608E-02  0.1098186E+00
         -2   -1    0    0    0  501 -0.00000000000E+00  0.00000000000E+00  0.12866383065E+02  0.12866383065E+02  0.00000000000E+00 0.  1.
          2   -1    0    0  501    0  0.00000000000E+00 -0.00000000000E+00 -0.14745198255E+04  0.14745198255E+04  0.00000000000E+00 0.  1.
         35    2    1    2    0    0  0.00000000000E+00  0.00000000000E+00 -0.14616534424E+04  0.14873862086E+04  0.27547585674E+03 0.  0.
         25    1    3    3    0    0 -0.15750310608E+01  0.47366939244E+01 -0.10949044262E+04  0.11014720239E+04  0.12000000000E+03 0.  0.
         25    1    3    3    0    0  0.15750310608E+01 -0.47366939244E+01 -0.36674901627E+03  0.38591418466E+03  0.12000000000E+03 0.  0.
<mgrwt>
<rscale>  0 0.27547586E+03</rscale>
<asrwt>0</asrwt>
<pdfrwt beam="1">  1        2 0.22684913E+00 0.27547586E+03</pdfrwt>
<pdfrwt beam="2">  1       -2 0.19794442E-02 0.27547586E+03</pdfrwt>
<totfact> 0.11052559E+04</totfact>
</mgrwt>
</event>
<event>
 5    1  0.1111501E+001  0.2752574E+03  0.7818608E-02  0.1098308E+00
         -1   -1    0    0    0  501 -0.00000000000E+00  0.00000000000E+00  0.91710843024E+01  0.91710843024E+01  0.00000000000E+00 0.  1.
          1   -1    0    0  501    0  0.00000000000E+00 -0.00000000000E+00 -0.20653678624E+04  0.20653678624E+04  0.00000000000E+00 0.  1.
         35    2    1    2    0    0  0.00000000000E+00  0.00000000000E+00 -0.20561967781E+04  0.20745389467E+04  0.27525742701E+03 0.  0.
         25    1    3    3    0    0  0.35822767808E+02 -0.27119275558E+02 -0.64953749560E+03  0.66205565022E+03  0.12000000000E+03 0.  0.
         25    1    3    3    0    0 -0.35822767808E+02  0.27119275558E+02 -0.14066592825E+04  0.14124832965E+04  0.12000000000E+03 0.  0.
<mgrwt>
<rscale>  0 0.27525743E+03</rscale>
<asrwt>0</asrwt>
<pdfrwt beam="1">  1        1 0.31774879E+00 0.27525743E+03</pdfrwt>
<pdfrwt beam="2">  1       -1 0.14109365E-02 0.27525743E+03</pdfrwt>
<totfact> 0.34907917E+03</totfact>
</mgrwt>
</event>
<event>
 5    1  0.1111501E+001  0.2739038E+03  0.7818608E-02  0.1099066E+00
         -1   -1    0    0    0  501 -0.00000000000E+00  0.00000000000E+00  0.15790103586E+03  0.15790103586E+03  0.00000000000E+00 0. -1.
          1   -1    0    0  501    0  0.00000000000E+00 -0.00000000000E+00 -0.11878214035E+03  0.11878214035E+03  0.00000000000E+00 0. -1.
         35    2    1    2    0    0  0.00000000000E+00  0.00000000000E+00  0.39118895516E+02  0.27668317621E+03  0.27390380065E+03 0.  0.
         25    1    3    3    0    0  0.13523805852E+02 -0.47244229512E+02  0.64062281690E+02  0.14463362846E+03  0.12000000000E+03 0.  0.
         25    1    3    3    0    0 -0.13523805852E+02  0.47244229512E+02 -0.24943386174E+02  0.13204954775E+03  0.12000000000E+03 0.  0.
<mgrwt>
<rscale>  0 0.27390380E+03</rscale>
<asrwt>0</asrwt>
<pdfrwt beam="1">  1        1 0.18274175E-01 0.27390380E+03</pdfrwt>
<pdfrwt beam="2">  1       -1 0.24292467E-01 0.27390380E+03</pdfrwt>
<totfact> 0.41714253E+03</totfact>
</mgrwt>
</event>
<event>
 5    1  0.1111501E+001  0.2749024E+03  0.7818608E-02  0.1098506E+00
          1   -1    0    0  501    0  0.00000000000E+00  0.00000000000E+00  0.80195552916E+02  0.80195552916E+02  0.00000000000E+00 0.  1.
         -1   -1    0    0    0  501 -0.00000000000E+00 -0.00000000000E+00 -0.23558461686E+03  0.23558461686E+03  0.00000000000E+00 0.  1.
         35    2    1    2    0    0  0.00000000000E+00  0.00000000000E+00 -0.15538906394E+03  0.31578016977E+03  0.27490244530E+03 0.  0.
         25    1    3    3    0    0  0.95996249084E+01  0.65874831636E+02 -0.68708770759E+02  0.15346837270E+03  0.12000000000E+03 0.  0.
         25    1    3    3    0    0 -0.95996249084E+01 -0.65874831636E+02 -0.86680293183E+02  0.16231179707E+03  0.12000000000E+03 0.  0.
<mgrwt>
<rscale>  0 0.27490245E+03</rscale>
<asrwt>0</asrwt>
<pdfrwt beam="1">  1        1 0.12337778E-01 0.27490245E+03</pdfrwt>
<pdfrwt beam="2">  1       -1 0.36243786E-01 0.27490245E+03</pdfrwt>
<totfact> 0.35382969E+03</totfact>
</mgrwt>
</event>
<event>
 5    1  0.1111501E+001  0.2753902E+03  0.7818608E-02  0.1098234E+00
          2   -1    0    0  501    0  0.00000000000E+00  0.00000000000E+00  0.47385524776E+03  0.47385524776E+03  0.00000000000E+00 0.  1.
         -2   -1    0    0    0  501 -0.00000000000E+00 -0.00000000000E+00 -0.40012104946E+02  0.40012104946E+02  0.00000000000E+00 0.  1.
         35    2    1    2    0    0  0.00000000000E+00  0.00000000000E+00  0.43384314281E+03  0.51386735271E+03  0.27539023877E+03 0.  0.
         25    1    3    3    0    0  0.11506618636E+02  0.29542017528E+02  0.10566879611E+03  0.16300621934E+03  0.12000000000E+03 0.  0.
         25    1    3    3    0    0 -0.11506618636E+02 -0.29542017528E+02  0.32817434670E+03  0.35086113337E+03  0.12000000000E+03 0.  0.
<mgrwt>
<rscale>  0 0.27539024E+03</rscale>
<asrwt>0</asrwt>
<pdfrwt beam="1">  1        2 0.72900804E-01 0.27539024E+03</pdfrwt>
<pdfrwt beam="2">  1       -2 0.61557088E-02 0.27539024E+03</pdfrwt>
<totfact> 0.93532200E+03</totfact>
</mgrwt>
</event>
<event>
 5    1  0.1111501E+001  0.2735133E+03  0.7818608E-02  0.1099286E+00
          2   -1    0    0  501    0  0.00000000000E+00  0.00000000000E+00  0.10817923577E+04  0.10817923577E+04  0.00000000000E+00 0. -1.
         -2   -1    0    0    0  501 -0.00000000000E+00 -0.00000000000E+00 -0.17288327361E+02  0.17288327361E+02  0.00000000000E+00 0. -1.
         35    2    1    2    0    0  0.00000000000E+00  0.00000000000E+00  0.10645040304E+04  0.10990806851E+04  0.27351329340E+03 0.  0.
         25    1    3    3    0    0 -0.60083662814E+02 -0.25758512893E+02  0.51067480704E+03  0.52864194505E+03  0.12000000000E+03 0.  0.
         25    1    3    3    0    0  0.60083662814E+02  0.25758512893E+02  0.55382922331E+03  0.57043874002E+03  0.12000000000E+03 0.  0.
<mgrwt>
<rscale>  0 0.27351329E+03</rscale>
<asrwt>0</asrwt>
<pdfrwt beam="1">  1        2 0.16642954E+00 0.27351329E+03</pdfrwt>
<pdfrwt beam="2">  1       -2 0.26597435E-02 0.27351329E+03</pdfrwt>
<totfact> 0.11844853E+04</totfact>
</mgrwt>
</event>
<event>
 5    1  0.1111501E+001  0.2750730E+03  0.7818608E-02  0.1098411E+00
         -1   -1    0    0    0  501 -0.00000000000E+00  0.00000000000E+00  0.48525005350E+03  0.48525005350E+03  0.00000000000E+00 0. -1.
          1   -1    0    0  501    0  0.00000000000E+00 -0.00000000000E+00 -0.38982546082E+02  0.38982546082E+02  0.00000000000E+00 0. -1.
         35    2    1    2    0    0  0.00000000000E+00  0.00000000000E+00  0.44626750742E+03  0.52423259958E+03  0.27507295448E+03 0.  0.
         25    1    3    3    0    0 -0.54386338814E+02 -0.32359642428E+02  0.26622588770E+03  0.29879967133E+03  0.12000000000E+03 0.  0.
         25    1    3    3    0    0  0.54386338814E+02  0.32359642428E+02  0.18004161972E+03  0.22543292825E+03  0.12000000000E+03 0.  0.
<mgrwt>
<rscale>  0 0.27507295E+03</rscale>
<asrwt>0</asrwt>
<pdfrwt beam="1">  1        1 0.59973151E-02 0.27507295E+03</pdfrwt>
<pdfrwt beam="2">  1       -1 0.74653850E-01 0.27507295E+03</pdfrwt>
<totfact> 0.24277807E+03</totfact>
</mgrwt>
</event>
<event>
 5    1  0.1111501E+001  0.2746657E+03  0.7818608E-02  0.1098639E+00
          2   -1    0    0  501    0  0.00000000000E+00  0.00000000000E+00  0.71570733415E+03  0.71570733415E+03  0.00000000000E+00 0. -1.
         -2   -1    0    0    0  501 -0.00000000000E+00 -0.00000000000E+00 -0.26351986870E+02  0.26351986870E+02  0.00000000000E+00 0. -1.
         35    2    1    2    0    0  0.00000000000E+00  0.00000000000E+00  0.68935534728E+03  0.74205932102E+03  0.27466568968E+03 0.  0.
         25    1    3    3    0    0 -0.57405540730E+02 -0.18264208647E+02  0.42257484415E+03  0.44339426737E+03  0.12000000000E+03 0.  0.
         25    1    3    3    0    0  0.57405540730E+02  0.18264208647E+02  0.26678050313E+03  0.29866505365E+03  0.12000000000E+03 0.  0.
<mgrwt>
<rscale>  0 0.27466569E+03</rscale>
<asrwt>0</asrwt>
<pdfrwt beam="1">  1        2 0.11010881E+00 0.27466569E+03</pdfrwt>
<pdfrwt beam="2">  1       -2 0.40541524E-02 0.27466569E+03</pdfrwt>
<totfact> 0.10947477E+04</totfact>
</mgrwt>
</event>
<event>
 5    1  0.1111501E+001  0.2751311E+03  0.7818608E-02  0.1098378E+00
         -2   -1    0    0    0  501 -0.00000000000E+00  0.00000000000E+00  0.16763959543E+03  0.16763959543E+03  0.00000000000E+00 0. -1.
          2   -1    0    0  501    0  0.00000000000E+00 -0.00000000000E+00 -0.11288670414E+03  0.11288670414E+03  0.00000000000E+00 0. -1.
         35    2    1    2    0    0  0.00000000000E+00  0.00000000000E+00  0.54752891294E+02  0.28052629956E+03  0.27513110628E+03 0.  0.
         25    1    3    3    0    0 -0.55869612974E+02  0.27516882018E+02  0.53285142480E+02  0.14531998782E+03  0.12000000000E+03 0.  0.
         25    1    3    3    0    0  0.55869612974E+02 -0.27516882018E+02  0.14677488135E+01  0.13520631175E+03  0.12000000000E+03 0.  0.
<mgrwt>
<rscale>  0 0.27513111E+03</rscale>
<asrwt>0</asrwt>
<pdfrwt beam="1">  1        2 0.17367185E-01 0.27513111E+03</pdfrwt>
<pdfrwt beam="2">  1       -2 0.25790707E-01 0.27513111E+03</pdfrwt>
<totfact> 0.43761995E+03</totfact>
</mgrwt>
</event>
<event>
 5    1  0.1111501E+001  0.2794315E+03  0.7818608E-02  0.1096000E+00
          2   -1    0    0  501    0  0.00000000000E+00  0.00000000000E+00  0.24464871213E+04  0.24464871213E+04  0.00000000000E+00 0.  1.
         -2   -1    0    0    0  501 -0.00000000000E+00 -0.00000000000E+00 -0.79789898656E+01  0.79789898656E+01  0.00000000000E+00 0.  1.
         35    2    1    2    0    0  0.00000000000E+00  0.00000000000E+00  0.24385081314E+04  0.24544661112E+04  0.27943153686E+03 0.  0.
         25    1    3    3    0    0 -0.47092666556E+02  0.33271691222E+02  0.84702770171E+03  0.85742676197E+03  0.12000000000E+03 0.  0.
         25    1    3    3    0    0  0.47092666556E+02 -0.33271691222E+02  0.15914804297E+04  0.15970393492E+04  0.12000000000E+03 0.  0.
<mgrwt>
<rscale>  0 0.27943154E+03</rscale>
<asrwt>0</asrwt>
<pdfrwt beam="1">  1        2 0.37638203E+00 0.27943154E+03</pdfrwt>
<pdfrwt beam="2">  1       -2 0.12275389E-02 0.27943154E+03</pdfrwt>
<totfact> 0.67853115E+03</totfact>
</mgrwt>
</event>
<event>
 5    1  0.1111501E+001  0.2630043E+03  0.7818608E-02  0.1105351E+00
          1   -1    0    0  501    0  0.00000000000E+00  0.00000000000E+00  0.31501674033E+03  0.31501674033E+03  0.00000000000E+00 0.  1.
         -1   -1    0    0    0  501 -0.00000000000E+00 -0.00000000000E+00 -0.54894930064E+02  0.54894930064E+02  0.00000000000E+00 0.  1.
         35    2    1    2    0    0  0.00000000000E+00  0.00000000000E+00  0.26012181027E+03  0.36991167039E+03  0.26300434924E+03 0.  0.
         25    1    3    3    0    0 -0.86013034720E+01 -0.68255196961E+01  0.20411540257E+03  0.23703094251E+03  0.12000000000E+03 0.  0.
         25    1    3    3    0    0  0.86013034720E+01  0.68255196961E+01  0.56006407699E+02  0.13288072789E+03  0.12000000000E+03 0.  0.
<mgrwt>
<rscale>  0 0.26300435E+03</rscale>
<asrwt>0</asrwt>
<pdfrwt beam="1">  1        1 0.48464113E-01 0.26300435E+03</pdfrwt>
<pdfrwt beam="2">  1       -1 0.84453741E-02 0.26300435E+03</pdfrwt>
<totfact> 0.64621563E+03</totfact>
</mgrwt>
</event>
<event>
 5    1  0.1111501E+001  0.2756042E+03  0.7818608E-02  0.1098114E+00
         -2   -1    0    0    0  501 -0.00000000000E+00  0.00000000000E+00  0.30870965364E+02  0.30870965364E+02  0.00000000000E+00 0.  1.
          2   -1    0    0  501    0  0.00000000000E+00 -0.00000000000E+00 -0.61512213185E+03  0.61512213185E+03  0.00000000000E+00 0.  1.
         35    2    1    2    0    0  0.00000000000E+00  0.00000000000E+00 -0.58425116649E+03  0.64599309722E+03  0.27560416562E+03 0.  0.
         25    1    3    3    0    0  0.22235369542E+02 -0.45684664289E+02 -0.18709527645E+03  0.22800469881E+03  0.12000000000E+03 0.  0.
         25    1    3    3    0    0 -0.22235369542E+02  0.45684664289E+02 -0.39715589004E+03  0.41798839841E+03  0.12000000000E+03 0.  0.
<mgrwt>
<rscale>  0 0.27560417E+03</rscale>
<asrwt>0</asrwt>
<pdfrwt beam="1">  1        2 0.94634175E-01 0.27560417E+03</pdfrwt>
<pdfrwt beam="2">  1       -2 0.47493792E-02 0.27560417E+03</pdfrwt>
<totfact> 0.10330128E+04</totfact>
</mgrwt>
</event>
<event>
 5    1  0.1111501E+001  0.2752985E+03  0.7818608E-02  0.1098285E+00
         -2   -1    0    0    0  501 -0.00000000000E+00  0.00000000000E+00  0.45427246041E+03  0.45427246041E+03  0.00000000000E+00 0. -1.
          2   -1    0    0  501    0  0.00000000000E+00 -0.00000000000E+00 -0.41709138846E+02  0.41709138846E+02  0.00000000000E+00 0. -1.
         35    2    1    2    0    0  0.00000000000E+00  0.00000000000E+00  0.41256332156E+03  0.49598159925E+03  0.27529847893E+03 0.  0.
         25    1    3    3    0    0 -0.32405949323E+02  0.17673941769E+02  0.10460932731E+03  0.16341855809E+03  0.12000000000E+03 0.  0.
         25    1    3    3    0    0  0.32405949323E+02 -0.17673941769E+02  0.30795399426E+03  0.33256304116E+03  0.12000000000E+03 0.  0.
<mgrwt>
<rscale>  0 0.27529848E+03</rscale>
<asrwt>0</asrwt>
<pdfrwt beam="1">  1        2 0.64167909E-02 0.27529848E+03</pdfrwt>
<pdfrwt beam="2">  1       -2 0.69888067E-01 0.27529848E+03</pdfrwt>
<totfact> 0.21604540E+03</totfact>
</mgrwt>
</event>
<event>
 5    1  0.1111501E+001  0.2747836E+03  0.7818608E-02  0.1098573E+00
         -1   -1    0    0    0  501 -0.00000000000E+00  0.00000000000E+00  0.89967145902E+02  0.89967145902E+02  0.00000000000E+00 0.  1.
          1   -1    0    0  501    0  0.00000000000E+00 -0.00000000000E+00 -0.20981549390E+03  0.20981549390E+03  0.00000000000E+00 0.  1.
         35    2    1    2    0    0  0.00000000000E+00  0.00000000000E+00 -0.11984834800E+03  0.29978263981E+03  0.27478355957E+03 0.  0.
         25    1    3    3    0    0 -0.44853472924E+02 -0.98480600509E+01 -0.11300986772E+03  0.17111413887E+03  0.12000000000E+03 0.  0.
         25    1    3    3    0    0  0.44853472924E+02  0.98480600509E+01 -0.68384802837E+01  0.12866850093E+03  0.12000000000E+03 0.  0.
<mgrwt>
<rscale>  0 0.27478356E+03</rscale>
<asrwt>0</asrwt>
<pdfrwt beam="1">  1        1 0.32279306E-01 0.27478356E+03</pdfrwt>
<pdfrwt beam="2">  1       -1 0.13841100E-01 0.27478356E+03</pdfrwt>
<totfact> 0.50073514E+03</totfact>
</mgrwt>
</event>
<event>
 5    1  0.1111501E+001  0.2752891E+03  0.7818608E-02  0.1098290E+00
         -1   -1    0    0    0  501 -0.00000000000E+00  0.00000000000E+00  0.85073853816E+03  0.85073853816E+03  0.00000000000E+00 0.  1.
          1   -1    0    0  501    0  0.00000000000E+00 -0.00000000000E+00 -0.22270080949E+02  0.22270080949E+02  0.00000000000E+00 0.  1.
         35    2    1    2    0    0  0.00000000000E+00  0.00000000000E+00  0.82846845721E+03  0.87300861911E+03  0.27528905616E+03 0.  0.
         25    1    3    3    0    0  0.12663254043E+02 -0.28987354198E+02  0.60306017862E+03  0.61569651920E+03  0.12000000000E+03 0.  0.
         25    1    3    3    0    0 -0.12663254043E+02  0.28987354198E+02  0.22540827859E+03  0.25731209991E+03  0.12000000000E+03 0.  0.
<mgrwt>
<rscale>  0 0.27528906E+03</rscale>
<asrwt>0</asrwt>
<pdfrwt beam="1">  1        1 0.34261670E-02 0.27528906E+03</pdfrwt>
<pdfrwt beam="2">  1       -1 0.13088283E+00 0.27528906E+03</pdfrwt>
<totfact> 0.15125462E+03</totfact>
</mgrwt>
</event>
<event>
 5    1  0.1111501E+001  0.2749130E+03  0.7818608E-02  0.1098500E+00
         -2   -1    0    0    0  501 -0.00000000000E+00  0.00000000000E+00  0.18067647621E+02  0.18067647621E+02  0.00000000000E+00 0. -1.
          2   -1    0    0  501    0  0.00000000000E+00 -0.00000000000E+00 -0.10457525509E+04  0.10457525509E+04  0.00000000000E+00 0. -1.
         35    2    1    2    0    0  0.00000000000E+00  0.00000000000E+00 -0.10276849033E+04  0.10638201985E+04  0.27491299415E+03 0.  0.
         25    1    3    3    0    0 -0.55642858457E+02  0.37068154764E+02 -0.49484056496E+03  0.51355365885E+03  0.12000000000E+03 0.  0.
         25    1    3    3    0    0  0.55642858457E+02 -0.37068154764E+02 -0.53284433831E+03  0.55026653965E+03  0.12000000000E+03 0.  0.
<mgrwt>
<rscale>  0 0.27491299E+03</rscale>
<asrwt>0</asrwt>
<pdfrwt beam="1">  1        2 0.16088502E+00 0.27491299E+03</pdfrwt>
<pdfrwt beam="2">  1       -2 0.27796379E-02 0.27491299E+03</pdfrwt>
<totfact> 0.11658974E+04</totfact>
</mgrwt>
</event>
<event>
 5    1  0.1111501E+001  0.2749832E+03  0.7818608E-02  0.1098461E+00
          1   -1    0    0  501    0  0.00000000000E+00  0.00000000000E+00  0.68384700817E+03  0.68384700817E+03  0.00000000000E+00 0.  1.
         -1   -1    0    0    0  501 -0.00000000000E+00 -0.00000000000E+00 -0.27643526989E+02  0.27643526989E+02  0.00000000000E+00 0.  1.
         35    2    1    2    0    0  0.00000000000E+00  0.00000000000E+00  0.65620348118E+03  0.71149053516E+03  0.27498322296E+03 0.  0.
         25    1    3    3    0    0  0.43388545891E+02 -0.50080219415E+02  0.35564857208E+03  0.38115154612E+03  0.12000000000E+03 0.  0.
         25    1    3    3    0    0 -0.43388545891E+02  0.50080219415E+02  0.30055490911E+03  0.33033898904E+03  0.12000000000E+03 0.  0.
<mgrwt>
<rscale>  0 0.27498322E+03</rscale>
<asrwt>0</asrwt>
<pdfrwt beam="1">  1        1 0.10520722E+00 0.27498322E+03</pdfrwt>
<pdfrwt beam="2">  1       -1 0.42528508E-02 0.27498322E+03</pdfrwt>
<totfact> 0.65269349E+03</totfact>
</mgrwt>
</event>
<event>
 5    1  0.1111501E+001  0.2751676E+03  0.7818608E-02  0.1098358E+00
         -1   -1    0    0    0  501 -0.00000000000E+00  0.00000000000E+00  0.96636274482E+01  0.96636274482E+01  0.00000000000E+00 0.  1.
          1   -1    0    0  501    0  0.00000000000E+00 -0.00000000000E+00 -0.19588201396E+04  0.19588201396E+04  0.00000000000E+00 0.  1.
         35    2    1    2    0    0  0.00000000000E+00  0.00000000000E+00 -0.19491565121E+04  0.19684837670E+04  0.27516764393E+03 0.  0.
         25    1    3    3    0    0  0.65756265803E+01  0.60070395027E+02 -0.11865055766E+04  0.11940884283E+04  0.12000000000E+03 0.  0.
         25    1    3    3    0    0 -0.65756265803E+01 -0.60070395027E+02 -0.76265093552E+03  0.77439533875E+03  0.12000000000E+03 0.  0.
<mgrwt>
<rscale>  0 0.27516764E+03</rscale>
<asrwt>0</asrwt>
<pdfrwt beam="1">  1        1 0.30135691E+00 0.27516764E+03</pdfrwt>
<pdfrwt beam="2">  1       -1 0.14867121E-02 0.27516764E+03</pdfrwt>
<totfact> 0.37938149E+03</totfact>
</mgrwt>
</event>
<event>
 5    1  0.1111501E+001  0.2752494E+03  0.7818608E-02  0.1098312E+00
          1   -1    0    0  501    0  0.00000000000E+00  0.00000000000E+00  0.16986328244E+03  0.16986328244E+03  0.00000000000E+00 0.  1.
         -1   -1    0    0    0  501 -0.00000000000E+00 -0.00000000000E+00 -0.11150471607E+03  0.11150471607E+03  0.00000000000E+00 0.  1.
         35    2    1    2    0    0  0.00000000000E+00  0.00000000000E+00  0.58358566362E+02  0.28136799851E+03  0.27524939295E+03 0.  0.
         25    1    3    3    0    0 -0.61242868301E+02 -0.28030104452E+02  0.27088978920E+02  0.14025044903E+03  0.12000000000E+03 0.  0.
         25    1    3    3    0    0  0.61242868301E+02  0.28030104452E+02  0.31269587442E+02  0.14111754948E+03  0.12000000000E+03 0.  0.
<mgrwt>
<rscale>  0 0.27524939E+03</rscale>
<asrwt>0</asrwt>
<pdfrwt beam="1">  1        1 0.26132813E-01 0.27524939E+03</pdfrwt>
<pdfrwt beam="2">  1       -1 0.17154572E-01 0.27524939E+03</pdfrwt>
<totfact> 0.46489008E+03</totfact>
</mgrwt>
</event>
<event>
 5    1  0.1111501E+001  0.2658010E+03  0.7818608E-02  0.1103707E+00
          1   -1    0    0  501    0  0.00000000000E+00  0.00000000000E+00  0.29517313010E+04  0.29517313010E+04  0.00000000000E+00 0. -1.
         -1   -1    0    0    0  501 -0.00000000000E+00 -0.00000000000E+00 -0.59837916928E+01  0.59837916928E+01  0.00000000000E+00 0. -1.
         35    2    1    2    0    0  0.00000000000E+00  0.00000000000E+00  0.29457475094E+04  0.29577150927E+04  0.26580101759E+03 0.  0.
         25    1    3    3    0    0 -0.38447626163E+02 -0.17540316000E+02  0.10452711566E+04  0.10529851250E+04  0.12000000000E+03 0.  0.
         25    1    3    3    0    0  0.38447626163E+02  0.17540316000E+02  0.19004763528E+04  0.19047299678E+04  0.12000000000E+03 0.  0.
<mgrwt>
<rscale>  0 0.26580102E+03</rscale>
<asrwt>0</asrwt>
<pdfrwt beam="1">  1        1 0.45411135E+00 0.26580102E+03</pdfrwt>
<pdfrwt beam="2">  1       -1 0.92058569E-03 0.26580102E+03</pdfrwt>
<totfact> 0.16599254E+03</totfact>
</mgrwt>
</event>
<event>
 5    1  0.1111501E+001  0.2757488E+03  0.7818608E-02  0.1098034E+00
         -1   -1    0    0    0  501 -0.00000000000E+00  0.00000000000E+00  0.14027892117E+02  0.14027892117E+02  0.00000000000E+00 0.  1.
          1   -1    0    0  501    0  0.00000000000E+00 -0.00000000000E+00 -0.13551111423E+04  0.13551111423E+04  0.00000000000E+00 0.  1.
         35    2    1    2    0    0  0.00000000000E+00  0.00000000000E+00 -0.13410832502E+04  0.13691390344E+04  0.27574881984E+03 0.  0.
         25    1    3    3    0    0 -0.31158781594E+02  0.59964778097E+02 -0.63809334374E+03  0.65278615151E+03  0.12000000000E+03 0.  0.
         25    1    3    3    0    0  0.31158781594E+02 -0.59964778097E+02 -0.70298990647E+03  0.71635288293E+03  0.12000000000E+03 0.  0.
<mgrwt>
<rscale>  0 0.27574882E+03</rscale>
<asrwt>0</asrwt>
<pdfrwt beam="1">  1        1 0.20847866E+00 0.27574882E+03</pdfrwt>
<pdfrwt beam="2">  1       -1 0.21581371E-02 0.27574882E+03</pdfrwt>
<totfact> 0.54887634E+03</totfact>
</mgrwt>
</event>
<event>
 5    1  0.1111501E+001  0.2753816E+03  0.7818608E-02  0.1098238E+00
         -1   -1    0    0    0  501 -0.00000000000E+00  0.00000000000E+00  0.23256424692E+02  0.23256424692E+02  0.00000000000E+00 0. -1.
          1   -1    0    0  501    0  0.00000000000E+00 -0.00000000000E+00 -0.81520505202E+03  0.81520505202E+03  0.00000000000E+00 0. -1.
         35    2    1    2    0    0  0.00000000000E+00  0.00000000000E+00 -0.79194862733E+03  0.83846147671E+03  0.27538158908E+03 0.  0.
         25    1    3    3    0    0 -0.29555889450E+02 -0.60663473064E+02 -0.40288210905E+03  0.42575533039E+03  0.12000000000E+03 0.  0.
         25    1    3    3    0    0  0.29555889450E+02  0.60663473064E+02 -0.38906651828E+03  0.41270614632E+03  0.12000000000E+03 0.  0.
<mgrwt>
<rscale>  0 0.27538159E+03</rscale>
<asrwt>0</asrwt>
<pdfrwt beam="1">  1        1 0.12541617E+00 0.27538159E+03</pdfrwt>
<pdfrwt beam="2">  1       -1 0.35779113E-02 0.27538159E+03</pdfrwt>
<totfact> 0.64865541E+03</totfact>
</mgrwt>
</event>
<event>
 5    1  0.1111501E+001  0.2757985E+03  0.7818608E-02  0.1098006E+00
         -1   -1    0    0    0  501 -0.00000000000E+00  0.00000000000E+00  0.27425370016E+02  0.27425370016E+02  0.00000000000E+00 0.  1.
          1   -1    0    0  501    0  0.00000000000E+00 -0.00000000000E+00 -0.69337988214E+03  0.69337988214E+03  0.00000000000E+00 0.  1.
         35    2    1    2    0    0  0.00000000000E+00  0.00000000000E+00 -0.66595451212E+03  0.72080525215E+03  0.27579847591E+03 0.  0.
         25    1    3    3    0    0 -0.14241411050E+02  0.32337445340E+02 -0.48464420572E+03  0.50052825524E+03  0.12000000000E+03 0.  0.
         25    1    3    3    0    0  0.14241411050E+02 -0.32337445340E+02 -0.18131030640E+03  0.22027699691E+03  0.12000000000E+03 0.  0.
<mgrwt>
<rscale>  0 0.27579848E+03</rscale>
<asrwt>0</asrwt>
<pdfrwt beam="1">  1        1 0.10667382E+00 0.27579848E+03</pdfrwt>
<pdfrwt beam="2">  1       -1 0.42192879E-02 0.27579848E+03</pdfrwt>
<totfact> 0.64736025E+03</totfact>
</mgrwt>
</event>
<event>
 5    1  0.1111501E+001  0.2844566E+03  0.7818608E-02  0.1093279E+00
          4   -1    0    0  501    0  0.00000000000E+00  0.00000000000E+00  0.31605948979E+03  0.31605948979E+03  0.00000000000E+00 0. -1.
         -4   -1    0    0    0  501 -0.00000000000E+00 -0.00000000000E+00 -0.64003409517E+02  0.64003409517E+02  0.00000000000E+00 0. -1.
         35    2    1    2    0    0  0.00000000000E+00  0.00000000000E+00  0.25205608027E+03  0.38006289931E+03  0.28445656932E+03 0.  0.
         25    1    3    3    0    0  0.99244897344E+00 -0.74780445015E+02  0.10551180645E+03  0.17642517171E+03  0.12000000000E+03 0.  0.
         25    1    3    3    0    0 -0.99244897344E+00  0.74780445015E+02  0.14654427382E+03  0.20363772760E+03  0.12000000000E+03 0.  0.
<mgrwt>
<rscale>  0 0.28445657E+03</rscale>
<asrwt>0</asrwt>
<pdfrwt beam="1">  1        4 0.48624536E-01 0.28445657E+03</pdfrwt>
<pdfrwt beam="2">  1       -4 0.98466786E-02 0.28445657E+03</pdfrwt>
<totfact> 0.60217042E+02</totfact>
</mgrwt>
</event>
<event>
 5    1  0.1111501E+001  0.2750033E+03  0.7818608E-02  0.1098450E+00
         -1   -1    0    0    0  501 -0.00000000000E+00  0.00000000000E+00  0.26916661480E+03  0.26916661480E+03  0.00000000000E+00 0. -1.
          1   -1    0    0  501    0  0.00000000000E+00 -0.00000000000E+00 -0.70241625827E+02  0.70241625827E+02  0.00000000000E+00 0. -1.
         35    2    1    2    0    0  0.00000000000E+00  0.00000000000E+00  0.19892498898E+03  0.33940824063E+03  0.27500327738E+03 0.  0.
         25    1    3    3    0    0  0.56141638703E+02 -0.16593294365E+02  0.58912412346E+02  0.14593797773E+03  0.12000000000E+03 0.  0.
         25    1    3    3    0    0 -0.56141638703E+02  0.16593294365E+02  0.14001257663E+03  0.19347026291E+03  0.12000000000E+03 0.  0.
<mgrwt>
<rscale>  0 0.27500328E+03</rscale>
<asrwt>0</asrwt>
<pdfrwt beam="1">  1        1 0.10806404E-01 0.27500328E+03</pdfrwt>
<pdfrwt beam="2">  1       -1 0.41410248E-01 0.27500328E+03</pdfrwt>
<totfact> 0.33368195E+03</totfact>
</mgrwt>
</event>
<event>
 5    1  0.1111501E+001  0.2763522E+03  0.7818608E-02  0.1097698E+00
          2   -1    0    0  501    0  0.00000000000E+00  0.00000000000E+00  0.16766052525E+04  0.16766052525E+04  0.00000000000E+00 0. -1.
         -2   -1    0    0    0  501 -0.00000000000E+00 -0.00000000000E+00 -0.11387672582E+02  0.11387672582E+02  0.00000000000E+00 0. -1.
         35    2    1    2    0    0  0.00000000000E+00  0.00000000000E+00  0.16652175799E+04  0.16879929251E+04  0.27635217868E+03 0.  0.
         25    1    3    3    0    0 -0.55748408276E+02 -0.38538027225E+02  0.89355765924E+03  0.90412297557E+03  0.12000000000E+03 0.  0.
         25    1    3    3    0    0  0.55748408276E+02  0.38538027225E+02  0.77165992067E+03  0.78386994950E+03  0.12000000000E+03 0.  0.
<mgrwt>
<rscale>  0 0.27635218E+03</rscale>
<asrwt>0</asrwt>
<pdfrwt beam="1">  1        2 0.25793907E+00 0.27635218E+03</pdfrwt>
<pdfrwt beam="2">  1       -2 0.17519510E-02 0.27635218E+03</pdfrwt>
<totfact> 0.10326978E+04</totfact>
</mgrwt>
</event>
<event>
 5    1  0.1111501E+001  0.2744204E+03  0.7818608E-02  0.1098776E+00
         -1   -1    0    0    0  501 -0.00000000000E+00  0.00000000000E+00  0.53307020863E+02  0.53307020863E+02  0.00000000000E+00 0.  1.
          1   -1    0    0  501    0  0.00000000000E+00 -0.00000000000E+00 -0.35317379324E+03  0.35317379324E+03  0.00000000000E+00 0.  1.
         35    2    1    2    0    0  0.00000000000E+00  0.00000000000E+00 -0.29986677238E+03  0.40648081411E+03  0.27442042755E+03 0.  0.
         25    1    3    3    0    0 -0.36927190196E+02 -0.42480654184E+02 -0.20247898178E+03  0.24200405249E+03  0.12000000000E+03 0.  0.
         25    1    3    3    0    0  0.36927190196E+02  0.42480654184E+02 -0.97387790594E+02  0.16447676162E+03  0.12000000000E+03 0.  0.
<mgrwt>
<rscale>  0 0.27442043E+03</rscale>
<asrwt>0</asrwt>
<pdfrwt beam="1">  1        1 0.54334429E-01 0.27442043E+03</pdfrwt>
<pdfrwt beam="2">  1       -1 0.82010803E-02 0.27442043E+03</pdfrwt>
<totfact> 0.58583356E+03</totfact>
</mgrwt>
</event>
<event>
 5    1  0.1111501E+001  0.2754431E+03  0.7818608E-02  0.1098204E+00
         -2   -1    0    0    0  501 -0.00000000000E+00  0.00000000000E+00  0.78595630653E+03  0.78595630653E+03  0.00000000000E+00 0. -1.
          2   -1    0    0  501    0  0.00000000000E+00 -0.00000000000E+00 -0.24132668059E+02  0.24132668059E+02  0.00000000000E+00 0. -1.
         35    2    1    2    0    0  0.00000000000E+00  0.00000000000E+00  0.76182363847E+03  0.81008897459E+03  0.27544308054E+03 0.  0.
         25    1    3    3    0    0 -0.51680759217E+02 -0.17824978759E+02  0.49776372276E+03  0.51493432051E+03  0.12000000000E+03 0.  0.
         25    1    3    3    0    0  0.51680759217E+02  0.17824978759E+02  0.26405991571E+03  0.29515465408E+03  0.12000000000E+03 0.  0.
<mgrwt>
<rscale>  0 0.27544308E+03</rscale>
<asrwt>0</asrwt>
<pdfrwt beam="1">  1        2 0.37127188E-02 0.27544308E+03</pdfrwt>
<pdfrwt beam="2">  1       -2 0.12091634E+00 0.27544308E+03</pdfrwt>
<totfact> 0.12776776E+03</totfact>
</mgrwt>
</event>
<event>
 5    1  0.1111501E+001  0.2764471E+03  0.7818608E-02  0.1097645E+00
         -4   -1    0    0    0  501 -0.00000000000E+00  0.00000000000E+00  0.11218902173E+03  0.11218902173E+03  0.00000000000E+00 0.  1.
          4   -1    0    0  501    0  0.00000000000E+00 -0.00000000000E+00 -0.17029965859E+03  0.17029965859E+03  0.00000000000E+00 0.  1.
         35    2    1    2    0    0  0.00000000000E+00  0.00000000000E+00 -0.58110636866E+02  0.28248868032E+03  0.27644711681E+03 0.  0.
         25    1    3    3    0    0  0.16844295177E+02 -0.58812919897E+02 -0.60766773482E+02  0.14776769128E+03  0.12000000000E+03 0.  0.
         25    1    3    3    0    0 -0.16844295177E+02  0.58812919897E+02  0.26561366160E+01  0.13472098904E+03  0.12000000000E+03 0.  0.
<mgrwt>
<rscale>  0 0.27644712E+03</rscale>
<asrwt>0</asrwt>
<pdfrwt beam="1">  1        4 0.26199947E-01 0.27644712E+03</pdfrwt>
<pdfrwt beam="2">  1       -4 0.17259850E-01 0.27644712E+03</pdfrwt>
<totfact> 0.75747438E+02</totfact>
</mgrwt>
</event>
<event>
 5    1  0.1111501E+001  0.2744002E+03  0.7818608E-02  0.1098787E+00
          2   -1    0    0  501    0  0.00000000000E+00  0.00000000000E+00  0.16891931242E+03  0.16891931242E+03  0.00000000000E+00 0. -1.
         -2   -1    0    0    0  501 -0.00000000000E+00 -0.00000000000E+00 -0.11143705448E+03  0.11143705448E+03  0.00000000000E+00 0. -1.
         35    2    1    2    0    0  0.00000000000E+00  0.00000000000E+00  0.57482257946E+02  0.28035636690E+03  0.27440022319E+03 0.  0.
         25    1    3    3    0    0 -0.50657326312E+01 -0.65060371800E+01 -0.38690544712E+02  0.12635247689E+03  0.12000000000E+03 0.  0.
         25    1    3    3    0    0  0.50657326312E+01  0.65060371800E+01  0.96172802658E+02  0.15400389001E+03  0.12000000000E+03 0.  0.
<mgrwt>
<rscale>  0 0.27440022E+03</rscale>
<asrwt>0</asrwt>
<pdfrwt beam="1">  1        2 0.25987587E-01 0.27440022E+03</pdfrwt>
<pdfrwt beam="2">  1       -2 0.17144162E-01 0.27440022E+03</pdfrwt>
<totfact> 0.55904054E+03</totfact>
</mgrwt>
</event>
<event>
 5    1  0.1111501E+001  0.2769976E+03  0.7818608E-02  0.1097340E+00
          4   -1    0    0  501    0  0.00000000000E+00  0.00000000000E+00  0.13064431394E+02  0.13064431394E+02  0.00000000000E+00 0. -1.
         -4   -1    0    0    0  501 -0.00000000000E+00 -0.00000000000E+00 -0.14682554831E+04  0.14682554831E+04  0.00000000000E+00 0. -1.
         35    2    1    2    0    0  0.00000000000E+00  0.00000000000E+00 -0.14551910517E+04  0.14813199144E+04  0.27699763918E+03 0.  0.
         25    1    3    3    0    0  0.46251773058E+02 -0.14565969725E+01 -0.10023988832E+04  0.10106160840E+04  0.12000000000E+03 0.  0.
         25    1    3    3    0    0 -0.46251773058E+02  0.14565969725E+01 -0.45279216845E+03  0.47070383044E+03  0.12000000000E+03 0.  0.
<mgrwt>
<rscale>  0 0.27699764E+03</rscale>
<asrwt>0</asrwt>
<pdfrwt beam="1">  1        4 0.20099129E-02 0.27699764E+03</pdfrwt>
<pdfrwt beam="2">  1       -4 0.22588542E+00 0.27699764E+03</pdfrwt>
<totfact> 0.18795193E+02</totfact>
</mgrwt>
</event>
<event>
 5    1  0.1111501E+001  0.2741478E+03  0.7818608E-02  0.1098929E+00
          2   -1    0    0  501    0  0.00000000000E+00  0.00000000000E+00  0.11946258344E+04  0.11946258344E+04  0.00000000000E+00 0.  1.
         -2   -1    0    0    0  501 -0.00000000000E+00 -0.00000000000E+00 -0.15728151934E+02  0.15728151934E+02  0.00000000000E+00 0.  1.
         35    2    1    2    0    0  0.00000000000E+00  0.00000000000E+00  0.11788976825E+04  0.12103539863E+04  0.27414781872E+03 0.  0.
         25    1    3    3    0    0 -0.45227435549E+02 -0.31930435411E+02  0.75010656648E+03  0.76165932982E+03  0.12000000000E+03 0.  0.
         25    1    3    3    0    0  0.45227435549E+02  0.31930435411E+02  0.42879111600E+03  0.44869465652E+03  0.12000000000E+03 0.  0.
<mgrwt>
<rscale>  0 0.27414782E+03</rscale>
<asrwt>0</asrwt>
<pdfrwt beam="1">  1        2 0.18378852E+00 0.27414782E+03</pdfrwt>
<pdfrwt beam="2">  1       -2 0.24197166E-02 0.27414782E+03</pdfrwt>
<totfact> 0.11720971E+04</totfact>
</mgrwt>
</event>
<event>
 5    1  0.1111501E+001  0.2756424E+03  0.7818608E-02  0.1098093E+00
         -1   -1    0    0    0  501 -0.00000000000E+00  0.00000000000E+00  0.16209700208E+02  0.16209700208E+02  0.00000000000E+00 0.  1.
          1   -1    0    0  501    0  0.00000000000E+00 -0.00000000000E+00 -0.11718093060E+04  0.11718093060E+04  0.00000000000E+00 0.  1.
         35    2    1    2    0    0  0.00000000000E+00  0.00000000000E+00 -0.11555996058E+04  0.11880190062E+04  0.27564235923E+03 0.  0.
         25    1    3    3    0    0  0.33904857829E+02  0.53508938608E+02 -0.68177109028E+03  0.69514355743E+03  0.12000000000E+03 0.  0.
         25    1    3    3    0    0 -0.33904857829E+02 -0.53508938608E+02 -0.47382851551E+03  0.49287544877E+03  0.12000000000E+03 0.  0.
<mgrwt>
<rscale>  0 0.27564236E+03</rscale>
<asrwt>0</asrwt>
<pdfrwt beam="1">  1        1 0.18027841E+00 0.27564236E+03</pdfrwt>
<pdfrwt beam="2">  1       -1 0.24937992E-02 0.27564236E+03</pdfrwt>
<totfact> 0.59403229E+03</totfact>
</mgrwt>
</event>
<event>
 5    1  0.1111501E+001  0.2742018E+03  0.7818608E-02  0.1098899E+00
         -2   -1    0    0    0  501 -0.00000000000E+00  0.00000000000E+00  0.18388315226E+02  0.18388315226E+02  0.00000000000E+00 0.  1.
          2   -1    0    0  501    0  0.00000000000E+00 -0.00000000000E+00 -0.10222063140E+04  0.10222063140E+04  0.00000000000E+00 0.  1.
         35    2    1    2    0    0  0.00000000000E+00  0.00000000000E+00 -0.10038179988E+04  0.10405946293E+04  0.27420176461E+03 0.  0.
         25    1    3    3    0    0 -0.19581533776E+02  0.54657757780E+02 -0.38036569638E+03  0.40304958744E+03  0.12000000000E+03 0.  0.
         25    1    3    3    0    0  0.19581533776E+02 -0.54657757780E+02 -0.62345230243E+03  0.63754504182E+03  0.12000000000E+03 0.  0.
<mgrwt>
<rscale>  0 0.27420176E+03</rscale>
<asrwt>0</asrwt>
<pdfrwt beam="1">  1        2 0.15726250E+00 0.27420176E+03</pdfrwt>
<pdfrwt beam="2">  1       -2 0.28289717E-02 0.27420176E+03</pdfrwt>
<totfact> 0.11735007E+04</totfact>
</mgrwt>
</event>
<event>
 5    1  0.1111501E+001  0.2766794E+03  0.7818608E-02  0.1097517E+00
         -2   -1    0    0    0  501 -0.00000000000E+00  0.00000000000E+00  0.80492492828E+02  0.80492492828E+02  0.00000000000E+00 0. -1.
          2   -1    0    0  501    0  0.00000000000E+00 -0.00000000000E+00 -0.23775974240E+03  0.23775974240E+03  0.00000000000E+00 0. -1.
         35    2    1    2    0    0  0.00000000000E+00  0.00000000000E+00 -0.15726724958E+03  0.31825223523E+03  0.27667941275E+03 0.  0.
         25    1    3    3    0    0 -0.61920220766E+02 -0.26218937866E+02 -0.95551698085E+02  0.16748633810E+03  0.12000000000E+03 0.  0.
         25    1    3    3    0    0  0.61920220766E+02  0.26218937866E+02 -0.61715551490E+02  0.15076589713E+03  0.12000000000E+03 0.  0.
<mgrwt>
<rscale>  0 0.27667941E+03</rscale>
<asrwt>0</asrwt>
<pdfrwt beam="1">  1        2 0.36578421E-01 0.27667941E+03</pdfrwt>
<pdfrwt beam="2">  1       -2 0.12383461E-01 0.27667941E+03</pdfrwt>
<totfact> 0.65703120E+03</totfact>
</mgrwt>
</event>
<event>
 5    1  0.1111501E+001  0.2756812E+03  0.7818608E-02  0.1098071E+00
          3   -1    0    0  501    0  0.00000000000E+00  0.00000000000E+00  0.19094799464E+03  0.19094799464E+03  0.00000000000E+00 0.  1.
         -3   -1    0    0    0  501 -0.00000000000E+00 -0.00000000000E+00 -0.99503728194E+02  0.99503728194E+02  0.00000000000E+00 0.  1.
         35    2    1    2    0    0  0.00000000000E+00  0.00000000000E+00  0.91444266441E+02  0.29045172283E+03  0.27568124606E+03 0.  0.
         25    1    3    3    0    0 -0.24624647655E+02 -0.59743279583E+02  0.24017283144E+02  0.13839242254E+03  0.12000000000E+03 0.  0.
         25    1    3    3    0    0  0.24624647655E+02  0.59743279583E+02  0.67426983297E+02  0.15205930029E+03  0.12000000000E+03 0.  0.
<mgrwt>
<rscale>  0 0.27568125E+03</rscale>
<asrwt>0</asrwt>
<pdfrwt beam="1">  1        3 0.29376615E-01 0.27568125E+03</pdfrwt>
<pdfrwt beam="2">  1       -3 0.15308266E-01 0.27568125E+03</pdfrwt>
<totfact> 0.10179244E+03</totfact>
</mgrwt>
</event>
<event>
 5    1  0.1111501E+001  0.2747937E+03  0.7818608E-02  0.1098567E+00
          2   -1    0    0  501    0  0.00000000000E+00  0.00000000000E+00  0.28516114833E+04  0.28516114833E+04  0.00000000000E+00 0. -1.
         -2   -1    0    0    0  501 -0.00000000000E+00 -0.00000000000E+00 -0.66200792483E+01  0.66200792483E+01  0.00000000000E+00 0. -1.
         35    2    1    2    0    0  0.00000000000E+00  0.00000000000E+00  0.28449914041E+04  0.28582315626E+04  0.27479369720E+03 0.  0.
         25    1    3    3    0    0  0.73007456030E+01 -0.59559620097E+02  0.11144245463E+04  0.11224717006E+04  0.12000000000E+03 0.  0.
         25    1    3    3    0    0 -0.73007456030E+01  0.59559620097E+02  0.17305668578E+04  0.17357598620E+04  0.12000000000E+03 0.  0.
<mgrwt>
<rscale>  0 0.27479370E+03</rscale>
<asrwt>0</asrwt>
<pdfrwt beam="1">  1        2 0.43870848E+00 0.27479370E+03</pdfrwt>
<pdfrwt beam="2">  1       -2 0.10184760E-02 0.27479370E+03</pdfrwt>
<totfact> 0.52829234E+03</totfact>
</mgrwt>
</event>
<event>
 5    1  0.1111501E+001  0.2748978E+03  0.7818608E-02  0.1098509E+00
         -1   -1    0    0    0  501 -0.00000000000E+00  0.00000000000E+00  0.12360358844E+02  0.12360358844E+02  0.00000000000E+00 0. -1.
          1   -1    0    0  501    0  0.00000000000E+00 -0.00000000000E+00 -0.15284509889E+04  0.15284509889E+04  0.00000000000E+00 0. -1.
         35    2    1    2    0    0  0.00000000000E+00  0.00000000000E+00 -0.15160906301E+04  0.15408113477E+04  0.27489781882E+03 0.  0.
         25    1    3    3    0    0  0.57693473232E+02  0.33854796591E+02 -0.73458532725E+03  0.74732207723E+03  0.12000000000E+03 0.  0.
         25    1    3    3    0    0 -0.57693473232E+02 -0.33854796591E+02 -0.78150530280E+03  0.79348927051E+03  0.12000000000E+03 0.  0.
<mgrwt>
<rscale>  0 0.27489782E+03</rscale>
<asrwt>0</asrwt>
<pdfrwt beam="1">  1        1 0.23514641E+00 0.27489782E+03</pdfrwt>
<pdfrwt beam="2">  1       -1 0.19015928E-02 0.27489782E+03</pdfrwt>
<totfact> 0.50587714E+03</totfact>
</mgrwt>
</event>
<event>
 5    1  0.1111501E+001  0.2748764E+03  0.7818608E-02  0.1098521E+00
         -2   -1    0    0    0  501 -0.00000000000E+00  0.00000000000E+00  0.26459869777E+03  0.26459869777E+03  0.00000000000E+00 0. -1.
          2   -1    0    0  501    0  0.00000000000E+00 -0.00000000000E+00 -0.71388322650E+02  0.71388322650E+02  0.00000000000E+00 0. -1.
         35    2    1    2    0    0  0.00000000000E+00  0.00000000000E+00  0.19321037512E+03  0.33598702042E+03  0.27487638829E+03 0.  0.
         25    1    3    3    0    0  0.66482784642E+02 -0.82213718659E+01  0.95008853862E+02  0.16707553358E+03  0.12000000000E+03 0.  0.
         25    1    3    3    0    0 -0.66482784642E+02  0.82213718659E+01  0.98201521261E+02  0.16891148684E+03  0.12000000000E+03 0.  0.
<mgrwt>
<rscale>  0 0.27487639E+03</rscale>
<asrwt>0</asrwt>
<pdfrwt beam="1">  1        2 0.10982819E-01 0.27487639E+03</pdfrwt>
<pdfrwt beam="2">  1       -2 0.40707492E-01 0.27487639E+03</pdfrwt>
<totfact> 0.32689083E+03</totfact>
</mgrwt>
</event>
<event>
 5    1  0.1111501E+001  0.2749487E+03  0.7818608E-02  0.1098480E+00
         -1   -1    0    0    0  501 -0.00000000000E+00  0.00000000000E+00  0.67442082737E+03  0.67442082737E+03  0.00000000000E+00 0. -1.
          1   -1    0    0  501    0  0.00000000000E+00 -0.00000000000E+00 -0.28022858170E+02  0.28022858170E+02  0.00000000000E+00 0. -1.
         35    2    1    2    0    0  0.00000000000E+00  0.00000000000E+00  0.64639796920E+03  0.70244368554E+03  0.27494871662E+03 0.  0.
         25    1    3    3    0    0  0.15234028945E+02  0.63353529850E+02  0.36387226755E+03  0.38864993564E+03  0.12000000000E+03 0.  0.
         25    1    3    3    0    0 -0.15234028945E+02 -0.63353529850E+02  0.28252570164E+03  0.31379374989E+03  0.12000000000E+03 0.  0.
<mgrwt>
<rscale>  0 0.27494872E+03</rscale>
<asrwt>0</asrwt>
<pdfrwt beam="1">  1        1 0.43112095E-02 0.27494872E+03</pdfrwt>
<pdfrwt beam="2">  1       -1 0.10375704E+00 0.27494872E+03</pdfrwt>
<totfact> 0.18970708E+03</totfact>
</mgrwt>
</event>
<event>
 5    1  0.1111501E+001  0.2743878E+03  0.7818608E-02  0.1098794E+00
          1   -1    0    0  501    0  0.00000000000E+00  0.00000000000E+00  0.19301364336E+03  0.19301364336E+03  0.00000000000E+00 0.  1.
         -1   -1    0    0    0  501 -0.00000000000E+00 -0.00000000000E+00 -0.97517258714E+02  0.97517258714E+02  0.00000000000E+00 0.  1.
         35    2    1    2    0    0  0.00000000000E+00  0.00000000000E+00  0.95496384650E+02  0.29053090208E+03  0.27438776500E+03 0.  0.
         25    1    3    3    0    0  0.81292844246E+00  0.59444391044E+02  0.79298313961E+02  0.15563585408E+03  0.12000000000E+03 0.  0.
         25    1    3    3    0    0 -0.81292844246E+00 -0.59444391044E+02  0.16198070689E+02  0.13489504799E+03  0.12000000000E+03 0.  0.
<mgrwt>
<rscale>  0 0.27438776E+03</rscale>
<asrwt>0</asrwt>
<pdfrwt beam="1">  1        1 0.29694407E-01 0.27438776E+03</pdfrwt>
<pdfrwt beam="2">  1       -1 0.15002655E-01 0.27438776E+03</pdfrwt>
<totfact> 0.48968031E+03</totfact>
</mgrwt>
</event>
<event>
 5    1  0.1111501E+001  0.2747948E+03  0.7818608E-02  0.1098566E+00
          2   -1    0    0  501    0  0.00000000000E+00  0.00000000000E+00  0.15279813429E+03  0.15279813429E+03  0.00000000000E+00 0.  1.
         -2   -1    0    0    0  501 -0.00000000000E+00 -0.00000000000E+00 -0.12354889600E+03  0.12354889600E+03  0.00000000000E+00 0.  1.
         35    2    1    2    0    0  0.00000000000E+00  0.00000000000E+00  0.29249238291E+02  0.27634703029E+03  0.27479476561E+03 0.  0.
         25    1    3    3    0    0 -0.46436762328E+02 -0.47412471405E+02  0.23259475072E+02  0.13908744919E+03  0.12000000000E+03 0.  0.
         25    1    3    3    0    0  0.46436762328E+02  0.47412471405E+02  0.59897632191E+01  0.13725958110E+03  0.12000000000E+03 0.  0.
<mgrwt>
<rscale>  0 0.27479477E+03</rscale>
<asrwt>0</asrwt>
<pdfrwt beam="1">  1        2 0.23507405E-01 0.27479477E+03</pdfrwt>
<pdfrwt beam="2">  1       -2 0.19007522E-01 0.27479477E+03</pdfrwt>
<totfact> 0.52549996E+03</totfact>
</mgrwt>
</event>
<event>
 5    1  0.1111501E+001  0.2747009E+03  0.7818608E-02  0.1098619E+00
         -1   -1    0    0    0  501 -0.00000000000E+00  0.00000000000E+00  0.12694898177E+02  0.12694898177E+02  0.00000000000E+00 0.  1.
          1   -1    0    0  501    0  0.00000000000E+00 -0.00000000000E+00 -0.14860417721E+04  0.14860417721E+04  0.00000000000E+00 0.  1.
         35    2    1    2    0    0  0.00000000000E+00  0.00000000000E+00 -0.14733468740E+04  0.14987366703E+04  0.27470092088E+03 0.  0.
         25    1    3    3    0    0  0.43540802906E+02 -0.50358087060E+02 -0.76820946003E+03  0.78037011278E+03  0.12000000000E+03 0.  0.
         25    1    3    3    0    0 -0.43540802906E+02  0.50358087060E+02 -0.70513741394E+03  0.71836655754E+03  0.12000000000E+03 0.  0.
<mgrwt>
<rscale>  0 0.27470092E+03</rscale>
<asrwt>0</asrwt>
<pdfrwt beam="1">  1        1 0.22862173E+00 0.27470092E+03</pdfrwt>
<pdfrwt beam="2">  1       -1 0.19530620E-02 0.27470092E+03</pdfrwt>
<totfact> 0.51902441E+03</totfact>
</mgrwt>
</event>
<event>
 5    1  0.1111501E+001  0.2753305E+03  0.7818608E-02  0.1098267E+00
         -2   -1    0    0    0  501 -0.00000000000E+00  0.00000000000E+00  0.92555347176E+01  0.92555347176E+01  0.00000000000E+00 0.  1.
          2   -1    0    0  501    0  0.00000000000E+00 -0.00000000000E+00 -0.20476093292E+04  0.20476093292E+04  0.00000000000E+00 0.  1.
         35    2    1    2    0    0  0.00000000000E+00  0.00000000000E+00 -0.20383537945E+04  0.20568648639E+04  0.27533048676E+03 0.  0.
         25    1    3    3    0    0  0.65577234102E+02 -0.10634975454E+02 -0.11070129627E+04  0.11154780033E+04  0.12000000000E+03 0.  0.
         25    1    3    3    0    0 -0.65577234102E+02  0.10634975454E+02 -0.93134083180E+03  0.94138686060E+03  0.12000000000E+03 0.  0.
<mgrwt>
<rscale>  0 0.27533049E+03</rscale>
<asrwt>0</asrwt>
<pdfrwt beam="1">  1        2 0.31501662E+00 0.27533049E+03</pdfrwt>
<pdfrwt beam="2">  1       -2 0.14239293E-02 0.27533049E+03</pdfrwt>
<totfact> 0.89282860E+03</totfact>
</mgrwt>
</event>
<event>
 5    1  0.1111501E+001  0.2760029E+03  0.7818608E-02  0.1097892E+00
          2   -1    0    0  501    0  0.00000000000E+00  0.00000000000E+00  0.83097386076E+03  0.83097386076E+03  0.00000000000E+00 0.  1.
         -2   -1    0    0    0  501 -0.00000000000E+00 -0.00000000000E+00 -0.22918175510E+02  0.22918175510E+02  0.00000000000E+00 0.  1.
         35    2    1    2    0    0  0.00000000000E+00  0.00000000000E+00  0.80805568525E+03  0.85389203627E+03  0.27600293321E+03 0.  0.
         25    1    3    3    0    0 -0.39500467866E+02 -0.54578310522E+02  0.43577879380E+03  0.45699259958E+03  0.12000000000E+03 0.  0.
         25    1    3    3    0    0  0.39500467866E+02  0.54578310522E+02  0.37227689145E+03  0.39689943669E+03  0.12000000000E+03 0.  0.
<mgrwt>
<rscale>  0 0.27600293E+03</rscale>
<asrwt>0</asrwt>
<pdfrwt beam="1">  1        2 0.12784211E+00 0.27600293E+03</pdfrwt>
<pdfrwt beam="2">  1       -2 0.35258738E-02 0.27600293E+03</pdfrwt>
<totfact> 0.11192882E+04</totfact>
</mgrwt>
</event>
<event>
 5    1  0.1111501E+001  0.2749380E+03  0.7818608E-02  0.1098486E+00
         -1   -1    0    0    0  501 -0.00000000000E+00  0.00000000000E+00  0.17248277556E+03  0.17248277556E+03  0.00000000000E+00 0.  1.
          1   -1    0    0  501    0  0.00000000000E+00 -0.00000000000E+00 -0.10956297657E+03  0.10956297657E+03  0.00000000000E+00 0.  1.
         35    2    1    2    0    0  0.00000000000E+00  0.00000000000E+00  0.62919798986E+02  0.28204575213E+03  0.27493800245E+03 0.  0.
         25    1    3    3    0    0  0.29753931495E+02  0.12095634828E+01 -0.30184913416E+02  0.12727092551E+03  0.12000000000E+03 0.  0.
         25    1    3    3    0    0 -0.29753931495E+02 -0.12095634828E+01  0.93104712402E+02  0.15477482662E+03  0.12000000000E+03 0.  0.
<mgrwt>
<rscale>  0 0.27493800E+03</rscale>
<asrwt>0</asrwt>
<pdfrwt beam="1">  1        1 0.16855843E-01 0.27493800E+03</pdfrwt>
<pdfrwt beam="2">  1       -1 0.26535812E-01 0.27493800E+03</pdfrwt>
<totfact> 0.39995139E+03</totfact>
</mgrwt>
</event>
<event>
 5    1  0.1111501E+001  0.2753082E+03  0.7818608E-02  0.1098279E+00
         -2   -1    0    0    0  501 -0.00000000000E+00  0.00000000000E+00  0.27575617558E+03  0.27575617558E+03  0.00000000000E+00 0.  1.
          2   -1    0    0  501    0  0.00000000000E+00 -0.00000000000E+00 -0.68715253470E+02  0.68715253470E+02  0.00000000000E+00 0.  1.
         35    2    1    2    0    0  0.00000000000E+00  0.00000000000E+00  0.20704092211E+03  0.34447142905E+03  0.27530823091E+03 0.  0.
         25    1    3    3    0    0 -0.59298480497E+02 -0.23247792731E+02  0.75770257474E+02  0.15555674712E+03  0.12000000000E+03 0.  0.
         25    1    3    3    0    0  0.59298480497E+02  0.23247792731E+02  0.13127066464E+03  0.18891468194E+03  0.12000000000E+03 0.  0.
<mgrwt>
<rscale>  0 0.27530823E+03</rscale>
<asrwt>0</asrwt>
<pdfrwt beam="1">  1        2 0.10571578E-01 0.27530823E+03</pdfrwt>
<pdfrwt beam="2">  1       -2 0.42424026E-01 0.27530823E+03</pdfrwt>
<totfact> 0.31647300E+03</totfact>
</mgrwt>
</event>
<event>
 5    1  0.1111501E+001  0.2746484E+03  0.7818608E-02  0.1098648E+00
          1   -1    0    0  501    0  0.00000000000E+00  0.00000000000E+00  0.18519946527E+03  0.18519946527E+03  0.00000000000E+00 0.  1.
         -1   -1    0    0    0  501 -0.00000000000E+00 -0.00000000000E+00 -0.10182496615E+03  0.10182496615E+03  0.00000000000E+00 0.  1.
         35    2    1    2    0    0  0.00000000000E+00  0.00000000000E+00  0.83374499116E+02  0.28702443142E+03  0.27464835177E+03 0.  0.
         25    1    3    3    0    0 -0.40143141318E+02 -0.28305260842E+00  0.97442799918E+02  0.15970801849E+03  0.12000000000E+03 0.  0.
         25    1    3    3    0    0  0.40143141318E+02  0.28305260842E+00 -0.14068300802E+02  0.12731641293E+03  0.12000000000E+03 0.  0.
<mgrwt>
<rscale>  0 0.27464835E+03</rscale>
<asrwt>0</asrwt>
<pdfrwt beam="1">  1        1 0.28492225E-01 0.27464835E+03</pdfrwt>
<pdfrwt beam="2">  1       -1 0.15665379E-01 0.27464835E+03</pdfrwt>
<totfact> 0.48168514E+03</totfact>
</mgrwt>
</event>
<event>
 5    1  0.1111501E+001  0.2752889E+03  0.7818608E-02  0.1098290E+00
         -1   -1    0    0    0  501 -0.00000000000E+00  0.00000000000E+00  0.51478379408E+02  0.51478379408E+02  0.00000000000E+00 0. -1.
          1   -1    0    0  501    0  0.00000000000E+00 -0.00000000000E+00 -0.36803778543E+03  0.36803778543E+03  0.00000000000E+00 0. -1.
         35    2    1    2    0    0  0.00000000000E+00  0.00000000000E+00 -0.31655940602E+03  0.41951616484E+03  0.27528885742E+03 0.  0.
         25    1    3    3    0    0  0.71274583476E+01  0.60847070041E+02 -0.20118865987E+03  0.24213641497E+03  0.12000000000E+03 0.  0.
         25    1    3    3    0    0 -0.71274583476E+01 -0.60847070041E+02 -0.11537074615E+03  0.17737974987E+03  0.12000000000E+03 0.  0.
<mgrwt>
<rscale>  0 0.27528886E+03</rscale>
<asrwt>0</asrwt>
<pdfrwt beam="1">  1        1 0.56621198E-01 0.27528886E+03</pdfrwt>
<pdfrwt beam="2">  1       -1 0.79197506E-02 0.27528886E+03</pdfrwt>
<totfact> 0.58644048E+03</totfact>
</mgrwt>
</event>
<event>
 5    1  0.1111501E+001  0.2744909E+03  0.7818608E-02  0.1098736E+00
          1   -1    0    0  501    0  0.00000000000E+00  0.00000000000E+00  0.59562152627E+03  0.59562152627E+03  0.00000000000E+00 0.  1.
         -1   -1    0    0    0  501 -0.00000000000E+00 -0.00000000000E+00 -0.31624640391E+02  0.31624640391E+02  0.00000000000E+00 0.  1.
         35    2    1    2    0    0  0.00000000000E+00  0.00000000000E+00  0.56399688588E+03  0.62724616666E+03  0.27449092209E+03 0.  0.
         25    1    3    3    0    0 -0.25586398512E+02  0.60022554056E+02  0.25143017890E+03  0.28613721472E+03  0.12000000000E+03 0.  0.
         25    1    3    3    0    0  0.25586398512E+02 -0.60022554056E+02  0.31256670698E+03  0.34110895194E+03  0.12000000000E+03 0.  0.
<mgrwt>
<rscale>  0 0.27449092E+03</rscale>
<asrwt>0</asrwt>
<pdfrwt beam="1">  1        1 0.91634073E-01 0.27449092E+03</pdfrwt>
<pdfrwt beam="2">  1       -1 0.48653297E-02 0.27449092E+03</pdfrwt>
<totfact> 0.64913267E+03</totfact>
</mgrwt>
</event>
<event>
 5    1  0.1111501E+001  0.2753833E+03  0.7818608E-02  0.1098238E+00
         -2   -1    0    0    0  501 -0.00000000000E+00  0.00000000000E+00  0.20431525527E+02  0.20431525527E+02  0.00000000000E+00 0. -1.
          2   -1    0    0  501    0  0.00000000000E+00 -0.00000000000E+00 -0.92792837889E+03  0.92792837889E+03  0.00000000000E+00 0. -1.
         35    2    1    2    0    0  0.00000000000E+00  0.00000000000E+00 -0.90749685337E+03  0.94835990442E+03  0.27538331366E+03 0.  0.
         25    1    3    3    0    0  0.39786233510E+01 -0.60953365907E+02 -0.35466262765E+03  0.37936357457E+03  0.12000000000E+03 0.  0.
         25    1    3    3    0    0 -0.39786233510E+01  0.60953365907E+02 -0.55283422571E+03  0.56899632985E+03  0.12000000000E+03 0.  0.
<mgrwt>
<rscale>  0 0.27538331E+03</rscale>
<asrwt>0</asrwt>
<pdfrwt beam="1">  1        2 0.14275825E+00 0.27538331E+03</pdfrwt>
<pdfrwt beam="2">  1       -2 0.31433107E-02 0.27538331E+03</pdfrwt>
<totfact> 0.11479932E+04</totfact>
</mgrwt>
</event>
<event>
 5    1  0.1111501E+001  0.2740040E+03  0.7818608E-02  0.1099010E+00
         -2   -1    0    0    0  501 -0.00000000000E+00  0.00000000000E+00  0.95208280929E+01  0.95208280929E+01  0.00000000000E+00 0. -1.
          2   -1    0    0  501    0  0.00000000000E+00 -0.00000000000E+00 -0.19714202959E+04  0.19714202959E+04  0.00000000000E+00 0. -1.
         35    2    1    2    0    0  0.00000000000E+00  0.00000000000E+00 -0.19618994678E+04  0.19809411240E+04  0.27400404184E+03 0.  0.
         25    1    3    3    0    0  0.30126827884E+02 -0.12272505567E+02 -0.56492921226E+03  0.57844900813E+03  0.12000000000E+03 0.  0.
         25    1    3    3    0    0 -0.30126827884E+02  0.12272505567E+02 -0.13969702556E+04  0.14024921159E+04  0.12000000000E+03 0.  0.
<mgrwt>
<rscale>  0 0.27400404E+03</rscale>
<asrwt>0</asrwt>
<pdfrwt beam="1">  1        2 0.30329510E+00 0.27400404E+03</pdfrwt>
<pdfrwt beam="2">  1       -2 0.14647444E-02 0.27400404E+03</pdfrwt>
<totfact> 0.93952256E+03</totfact>
</mgrwt>
</event>
<event>
 5    1  0.1111501E+001  0.2746795E+03  0.7818608E-02  0.1098631E+00
          1   -1    0    0  501    0  0.00000000000E+00  0.00000000000E+00  0.76880585660E+03  0.76880585660E+03  0.00000000000E+00 0. -1.
         -1   -1    0    0    0  501 -0.00000000000E+00 -0.00000000000E+00 -0.24534421339E+02  0.24534421339E+02  0.00000000000E+00 0. -1.
         35    2    1    2    0    0  0.00000000000E+00  0.00000000000E+00  0.74427143526E+03  0.79334027794E+03  0.27467949915E+03 0.  0.
         25    1    3    3    0    0 -0.25357025225E+01 -0.21363621251E+02  0.55478972157E+03  0.56802682090E+03  0.12000000000E+03 0.  0.
         25    1    3    3    0    0  0.25357025225E+01  0.21363621251E+02  0.18948171369E+03  0.22531345704E+03  0.12000000000E+03 0.  0.
<mgrwt>
<rscale>  0 0.27467950E+03</rscale>
<asrwt>0</asrwt>
<pdfrwt beam="1">  1        1 0.11827781E+00 0.27467950E+03</pdfrwt>
<pdfrwt beam="2">  1       -1 0.37745269E-02 0.27467950E+03</pdfrwt>
<totfact> 0.65545272E+03</totfact>
</mgrwt>
</event>
<event>
 5    1  0.1111501E+001  0.2792772E+03  0.7818608E-02  0.1096084E+00
         -3   -1    0    0    0  501 -0.00000000000E+00  0.00000000000E+00  0.86941697575E+02  0.86941697575E+02  0.00000000000E+00 0.  1.
          3   -1    0    0  501    0  0.00000000000E+00 -0.00000000000E+00 -0.22427602632E+03  0.22427602632E+03  0.00000000000E+00 0.  1.
         35    2    1    2    0    0  0.00000000000E+00  0.00000000000E+00 -0.13733432875E+03  0.31121772390E+03  0.27927719888E+03 0.  0.
         25    1    3    3    0    0  0.68618191691E+02 -0.16247958917E+02 -0.56134305076E+02  0.15007835489E+03  0.12000000000E+03 0.  0.
         25    1    3    3    0    0 -0.68618191691E+02  0.16247958917E+02 -0.81200023670E+02  0.16113936901E+03  0.12000000000E+03 0.  0.
<mgrwt>
<rscale>  0 0.27927720E+03</rscale>
<asrwt>0</asrwt>
<pdfrwt beam="1">  1        3 0.34504004E-01 0.27927720E+03</pdfrwt>
<pdfrwt beam="2">  1       -3 0.13375646E-01 0.27927720E+03</pdfrwt>
<totfact> 0.94965346E+02</totfact>
</mgrwt>
</event>
<event>
 5    1  0.1111501E+001  0.2748487E+03  0.7818608E-02  0.1098536E+00
         -2   -1    0    0    0  501 -0.00000000000E+00  0.00000000000E+00  0.70218966838E+02  0.70218966838E+02  0.00000000000E+00 0.  1.
          2   -1    0    0  501    0  0.00000000000E+00 -0.00000000000E+00 -0.26895078426E+03  0.26895078426E+03  0.00000000000E+00 0.  1.
         35    2    1    2    0    0  0.00000000000E+00  0.00000000000E+00 -0.19873181742E+03  0.33916975109E+03  0.27484865800E+03 0.  0.
         25    1    3    3    0    0  0.62050942513E+02  0.13274461705E+02 -0.12580154743E+03  0.18507447186E+03  0.12000000000E+03 0.  0.
         25    1    3    3    0    0 -0.62050942513E+02 -0.13274461705E+02 -0.72930269989E+02  0.15409527923E+03  0.12000000000E+03 0.  0.
<mgrwt>
<rscale>  0 0.27484866E+03</rscale>
<asrwt>0</asrwt>
<pdfrwt beam="1">  1        2 0.41377044E-01 0.27484866E+03</pdfrwt>
<pdfrwt beam="2">  1       -2 0.10802918E-01 0.27484866E+03</pdfrwt>
<totfact> 0.71632316E+03</totfact>
</mgrwt>
</event>
<event>
 5    1  0.1111501E+001  0.2755986E+03  0.7818608E-02  0.1098117E+00
          2   -1    0    0  501    0  0.00000000000E+00  0.00000000000E+00  0.31291139447E+03  0.31291139447E+03  0.00000000000E+00 0. -1.
         -2   -1    0    0    0  501 -0.00000000000E+00 -0.00000000000E+00 -0.60683802074E+02  0.60683802074E+02  0.00000000000E+00 0. -1.
         35    2    1    2    0    0  0.00000000000E+00  0.00000000000E+00  0.25222759240E+03  0.37359519655E+03  0.27559864389E+03 0.  0.
         25    1    3    3    0    0 -0.30942947137E+02  0.22568931447E+02  0.20185441798E+03  0.23793282392E+03  0.12000000000E+03 0.  0.
         25    1    3    3    0    0  0.30942947137E+02 -0.22568931447E+02  0.50373174422E+02  0.13566237262E+03  0.12000000000E+03 0.  0.
<mgrwt>
<rscale>  0 0.27559864E+03</rscale>
<asrwt>0</asrwt>
<pdfrwt beam="1">  1        2 0.48140214E-01 0.27559864E+03</pdfrwt>
<pdfrwt beam="2">  1       -2 0.93359697E-02 0.27559864E+03</pdfrwt>
<totfact> 0.76773438E+03</totfact>
</mgrwt>
</event>
<event>
 4    1  0.1111501E+001  0.3142729E+03  0.7818608E-02  0.1078316E+00
         -1   -1    0    0    0  501 -0.00000000000E+00  0.00000000000E+00  0.12442821316E+02  0.12442821316E+02  0.00000000000E+00 0.  1.
          1   -1    0    0  501    0  0.00000000000E+00 -0.00000000000E+00 -0.19844264594E+04  0.19844264594E+04  0.00000000000E+00 0.  1.
         25    1    1    2    0    0  0.85969527670E+02 -0.53650932341E+02 -0.95573106590E+03  0.96855100669E+03  0.12000000000E+03 0.  0.
         25    1    1    2    0    0 -0.85969527670E+02  0.53650932341E+02 -0.10162525722E+04  0.10283182740E+04  0.12000000000E+03 0.  0.
<mgrwt>
<rscale>  0 0.31427290E+03</rscale>
<asrwt>0</asrwt>
<pdfrwt beam="1">  1        1 0.30529625E+00 0.31427290E+03</pdfrwt>
<pdfrwt beam="2">  1       -1 0.19142810E-02 0.31427290E+03</pdfrwt>
<totfact> 0.25212265E+03</totfact>
</mgrwt>
</event>
<event>
 5    1  0.1111501E+001  0.2751723E+03  0.7818608E-02  0.1098355E+00
         -2   -1    0    0    0  501 -0.00000000000E+00  0.00000000000E+00  0.42097844005E+03  0.42097844005E+03  0.00000000000E+00 0. -1.
          2   -1    0    0  501    0  0.00000000000E+00 -0.00000000000E+00 -0.44966542089E+02  0.44966542089E+02  0.00000000000E+00 0. -1.
         35    2    1    2    0    0  0.00000000000E+00  0.00000000000E+00  0.37601189796E+03  0.46594498214E+03  0.27517227144E+03 0.  0.
         25    1    3    3    0    0  0.55650894217E+02  0.26442576903E+02  0.23387217752E+03  0.26998597615E+03  0.12000000000E+03 0.  0.
         25    1    3    3    0    0 -0.55650894217E+02 -0.26442576903E+02  0.14213972044E+03  0.19595900599E+03  0.12000000000E+03 0.  0.
<mgrwt>
<rscale>  0 0.27517227E+03</rscale>
<asrwt>0</asrwt>
<pdfrwt beam="1">  1        2 0.69179298E-02 0.27517227E+03</pdfrwt>
<pdfrwt beam="2">  1       -2 0.64765911E-01 0.27517227E+03</pdfrwt>
<totfact> 0.23040886E+03</totfact>
</mgrwt>
</event>
<event>
 5    1  0.1111501E+001  0.2741860E+03  0.7818608E-02  0.1098907E+00
          1   -1    0    0  501    0  0.00000000000E+00  0.00000000000E+00  0.17047610876E+03  0.17047610876E+03  0.00000000000E+00 0. -1.
         -1   -1    0    0    0  501 -0.00000000000E+00 -0.00000000000E+00 -0.11024703408E+03  0.11024703408E+03  0.00000000000E+00 0. -1.
         35    2    1    2    0    0  0.00000000000E+00  0.00000000000E+00  0.60229074682E+02  0.28072314284E+03  0.27418596151E+03 0.  0.
         25    1    3    3    0    0 -0.30237040991E+02  0.19144669522E+02  0.87245372605E+02  0.15261897674E+03  0.12000000000E+03 0.  0.
         25    1    3    3    0    0  0.30237040991E+02 -0.19144669522E+02 -0.27016297923E+02  0.12810416610E+03  0.12000000000E+03 0.  0.
<mgrwt>
<rscale>  0 0.27418596E+03</rscale>
<asrwt>0</asrwt>
<pdfrwt beam="1">  1        1 0.26227094E-01 0.27418596E+03</pdfrwt>
<pdfrwt beam="2">  1       -1 0.16961082E-01 0.27418596E+03</pdfrwt>
<totfact> 0.47120110E+03</totfact>
</mgrwt>
</event>
<event>
 5    1  0.1111501E+001  0.2765742E+03  0.7818608E-02  0.1097575E+00
         -2   -1    0    0    0  501 -0.00000000000E+00  0.00000000000E+00  0.63280746194E+02  0.63280746194E+02  0.00000000000E+00 0. -1.
          2   -1    0    0  501    0  0.00000000000E+00 -0.00000000000E+00 -0.30219815416E+03  0.30219815416E+03  0.00000000000E+00 0. -1.
         35    2    1    2    0    0  0.00000000000E+00  0.00000000000E+00 -0.23891740797E+03  0.36547890036E+03  0.27657421929E+03 0.  0.
         25    1    3    3    0    0  0.66355440927E+02 -0.17710537857E+02 -0.11605946848E+03  0.18051733412E+03  0.12000000000E+03 0.  0.
         25    1    3    3    0    0 -0.66355440927E+02  0.17710537857E+02 -0.12285793949E+03  0.18496156624E+03  0.12000000000E+03 0.  0.
<mgrwt>
<rscale>  0 0.27657422E+03</rscale>
<asrwt>0</asrwt>
<pdfrwt beam="1">  1        2 0.46492024E-01 0.27657422E+03</pdfrwt>
<pdfrwt beam="2">  1       -2 0.97354994E-02 0.27657422E+03</pdfrwt>
<totfact> 0.74597998E+03</totfact>
</mgrwt>
</event>
<event>
 5    1  0.1111501E+001  0.2745096E+03  0.7818608E-02  0.1098726E+00
         -1   -1    0    0    0  501 -0.00000000000E+00  0.00000000000E+00  0.25112854988E+02  0.25112854988E+02  0.00000000000E+00 0.  1.
          1   -1    0    0  501    0  0.00000000000E+00 -0.00000000000E+00 -0.75016889119E+03  0.75016889119E+03  0.00000000000E+00 0.  1.
         35    2    1    2    0    0  0.00000000000E+00  0.00000000000E+00 -0.72505603621E+03  0.77528174618E+03  0.27450961791E+03 0.  0.
         25    1    3    3    0    0  0.36420962234E+02  0.43197345345E+02 -0.46223559864E+03  0.48088901608E+03  0.12000000000E+03 0.  0.
         25    1    3    3    0    0 -0.36420962234E+02 -0.43197345345E+02 -0.26282043756E+03  0.29439273010E+03  0.12000000000E+03 0.  0.
<mgrwt>
<rscale>  0 0.27450962E+03</rscale>
<asrwt>0</asrwt>
<pdfrwt beam="1">  1        1 0.11541060E+00 0.27450962E+03</pdfrwt>
<pdfrwt beam="2">  1       -1 0.38635160E-02 0.27450962E+03</pdfrwt>
<totfact> 0.65697270E+03</totfact>
</mgrwt>
</event>
<event>
 5    1  0.1111501E+001  0.2749290E+03  0.7818608E-02  0.1098491E+00
          1   -1    0    0  501    0  0.00000000000E+00  0.00000000000E+00  0.57426537356E+03  0.57426537356E+03  0.00000000000E+00 0.  1.
         -1   -1    0    0    0  501 -0.00000000000E+00 -0.00000000000E+00 -0.32905507291E+02  0.32905507291E+02  0.00000000000E+00 0.  1.
         35    2    1    2    0    0  0.00000000000E+00  0.00000000000E+00  0.54135986627E+03  0.60717088085E+03  0.27492903402E+03 0.  0.
         25    1    3    3    0    0 -0.35652528777E+02 -0.55723857924E+02  0.29489685507E+03  0.32517749965E+03  0.12000000000E+03 0.  0.
         25    1    3    3    0    0  0.35652528777E+02  0.55723857924E+02  0.24646301119E+03  0.28199338119E+03  0.12000000000E+03 0.  0.
<mgrwt>
<rscale>  0 0.27492903E+03</rscale>
<asrwt>0</asrwt>
<pdfrwt beam="1">  1        1 0.88348512E-01 0.27492903E+03</pdfrwt>
<pdfrwt beam="2">  1       -1 0.50623861E-02 0.27492903E+03</pdfrwt>
<totfact> 0.64327501E+03</totfact>
</mgrwt>
</event>
<event>
 5    1  0.1111501E+001  0.2748737E+03  0.7818608E-02  0.1098522E+00
         -2   -1    0    0    0  501 -0.00000000000E+00  0.00000000000E+00  0.75639092914E+01  0.75639092914E+01  0.00000000000E+00 0. -1.
          2   -1    0    0  501    0  0.00000000000E+00 -0.00000000000E+00 -0.24972380440E+04  0.24972380440E+04  0.00000000000E+00 0. -1.
         35    2    1    2    0    0  0.00000000000E+00  0.00000000000E+00 -0.24896741347E+04  0.25048019533E+04  0.27487365857E+03 0.  0.
         25    1    3    3    0    0  0.39847161539E+02  0.72017418862E+01 -0.17312479846E+04  0.17358742021E+04  0.12000000000E+03 0.  0.
         25    1    3    3    0    0 -0.39847161539E+02 -0.72017418862E+01 -0.75842615013E+03  0.76892775121E+03  0.12000000000E+03 0.  0.
<mgrwt>
<rscale>  0 0.27487366E+03</rscale>
<asrwt>0</asrwt>
<pdfrwt beam="1">  1        2 0.38419054E+00 0.27487366E+03</pdfrwt>
<pdfrwt beam="2">  1       -2 0.11636781E-02 0.27487366E+03</pdfrwt>
<totfact> 0.68815353E+03</totfact>
</mgrwt>
</event>
<event>
 5    1  0.1111501E+001  0.2730101E+03  0.7818608E-02  0.1099569E+00
         -2   -1    0    0    0  501 -0.00000000000E+00  0.00000000000E+00  0.31385957596E+02  0.31385957596E+02  0.00000000000E+00 0. -1.
          2   -1    0    0  501    0  0.00000000000E+00 -0.00000000000E+00 -0.59369322519E+03  0.59369322519E+03  0.00000000000E+00 0. -1.
         35    2    1    2    0    0  0.00000000000E+00  0.00000000000E+00 -0.56230726759E+03  0.62507918278E+03  0.27301011257E+03 0.  0.
         25    1    3    3    0    0  0.44456253005E+02 -0.15036694585E+02 -0.17796558167E+03  0.21971392508E+03  0.12000000000E+03 0.  0.
         25    1    3    3    0    0 -0.44456253005E+02  0.15036694585E+02 -0.38434168592E+03  0.40536525770E+03  0.12000000000E+03 0.  0.
<mgrwt>
<rscale>  0 0.27301011E+03</rscale>
<asrwt>0</asrwt>
<pdfrwt beam="1">  1        2 0.91337419E-01 0.27301011E+03</pdfrwt>
<pdfrwt beam="2">  1       -2 0.48286089E-02 0.27301011E+03</pdfrwt>
<totfact> 0.10494747E+04</totfact>
</mgrwt>
</event>
<event>
 5    1  0.1111501E+001  0.2765605E+03  0.7818608E-02  0.1097583E+00
          2   -1    0    0  501    0  0.00000000000E+00  0.00000000000E+00  0.90971186305E+02  0.90971186305E+02  0.00000000000E+00 0.  1.
         -2   -1    0    0    0  501 -0.00000000000E+00 -0.00000000000E+00 -0.21019206260E+03  0.21019206260E+03  0.00000000000E+00 0.  1.
         35    2    1    2    0    0  0.00000000000E+00  0.00000000000E+00 -0.11922087630E+03  0.30116324891E+03  0.27656045478E+03 0.  0.
         25    1    3    3    0    0  0.14348640039E+02  0.65619710692E+02 -0.75375606256E+02  0.15682254915E+03  0.12000000000E+03 0.  0.
         25    1    3    3    0    0 -0.14348640039E+02 -0.65619710692E+02 -0.43845270039E+02  0.14434069976E+03  0.12000000000E+03 0.  0.
<mgrwt>
<rscale>  0 0.27656045E+03</rscale>
<asrwt>0</asrwt>
<pdfrwt beam="1">  1        2 0.13995567E-01 0.27656045E+03</pdfrwt>
<pdfrwt beam="2">  1       -2 0.32337240E-01 0.27656045E+03</pdfrwt>
<totfact> 0.37535313E+03</totfact>
</mgrwt>
</event>
<event>
 5    1  0.1111501E+001  0.2751596E+03  0.7818608E-02  0.1098362E+00
          2   -1    0    0  501    0  0.00000000000E+00  0.00000000000E+00  0.40667297292E+02  0.40667297292E+02  0.00000000000E+00 0. -1.
         -2   -1    0    0    0  501 -0.00000000000E+00 -0.00000000000E+00 -0.46544042001E+03  0.46544042001E+03  0.00000000000E+00 0. -1.
         35    2    1    2    0    0  0.00000000000E+00  0.00000000000E+00 -0.42477312271E+03  0.50610771730E+03  0.27515961864E+03 0.  0.
         25    1    3    3    0    0  0.60491779604E+02  0.29088422454E+02 -0.20360155748E+03  0.24568065843E+03  0.12000000000E+03 0.  0.
         25    1    3    3    0    0 -0.60491779604E+02 -0.29088422454E+02 -0.22117156524E+03  0.26042705887E+03  0.12000000000E+03 0.  0.
<mgrwt>
<rscale>  0 0.27515962E+03</rscale>
<asrwt>0</asrwt>
<pdfrwt beam="1">  1        2 0.62565075E-02 0.27515962E+03</pdfrwt>
<pdfrwt beam="2">  1       -2 0.71606216E-01 0.27515962E+03</pdfrwt>
<totfact> 0.21191438E+03</totfact>
</mgrwt>
</event>
<event>
 5    1  0.1111501E+001  0.2751009E+03  0.7818608E-02  0.1098395E+00
         -1   -1    0    0    0  501 -0.00000000000E+00  0.00000000000E+00  0.55425465371E+02  0.55425465371E+02  0.00000000000E+00 0.  1.
          1   -1    0    0  501    0  0.00000000000E+00 -0.00000000000E+00 -0.34136163737E+03  0.34136163737E+03  0.00000000000E+00 0.  1.
         35    2    1    2    0    0  0.00000000000E+00  0.00000000000E+00 -0.28593617200E+03  0.39678710274E+03  0.27510090957E+03 0.  0.
         25    1    3    3    0    0 -0.33270024779E+02 -0.58400696752E+02 -0.14064611761E+03  0.19672027432E+03  0.12000000000E+03 0.  0.
         25    1    3    3    0    0  0.33270024779E+02  0.58400696752E+02 -0.14529005438E+03  0.20006682842E+03  0.12000000000E+03 0.  0.
<mgrwt>
<rscale>  0 0.27510091E+03</rscale>
<asrwt>0</asrwt>
<pdfrwt beam="1">  1        1 0.52517175E-01 0.27510091E+03</pdfrwt>
<pdfrwt beam="2">  1       -1 0.85269947E-02 0.27510091E+03</pdfrwt>
<totfact> 0.57627094E+03</totfact>
</mgrwt>
</event>
<event>
 5    1  0.1111501E+001  0.2768103E+03  0.7818608E-02  0.1097444E+00
         -1   -1    0    0    0  501 -0.00000000000E+00  0.00000000000E+00  0.49215710797E+02  0.49215710797E+02  0.00000000000E+00 0.  1.
          1   -1    0    0  501    0  0.00000000000E+00 -0.00000000000E+00 -0.38922512108E+03  0.38922512108E+03  0.00000000000E+00 0.  1.
         35    2    1    2    0    0  0.00000000000E+00  0.00000000000E+00 -0.34000941029E+03  0.43844083188E+03  0.27681033936E+03 0.  0.
         25    1    3    3    0    0  0.50122739585E+02  0.63537893773E+01 -0.24435258533E+03  0.27687695032E+03  0.12000000000E+03 0.  0.
         25    1    3    3    0    0 -0.50122739585E+02 -0.63537893773E+01 -0.95656824959E+02  0.16156388156E+03  0.12000000000E+03 0.  0.
<mgrwt>
<rscale>  0 0.27681034E+03</rscale>
<asrwt>0</asrwt>
<pdfrwt beam="1">  1        1 0.59880788E-01 0.27681034E+03</pdfrwt>
<pdfrwt beam="2">  1       -1 0.75716478E-02 0.27681034E+03</pdfrwt>
<totfact> 0.58487295E+03</totfact>
</mgrwt>
</event>
<event>
 5    1  0.1111501E+001  0.2729996E+03  0.7818608E-02  0.1099575E+00
         -1   -1    0    0    0  501 -0.00000000000E+00  0.00000000000E+00  0.13713399772E+02  0.13713399772E+02  0.00000000000E+00 0. -1.
          1   -1    0    0  501    0  0.00000000000E+00 -0.00000000000E+00 -0.13586856127E+04  0.13586856127E+04  0.00000000000E+00 0. -1.
         35    2    1    2    0    0  0.00000000000E+00  0.00000000000E+00 -0.13449722129E+04  0.13723990125E+04  0.27299962617E+03 0.  0.
         25    1    3    3    0    0  0.37259499784E+02 -0.52558211265E+02 -0.62708513530E+03  0.64170585381E+03  0.12000000000E+03 0.  0.
         25    1    3    3    0    0 -0.37259499784E+02  0.52558211265E+02 -0.71788707763E+03  0.73069315867E+03  0.12000000000E+03 0.  0.
<mgrwt>
<rscale>  0 0.27299963E+03</rscale>
<asrwt>0</asrwt>
<pdfrwt beam="1">  1        1 0.20902863E+00 0.27299963E+03</pdfrwt>
<pdfrwt beam="2">  1       -1 0.21097531E-02 0.27299963E+03</pdfrwt>
<totfact> 0.56418532E+03</totfact>
</mgrwt>
</event>
<event>
 5    1  0.1111501E+001  0.2752419E+03  0.7818608E-02  0.1098316E+00
         -2   -1    0    0    0  501 -0.00000000000E+00  0.00000000000E+00  0.31435890993E+02  0.31435890993E+02  0.00000000000E+00 0.  1.
          2   -1    0    0  501    0  0.00000000000E+00 -0.00000000000E+00 -0.60248079900E+03  0.60248079900E+03  0.00000000000E+00 0.  1.
         35    2    1    2    0    0  0.00000000000E+00  0.00000000000E+00 -0.57104490800E+03  0.63391668999E+03  0.27524186253E+03 0.  0.
         25    1    3    3    0    0  0.32987101903E+02  0.30046984216E+02 -0.40179155808E+03  0.42169589314E+03  0.12000000000E+03 0.  0.
         25    1    3    3    0    0 -0.32987101903E+02 -0.30046984216E+02 -0.16925334993E+03  0.21222079685E+03  0.12000000000E+03 0.  0.
<mgrwt>
<rscale>  0 0.27524186E+03</rscale>
<asrwt>0</asrwt>
<pdfrwt beam="1">  1        2 0.92689348E-01 0.27524186E+03</pdfrwt>
<pdfrwt beam="2">  1       -2 0.48362912E-02 0.27524186E+03</pdfrwt>
<totfact> 0.10295654E+04</totfact>
</mgrwt>
</event>
<event>
 5    1  0.1111501E+001  0.2754022E+03  0.7818608E-02  0.1098227E+00
          2   -1    0    0  501    0  0.00000000000E+00  0.00000000000E+00  0.45683344055E+03  0.45683344055E+03  0.00000000000E+00 0. -1.
         -2   -1    0    0    0  501 -0.00000000000E+00 -0.00000000000E+00 -0.41506570898E+02  0.41506570898E+02  0.00000000000E+00 0. -1.
         35    2    1    2    0    0  0.00000000000E+00  0.00000000000E+00  0.41532686966E+03  0.49834001145E+03  0.27540217566E+03 0.  0.
         25    1    3    3    0    0 -0.25253325554E+02  0.49221896127E+02  0.13755697983E+03  0.19074183654E+03  0.12000000000E+03 0.  0.
         25    1    3    3    0    0  0.25253325554E+02 -0.49221896127E+02  0.27776988983E+03  0.30759817491E+03  0.12000000000E+03 0.  0.
<mgrwt>
<rscale>  0 0.27540218E+03</rscale>
<asrwt>0</asrwt>
<pdfrwt beam="1">  1        2 0.70282065E-01 0.27540218E+03</pdfrwt>
<pdfrwt beam="2">  1       -2 0.63856266E-02 0.27540218E+03</pdfrwt>
<totfact> 0.92053112E+03</totfact>
</mgrwt>
</event>
<event>
 5    1  0.1111501E+001  0.2768152E+03  0.7818608E-02  0.1097441E+00
          2   -1    0    0  501    0  0.00000000000E+00  0.00000000000E+00  0.10460129413E+03  0.10460129413E+03  0.00000000000E+00 0. -1.
         -2   -1    0    0    0  501 -0.00000000000E+00 -0.00000000000E+00 -0.18313979393E+03  0.18313979393E+03  0.00000000000E+00 0. -1.
         35    2    1    2    0    0  0.00000000000E+00  0.00000000000E+00 -0.78538499804E+02  0.28774108806E+03  0.27681516903E+03 0.  0.
         25    1    3    3    0    0  0.36608276929E+02  0.18752629705E+02 -0.96815278983E+02  0.15957764663E+03  0.12000000000E+03 0.  0.
         25    1    3    3    0    0 -0.36608276929E+02 -0.18752629705E+02  0.18276779179E+02  0.12816344142E+03  0.12000000000E+03 0.  0.
<mgrwt>
<rscale>  0 0.27681517E+03</rscale>
<asrwt>0</asrwt>
<pdfrwt beam="1">  1        2 0.16092507E-01 0.27681517E+03</pdfrwt>
<pdfrwt beam="2">  1       -2 0.28175353E-01 0.27681517E+03</pdfrwt>
<totfact> 0.40866565E+03</totfact>
</mgrwt>
</event>
<event>
 5    1  0.1111501E+001  0.2756856E+03  0.7818608E-02  0.1098069E+00
         -1   -1    0    0    0  501 -0.00000000000E+00  0.00000000000E+00  0.30904828999E+02  0.30904828999E+02  0.00000000000E+00 0.  1.
          1   -1    0    0  501    0  0.00000000000E+00 -0.00000000000E+00 -0.61481148264E+03  0.61481148264E+03  0.00000000000E+00 0.  1.
         35    2    1    2    0    0  0.00000000000E+00  0.00000000000E+00 -0.58390665364E+03  0.64571631164E+03  0.27568564516E+03 0.  0.
         25    1    3    3    0    0 -0.58008129362E+02 -0.17276602925E+02 -0.22024851531E+03  0.25801711683E+03  0.12000000000E+03 0.  0.
         25    1    3    3    0    0  0.58008129362E+02  0.17276602925E+02 -0.36365813833E+03  0.38769919481E+03  0.12000000000E+03 0.  0.
<mgrwt>
<rscale>  0 0.27568565E+03</rscale>
<asrwt>0</asrwt>
<pdfrwt beam="1">  1        1 0.94586382E-01 0.27568565E+03</pdfrwt>
<pdfrwt beam="2">  1       -1 0.47545891E-02 0.27568565E+03</pdfrwt>
<totfact> 0.64294765E+03</totfact>
</mgrwt>
</event>
<event>
 5    1  0.1111501E+001  0.2749504E+03  0.7818608E-02  0.1098479E+00
         -2   -1    0    0    0  501 -0.00000000000E+00  0.00000000000E+00  0.63699833146E+02  0.63699833146E+02  0.00000000000E+00 0.  1.
          2   -1    0    0  501    0  0.00000000000E+00 -0.00000000000E+00 -0.29669519543E+03  0.29669519543E+03  0.00000000000E+00 0.  1.
         35    2    1    2    0    0  0.00000000000E+00  0.00000000000E+00 -0.23299536228E+03  0.36039502858E+03  0.27495042785E+03 0.  0.
         25    1    3    3    0    0  0.60000753140E+02  0.25148478310E+02 -0.13791164854E+03  0.19404164280E+03  0.12000000000E+03 0.  0.
         25    1    3    3    0    0 -0.60000753140E+02 -0.25148478310E+02 -0.95083713747E+02  0.16635338577E+03  0.12000000000E+03 0.  0.
<mgrwt>
<rscale>  0 0.27495043E+03</rscale>
<asrwt>0</asrwt>
<pdfrwt beam="1">  1        2 0.45645415E-01 0.27495043E+03</pdfrwt>
<pdfrwt beam="2">  1       -2 0.97999742E-02 0.27495043E+03</pdfrwt>
<totfact> 0.75277513E+03</totfact>
</mgrwt>
</event>
<event>
 5    1  0.1111501E+001  0.2754687E+03  0.7818608E-02  0.1098190E+00
         -1   -1    0    0    0  501 -0.00000000000E+00  0.00000000000E+00  0.15357217064E+03  0.15357217064E+03  0.00000000000E+00 0. -1.
          1   -1    0    0  501    0  0.00000000000E+00 -0.00000000000E+00 -0.12352991684E+03  0.12352991684E+03  0.00000000000E+00 0. -1.
         35    2    1    2    0    0  0.00000000000E+00  0.00000000000E+00  0.30042253800E+02  0.27710208748E+03  0.27546874572E+03 0.  0.
         25    1    3    3    0    0 -0.24852536204E+02  0.51413311017E+02  0.51426602007E+02  0.14249797367E+03  0.12000000000E+03 0.  0.
         25    1    3    3    0    0  0.24852536204E+02 -0.51413311017E+02 -0.21384348207E+02  0.13460411381E+03  0.12000000000E+03 0.  0.
<mgrwt>
<rscale>  0 0.27546875E+03</rscale>
<asrwt>0</asrwt>
<pdfrwt beam="1">  1        1 0.19004603E-01 0.27546875E+03</pdfrwt>
<pdfrwt beam="2">  1       -1 0.23626488E-01 0.27546875E+03</pdfrwt>
<totfact> 0.41525394E+03</totfact>
</mgrwt>
</event>
<event>
 5    1  0.1111501E+001  0.2747862E+03  0.7818608E-02  0.1098571E+00
          2   -1    0    0  501    0  0.00000000000E+00  0.00000000000E+00  0.21055944014E+04  0.21055944014E+04  0.00000000000E+00 0. -1.
         -2   -1    0    0    0  501 -0.00000000000E+00 -0.00000000000E+00 -0.89651029824E+01  0.89651029824E+01  0.00000000000E+00 0. -1.
         35    2    1    2    0    0  0.00000000000E+00  0.00000000000E+00  0.20966292985E+04  0.21145595044E+04  0.27478624891E+03 0.  0.
         25    1    3    3    0    0 -0.16450258376E+02  0.62589078604E+02  0.91752487328E+03  0.92759899572E+03  0.12000000000E+03 0.  0.
         25    1    3    3    0    0  0.16450258376E+02 -0.62589078604E+02  0.11791044252E+04  0.11869605087E+04  0.12000000000E+03 0.  0.
<mgrwt>
<rscale>  0 0.27478625E+03</rscale>
<asrwt>0</asrwt>
<pdfrwt beam="1">  1        2 0.32393721E+00 0.27478625E+03</pdfrwt>
<pdfrwt beam="2">  1       -2 0.13792483E-02 0.27478625E+03</pdfrwt>
<totfact> 0.87173293E+03</totfact>
</mgrwt>
</event>
<event>
 5    1  0.1111501E+001  0.2747832E+03  0.7818608E-02  0.1098573E+00
         -2   -1    0    0    0  501 -0.00000000000E+00  0.00000000000E+00  0.12522009095E+02  0.12522009095E+02  0.00000000000E+00 0. -1.
          2   -1    0    0  501    0  0.00000000000E+00 -0.00000000000E+00 -0.15074621045E+04  0.15074621045E+04  0.00000000000E+00 0. -1.
         35    2    1    2    0    0  0.00000000000E+00  0.00000000000E+00 -0.14949400954E+04  0.15199841136E+04  0.27478321770E+03 0.  0.
         25    1    3    3    0    0  0.38242703239E+02  0.30579323500E+02 -0.49526084860E+03  0.51193838256E+03  0.12000000000E+03 0.  0.
         25    1    3    3    0    0 -0.38242703239E+02 -0.30579323500E+02 -0.99967924676E+03  0.10080457310E+04  0.12000000000E+03 0.  0.
<mgrwt>
<rscale>  0 0.27478322E+03</rscale>
<asrwt>0</asrwt>
<pdfrwt beam="1">  1        2 0.23191730E+00 0.27478322E+03</pdfrwt>
<pdfrwt beam="2">  1       -2 0.19264625E-02 0.27478322E+03</pdfrwt>
<totfact> 0.11043602E+04</totfact>
</mgrwt>
</event>
<event>
 5    1  0.1111501E+001  0.2730481E+03  0.7818608E-02  0.1099548E+00
         -2   -1    0    0    0  501 -0.00000000000E+00  0.00000000000E+00  0.13980936084E+02  0.13980936084E+02  0.00000000000E+00 0. -1.
          2   -1    0    0  501    0  0.00000000000E+00 -0.00000000000E+00 -0.13331595082E+04  0.13331595082E+04  0.00000000000E+00 0. -1.
         35    2    1    2    0    0  0.00000000000E+00  0.00000000000E+00 -0.13191785721E+04  0.13471404443E+04  0.27304811205E+03 0.  0.
         25    1    3    3    0    0 -0.60490785737E+02  0.15653899665E+02 -0.74984223803E+03  0.76194984196E+03  0.12000000000E+03 0.  0.
         25    1    3    3    0    0  0.60490785737E+02 -0.15653899665E+02 -0.56933633408E+03  0.58519060232E+03  0.12000000000E+03 0.  0.
<mgrwt>
<rscale>  0 0.27304811E+03</rscale>
<asrwt>0</asrwt>
<pdfrwt beam="1">  1        2 0.20510148E+00 0.27304811E+03</pdfrwt>
<pdfrwt beam="2">  1       -2 0.21509130E-02 0.27304811E+03</pdfrwt>
<totfact> 0.11667986E+04</totfact>
</mgrwt>
</event>
<event>
 5    1  0.1111501E+001  0.2752275E+03  0.7818608E-02  0.1098325E+00
          3   -1    0    0  501    0  0.00000000000E+00  0.00000000000E+00  0.10487502495E+02  0.10487502495E+02  0.00000000000E+00 0. -1.
         -3   -1    0    0    0  501 -0.00000000000E+00 -0.00000000000E+00 -0.18057245305E+04  0.18057245305E+04  0.00000000000E+00 0. -1.
         35    2    1    2    0    0  0.00000000000E+00  0.00000000000E+00 -0.17952370280E+04  0.18162120330E+04  0.27522747332E+03 0.  0.
         25    1    3    3    0    0 -0.16526346720E+02  0.53295118597E+02 -0.11466403861E+04  0.11542519936E+04  0.12000000000E+03 0.  0.
         25    1    3    3    0    0  0.16526346720E+02 -0.53295118597E+02 -0.64859664191E+03  0.66196003935E+03  0.12000000000E+03 0.  0.
<mgrwt>
<rscale>  0 0.27522747E+03</rscale>
<asrwt>0</asrwt>
<pdfrwt beam="1">  1        3 0.16134632E-02 0.27522747E+03</pdfrwt>
<pdfrwt beam="2">  1       -3 0.27780356E+00 0.27522747E+03</pdfrwt>
<totfact> 0.19333843E+02</totfact>
</mgrwt>
</event>
<event>
 5    1  0.1111501E+001  0.2753255E+03  0.7818608E-02  0.1098270E+00
         -2   -1    0    0    0  501 -0.00000000000E+00  0.00000000000E+00  0.61233530602E+02  0.61233530602E+02  0.00000000000E+00 0. -1.
          2   -1    0    0  501    0  0.00000000000E+00 -0.00000000000E+00 -0.30948784216E+03  0.30948784216E+03  0.00000000000E+00 0. -1.
         35    2    1    2    0    0  0.00000000000E+00  0.00000000000E+00 -0.24825431155E+03  0.37072137276E+03  0.27532550375E+03 0.  0.
         25    1    3    3    0    0  0.20980368219E+02  0.55106424926E+02 -0.79997403205E+02  0.15580910897E+03  0.12000000000E+03 0.  0.
         25    1    3    3    0    0 -0.20980368219E+02 -0.55106424926E+02 -0.16825690835E+03  0.21491226379E+03  0.12000000000E+03 0.  0.
<mgrwt>
<rscale>  0 0.27532550E+03</rscale>
<asrwt>0</asrwt>
<pdfrwt beam="1">  1        2 0.47613514E-01 0.27532550E+03</pdfrwt>
<pdfrwt beam="2">  1       -2 0.94205431E-02 0.27532550E+03</pdfrwt>
<totfact> 0.76584516E+03</totfact>
</mgrwt>
</event>
<event>
 5    1  0.1111501E+001  0.2767111E+03  0.7818608E-02  0.1097499E+00
         -2   -1    0    0    0  501 -0.00000000000E+00  0.00000000000E+00  0.83036440268E+01  0.83036440268E+01  0.00000000000E+00 0.  1.
          2   -1    0    0  501    0  0.00000000000E+00 -0.00000000000E+00 -0.23052848044E+04  0.23052848044E+04  0.00000000000E+00 0.  1.
         35    2    1    2    0    0  0.00000000000E+00  0.00000000000E+00 -0.22969811604E+04  0.23135884484E+04  0.27671114467E+03 0.  0.
         25    1    3    3    0    0  0.33170096288E+00  0.68862578481E+02 -0.11458511502E+04  0.11541737404E+04  0.12000000000E+03 0.  0.
         25    1    3    3    0    0 -0.33170096288E+00 -0.68862578481E+02 -0.11511300102E+04  0.11594147080E+04  0.12000000000E+03 0.  0.
<mgrwt>
<rscale>  0 0.27671114E+03</rscale>
<asrwt>0</asrwt>
<pdfrwt beam="1">  1        2 0.35465984E+00 0.27671114E+03</pdfrwt>
<pdfrwt beam="2">  1       -2 0.12774814E-02 0.27671114E+03</pdfrwt>
<totfact> 0.76324448E+03</totfact>
</mgrwt>
</event>
<event>
 5    1  0.1111501E+001  0.2757506E+03  0.7818608E-02  0.1098033E+00
         -3   -1    0    0    0  501 -0.00000000000E+00  0.00000000000E+00  0.16763011206E+02  0.16763011206E+02  0.00000000000E+00 0. -1.
          3   -1    0    0  501    0  0.00000000000E+00 -0.00000000000E+00 -0.11340205751E+04  0.11340205751E+04  0.00000000000E+00 0. -1.
         35    2    1    2    0    0  0.00000000000E+00  0.00000000000E+00 -0.11172575639E+04  0.11507835863E+04  0.27575060913E+03 0.  0.
         25    1    3    3    0    0  0.46227833748E+02 -0.16275197076E+02 -0.36254228198E+03  0.38501792280E+03  0.12000000000E+03 0.  0.
         25    1    3    3    0    0 -0.46227833748E+02  0.16275197076E+02 -0.75471528192E+03  0.76576566351E+03  0.12000000000E+03 0.  0.
<mgrwt>
<rscale>  0 0.27575061E+03</rscale>
<asrwt>0</asrwt>
<pdfrwt beam="1">  1        3 0.17446471E+00 0.27575061E+03</pdfrwt>
<pdfrwt beam="2">  1       -3 0.25789248E-02 0.27575061E+03</pdfrwt>
<totfact> 0.37968193E+02</totfact>
</mgrwt>
</event>
<event>
 5    1  0.1111501E+001  0.2738498E+03  0.7818608E-02  0.1099096E+00
          2   -1    0    0  501    0  0.00000000000E+00  0.00000000000E+00  0.78050859586E+03  0.78050859586E+03  0.00000000000E+00 0. -1.
         -2   -1    0    0    0  501 -0.00000000000E+00 -0.00000000000E+00 -0.24020788959E+02  0.24020788959E+02  0.00000000000E+00 0. -1.
         35    2    1    2    0    0  0.00000000000E+00  0.00000000000E+00  0.75648780690E+03  0.80452938482E+03  0.27384982937E+03 0.  0.
         25    1    3    3    0    0  0.25090990149E+01 -0.12395752561E+02  0.56837701833E+03  0.58104421968E+03  0.12000000000E+03 0.  0.
         25    1    3    3    0    0 -0.25090990149E+01  0.12395752561E+02  0.18811078857E+03  0.22348516514E+03  0.12000000000E+03 0.  0.
<mgrwt>
<rscale>  0 0.27384983E+03</rscale>
<asrwt>0</asrwt>
<pdfrwt beam="1">  1        2 0.12007823E+00 0.27384983E+03</pdfrwt>
<pdfrwt beam="2">  1       -2 0.36955066E-02 0.27384983E+03</pdfrwt>
<totfact> 0.11297509E+04</totfact>
</mgrwt>
</event>
<event>
 5    1  0.1111501E+001  0.2757917E+03  0.7818608E-02  0.1098010E+00
          1   -1    0    0  501    0  0.00000000000E+00  0.00000000000E+00  0.59409633025E+03  0.59409633025E+03  0.00000000000E+00 0. -1.
         -1   -1    0    0    0  501 -0.00000000000E+00 -0.00000000000E+00 -0.32007035545E+02  0.32007035545E+02  0.00000000000E+00 0. -1.
         35    2    1    2    0    0  0.00000000000E+00  0.00000000000E+00  0.56208929471E+03  0.62610336580E+03  0.27579167761E+03 0.  0.
         25    1    3    3    0    0  0.31627330426E+02 -0.59394146430E+02  0.25983193867E+03  0.29400780434E+03  0.12000000000E+03 0.  0.
         25    1    3    3    0    0 -0.31627330426E+02  0.59394146430E+02  0.30225735604E+03  0.33209556146E+03  0.12000000000E+03 0.  0.
<mgrwt>
<rscale>  0 0.27579168E+03</rscale>
<asrwt>0</asrwt>
<pdfrwt beam="1">  1        1 0.91399427E-01 0.27579168E+03</pdfrwt>
<pdfrwt beam="2">  1       -1 0.49241598E-02 0.27579168E+03</pdfrwt>
<totfact> 0.63991367E+03</totfact>
</mgrwt>
</event>
<event>
 5    1  0.1111501E+001  0.2763191E+03  0.7818608E-02  0.1097717E+00
          2   -1    0    0  501    0  0.00000000000E+00  0.00000000000E+00  0.13193761767E+04  0.13193761767E+04  0.00000000000E+00 0. -1.
         -2   -1    0    0    0  501 -0.00000000000E+00 -0.00000000000E+00 -0.14467488492E+02  0.14467488492E+02  0.00000000000E+00 0. -1.
         35    2    1    2    0    0  0.00000000000E+00  0.00000000000E+00  0.13049086882E+04  0.13338436652E+04  0.27631908840E+03 0.  0.
         25    1    3    3    0    0  0.61601731141E+02  0.23732496932E+01  0.79627322831E+03  0.80762086384E+03  0.12000000000E+03 0.  0.
         25    1    3    3    0    0 -0.61601731141E+02 -0.23732496932E+01  0.50863545992E+03  0.52622280137E+03  0.12000000000E+03 0.  0.
<mgrwt>
<rscale>  0 0.27631909E+03</rscale>
<asrwt>0</asrwt>
<pdfrwt beam="1">  1        2 0.20298086E+00 0.27631909E+03</pdfrwt>
<pdfrwt beam="2">  1       -2 0.22257685E-02 0.27631909E+03</pdfrwt>
<totfact> 0.11292935E+04</totfact>
</mgrwt>
</event>
<event>
 5    1  0.1111501E+001  0.2762908E+03  0.7818608E-02  0.1097732E+00
         -1   -1    0    0    0  501 -0.00000000000E+00  0.00000000000E+00  0.16944058296E+02  0.16944058296E+02  0.00000000000E+00 0.  1.
          1   -1    0    0  501    0  0.00000000000E+00 -0.00000000000E+00 -0.11263033837E+04  0.11263033837E+04  0.00000000000E+00 0.  1.
         35    2    1    2    0    0  0.00000000000E+00  0.00000000000E+00 -0.11093593254E+04  0.11432474420E+04  0.27629079024E+03 0.  0.
         25    1    3    3    0    0 -0.16782067192E+02 -0.42461251391E+02 -0.76565092284E+03  0.77634137549E+03  0.12000000000E+03 0.  0.
         25    1    3    3    0    0  0.16782067192E+02  0.42461251391E+02 -0.34370840259E+03  0.36690606654E+03  0.12000000000E+03 0.  0.
<mgrwt>
<rscale>  0 0.27629079E+03</rscale>
<asrwt>0</asrwt>
<pdfrwt beam="1">  1        1 0.17327748E+00 0.27629079E+03</pdfrwt>
<pdfrwt beam="2">  1       -1 0.26067777E-02 0.27629079E+03</pdfrwt>
<totfact> 0.59958025E+03</totfact>
</mgrwt>
</event>
<event>
 5    1  0.1111501E+001  0.2756059E+03  0.7818608E-02  0.1098113E+00
         -1   -1    0    0    0  501 -0.00000000000E+00  0.00000000000E+00  0.10329421541E+02  0.10329421541E+02  0.00000000000E+00 0.  1.
          1   -1    0    0  501    0  0.00000000000E+00 -0.00000000000E+00 -0.18384048627E+04  0.18384048627E+04  0.00000000000E+00 0.  1.
         35    2    1    2    0    0  0.00000000000E+00  0.00000000000E+00 -0.18280754412E+04  0.18487342843E+04  0.27560594181E+03 0.  0.
         25    1    3    3    0    0  0.72027457019E+01  0.54250908000E+02 -0.64617376331E+03  0.65949645409E+03  0.12000000000E+03 0.  0.
         25    1    3    3    0    0 -0.72027457019E+01 -0.54250908000E+02 -0.11819016779E+04  0.11892378302E+04  0.12000000000E+03 0.  0.
<mgrwt>
<rscale>  0 0.27560594E+03</rscale>
<asrwt>0</asrwt>
<pdfrwt beam="1">  1        1 0.28283138E+00 0.27560594E+03</pdfrwt>
<pdfrwt beam="2">  1       -1 0.15891426E-02 0.27560594E+03</pdfrwt>
<totfact> 0.41220609E+03</totfact>
</mgrwt>
</event>
<event>
 5    1  0.1111501E+001  0.2738542E+03  0.7818608E-02  0.1099094E+00
          2   -1    0    0  501    0  0.00000000000E+00  0.00000000000E+00  0.82531236540E+03  0.82531236540E+03  0.00000000000E+00 0. -1.
         -2   -1    0    0    0  501 -0.00000000000E+00 -0.00000000000E+00 -0.22717496545E+02  0.22717496545E+02  0.00000000000E+00 0. -1.
         35    2    1    2    0    0  0.00000000000E+00  0.00000000000E+00  0.80259486886E+03  0.84802986195E+03  0.27385420069E+03 0.  0.
         25    1    3    3    0    0  0.53065590024E+02  0.31085775621E+02  0.47501770752E+03  0.49378548455E+03  0.12000000000E+03 0.  0.
         25    1    3    3    0    0 -0.53065590024E+02 -0.31085775621E+02  0.32757716134E+03  0.35424437740E+03  0.12000000000E+03 0.  0.
<mgrwt>
<rscale>  0 0.27385420E+03</rscale>
<asrwt>0</asrwt>
<pdfrwt beam="1">  1        2 0.12697111E+00 0.27385420E+03</pdfrwt>
<pdfrwt beam="2">  1       -2 0.34950001E-02 0.27385420E+03</pdfrwt>
<totfact> 0.11438602E+04</totfact>
</mgrwt>
</event>
<event>
 5    1  0.1111501E+001  0.2798383E+03  0.7818608E-02  0.1095777E+00
          3   -1    0    0  501    0  0.00000000000E+00  0.00000000000E+00  0.19119534880E+03  0.19119534880E+03  0.00000000000E+00 0.  1.
         -3   -1    0    0    0  501 -0.00000000000E+00 -0.00000000000E+00 -0.10239457838E+03  0.10239457838E+03  0.00000000000E+00 0.  1.
         35    2    1    2    0    0  0.00000000000E+00  0.00000000000E+00  0.88800770414E+02  0.29358992718E+03  0.27983828994E+03 0.  0.
         25    1    3    3    0    0  0.53285412244E+02 -0.42405894932E+02  0.68775081196E+02  0.15416746374E+03  0.12000000000E+03 0.  0.
         25    1    3    3    0    0 -0.53285412244E+02  0.42405894932E+02  0.20025689217E+02  0.13942246344E+03  0.12000000000E+03 0.  0.
<mgrwt>
<rscale>  0 0.27983829E+03</rscale>
<asrwt>0</asrwt>
<pdfrwt beam="1">  1        3 0.29414669E-01 0.27983829E+03</pdfrwt>
<pdfrwt beam="2">  1       -3 0.15753012E-01 0.27983829E+03</pdfrwt>
<totfact> 0.96783461E+02</totfact>
</mgrwt>
</event>
<event>
 5    1  0.1111501E+001  0.2758827E+03  0.7818608E-02  0.1097959E+00
          2   -1    0    0  501    0  0.00000000000E+00  0.00000000000E+00  0.28465113837E+03  0.28465113837E+03  0.00000000000E+00 0.  1.
         -2   -1    0    0    0  501 -0.00000000000E+00 -0.00000000000E+00 -0.66846076875E+02  0.66846076875E+02  0.00000000000E+00 0.  1.
         35    2    1    2    0    0  0.00000000000E+00  0.00000000000E+00  0.21780506150E+03  0.35149721525E+03  0.27588266983E+03 0.  0.
         25    1    3    3    0    0 -0.66292421137E+02 -0.51280573523E+01  0.12722584503E+03  0.18710263952E+03  0.12000000000E+03 0.  0.
         25    1    3    3    0    0  0.66292421137E+02  0.51280573523E+01  0.90579216469E+02  0.16439457573E+03  0.12000000000E+03 0.  0.
<mgrwt>
<rscale>  0 0.27588267E+03</rscale>
<asrwt>0</asrwt>
<pdfrwt beam="1">  1        2 0.43792482E-01 0.27588267E+03</pdfrwt>
<pdfrwt beam="2">  1       -2 0.10284012E-01 0.27588267E+03</pdfrwt>
<totfact> 0.72909893E+03</totfact>
</mgrwt>
</event>
<event>
 5    1  0.1111501E+001  0.2755748E+03  0.7818608E-02  0.1098131E+00
          2   -1    0    0  501    0  0.00000000000E+00  0.00000000000E+00  0.89319487446E+03  0.89319487446E+03  0.00000000000E+00 0.  1.
         -2   -1    0    0    0  501 -0.00000000000E+00 -0.00000000000E+00 -0.21255564565E+02  0.21255564565E+02  0.00000000000E+00 0.  1.
         35    2    1    2    0    0  0.00000000000E+00  0.00000000000E+00  0.87193930990E+03  0.91445043903E+03  0.27557475445E+03 0.  0.
         25    1    3    3    0    0  0.61880342555E+02  0.27030389181E+02  0.45274043262E+03  0.47321635439E+03  0.12000000000E+03 0.  0.
         25    1    3    3    0    0 -0.61880342555E+02 -0.27030389181E+02  0.41919887728E+03  0.44123408464E+03  0.12000000000E+03 0.  0.
<mgrwt>
<rscale>  0 0.27557475E+03</rscale>
<asrwt>0</asrwt>
<pdfrwt beam="1">  1        2 0.13741457E+00 0.27557475E+03</pdfrwt>
<pdfrwt beam="2">  1       -2 0.32700876E-02 0.27557475E+03</pdfrwt>
<totfact> 0.11392935E+04</totfact>
</mgrwt>
</event>
<event>
 5    1  0.1111501E+001  0.2740202E+03  0.7818608E-02  0.1099001E+00
         -2   -1    0    0    0  501 -0.00000000000E+00  0.00000000000E+00  0.12758116689E+02  0.12758116689E+02  0.00000000000E+00 0. -1.
          2   -1    0    0  501    0  0.00000000000E+00 -0.00000000000E+00 -0.14713592507E+04  0.14713592507E+04  0.00000000000E+00 0. -1.
         35    2    1    2    0    0  0.00000000000E+00  0.00000000000E+00 -0.14586011341E+04  0.14841173674E+04  0.27402024022E+03 0.  0.
         25    1    3    3    0    0  0.44596540622E+02 -0.47490628718E+02 -0.66812952802E+03  0.68193935028E+03  0.12000000000E+03 0.  0.
         25    1    3    3    0    0 -0.44596540622E+02  0.47490628718E+02 -0.79047160604E+03  0.80217801715E+03  0.12000000000E+03 0.  0.
<mgrwt>
<rscale>  0 0.27402024E+03</rscale>
<asrwt>0</asrwt>
<pdfrwt beam="1">  1        2 0.22636301E+00 0.27402024E+03</pdfrwt>
<pdfrwt beam="2">  1       -2 0.19627867E-02 0.27402024E+03</pdfrwt>
<totfact> 0.11233311E+04</totfact>
</mgrwt>
</event>
<event>
 5    1  0.1111501E+001  0.2748122E+03  0.7818608E-02  0.1098557E+00
         -1   -1    0    0    0  501 -0.00000000000E+00  0.00000000000E+00  0.28438763166E+02  0.28438763166E+02  0.00000000000E+00 0.  1.
          1   -1    0    0  501    0  0.00000000000E+00 -0.00000000000E+00 -0.66389792529E+03  0.66389792529E+03  0.00000000000E+00 0.  1.
         35    2    1    2    0    0  0.00000000000E+00  0.00000000000E+00 -0.63545916212E+03  0.69233668845E+03  0.27481219670E+03 0.  0.
         25    1    3    3    0    0  0.47603443814E+02  0.45427546118E+02 -0.28680399966E+03  0.31778339168E+03  0.12000000000E+03 0.  0.
         25    1    3    3    0    0 -0.47603443814E+02 -0.45427546118E+02 -0.34865516246E+03  0.37455329677E+03  0.12000000000E+03 0.  0.
<mgrwt>
<rscale>  0 0.27481220E+03</rscale>
<asrwt>0</asrwt>
<pdfrwt beam="1">  1        1 0.10213814E+00 0.27481220E+03</pdfrwt>
<pdfrwt beam="2">  1       -1 0.43751944E-02 0.27481220E+03</pdfrwt>
<totfact> 0.65291943E+03</totfact>
</mgrwt>
</event>
<event>
 5    1  0.1111501E+001  0.2737413E+03  0.7818608E-02  0.1099157E+00
          1   -1    0    0  501    0  0.00000000000E+00  0.00000000000E+00  0.62519364176E+03  0.62519364176E+03  0.00000000000E+00 0.  1.
         -1   -1    0    0    0  501 -0.00000000000E+00 -0.00000000000E+00 -0.29964441241E+02  0.29964441241E+02  0.00000000000E+00 0.  1.
         35    2    1    2    0    0  0.00000000000E+00  0.00000000000E+00  0.59522920052E+03  0.65515808300E+03  0.27374132419E+03 0.  0.
         25    1    3    3    0    0  0.35584327660E+02  0.55273170868E+02  0.28925145195E+03  0.31998089045E+03  0.12000000000E+03 0.  0.
         25    1    3    3    0    0 -0.35584327660E+02 -0.55273170868E+02  0.30597774856E+03  0.33517719256E+03  0.12000000000E+03 0.  0.
<mgrwt>
<rscale>  0 0.27374132E+03</rscale>
<asrwt>0</asrwt>
<pdfrwt beam="1">  1        1 0.96183628E-01 0.27374132E+03</pdfrwt>
<pdfrwt beam="2">  1       -1 0.46099145E-02 0.27374132E+03</pdfrwt>
<totfact> 0.65758393E+03</totfact>
</mgrwt>
</event>
<event>
 5    1  0.1111501E+001  0.2753822E+03  0.7818608E-02  0.1098238E+00
          2   -1    0    0  501    0  0.00000000000E+00  0.00000000000E+00  0.40865345288E+03  0.40865345288E+03  0.00000000000E+00 0.  1.
         -2   -1    0    0    0  501 -0.00000000000E+00 -0.00000000000E+00 -0.46393448988E+02  0.46393448988E+02  0.00000000000E+00 0.  1.
         35    2    1    2    0    0  0.00000000000E+00  0.00000000000E+00  0.36226000389E+03  0.45504690187E+03  0.27538222978E+03 0.  0.
         25    1    3    3    0    0  0.21364707141E+02 -0.18129589896E+02  0.28263899809E+03  0.30833413042E+03  0.12000000000E+03 0.  0.
         25    1    3    3    0    0 -0.21364707141E+02  0.18129589896E+02  0.79621005803E+02  0.14671277145E+03  0.12000000000E+03 0.  0.
<mgrwt>
<rscale>  0 0.27538223E+03</rscale>
<asrwt>0</asrwt>
<pdfrwt beam="1">  1        2 0.62869760E-01 0.27538223E+03</pdfrwt>
<pdfrwt beam="2">  1       -2 0.71374540E-02 0.27538223E+03</pdfrwt>
<totfact> 0.87575887E+03</totfact>
</mgrwt>
</event>
<event>
 5    1  0.1111501E+001  0.2784213E+03  0.7818608E-02  0.1096554E+00
          2   -1    0    0  501    0  0.00000000000E+00  0.00000000000E+00  0.36036918010E+03  0.36036918010E+03  0.00000000000E+00 0. -1.
         -2   -1    0    0    0  501 -0.00000000000E+00 -0.00000000000E+00 -0.53777091979E+02  0.53777091979E+02  0.00000000000E+00 0. -1.
         35    2    1    2    0    0  0.00000000000E+00  0.00000000000E+00  0.30659208812E+03  0.41414627208E+03  0.27842131057E+03 0.  0.
         25    1    3    3    0    0 -0.24427889130E+02 -0.48945563888E+02  0.86986829903E+02  0.15798448838E+03  0.12000000000E+03 0.  0.
         25    1    3    3    0    0  0.24427889130E+02  0.48945563888E+02  0.21960525821E+03  0.25616178370E+03  0.12000000000E+03 0.  0.
<mgrwt>
<rscale>  0 0.27842131E+03</rscale>
<asrwt>0</asrwt>
<pdfrwt beam="1">  1        2 0.55441411E-01 0.27842131E+03</pdfrwt>
<pdfrwt beam="2">  1       -2 0.82733990E-02 0.27842131E+03</pdfrwt>
<totfact> 0.79767692E+03</totfact>
</mgrwt>
</event>
<event>
 5    1  0.1111501E+001  0.2754522E+03  0.7818608E-02  0.1098199E+00
         -2   -1    0    0    0  501 -0.00000000000E+00  0.00000000000E+00  0.15566547668E+02  0.15566547668E+02  0.00000000000E+00 0. -1.
          2   -1    0    0  501    0  0.00000000000E+00 -0.00000000000E+00 -0.12185409199E+04  0.12185409199E+04  0.00000000000E+00 0. -1.
         35    2    1    2    0    0  0.00000000000E+00  0.00000000000E+00 -0.12029743723E+04  0.12341074676E+04  0.27545217600E+03 0.  0.
         25    1    3    3    0    0 -0.51828275504E+01  0.33873296201E+02 -0.86250872501E+03  0.87149042600E+03  0.12000000000E+03 0.  0.
         25    1    3    3    0    0  0.51828275504E+01 -0.33873296201E+02 -0.34046564727E+03  0.36261704161E+03  0.12000000000E+03 0.  0.
<mgrwt>
<rscale>  0 0.27545218E+03</rscale>
<asrwt>0</asrwt>
<pdfrwt beam="1">  1        2 0.18746787E+00 0.27545218E+03</pdfrwt>
<pdfrwt beam="2">  1       -2 0.23948531E-02 0.27545218E+03</pdfrwt>
<totfact> 0.11536838E+04</totfact>
</mgrwt>
</event>
<event>
 5    1  0.1111501E+001  0.2725687E+03  0.7818608E-02  0.1099818E+00
         -1   -1    0    0    0  501 -0.00000000000E+00  0.00000000000E+00  0.72760363267E+03  0.72760363267E+03  0.00000000000E+00 0.  1.
          1   -1    0    0  501    0  0.00000000000E+00 -0.00000000000E+00 -0.25526849326E+02  0.25526849326E+02  0.00000000000E+00 0.  1.
         35    2    1    2    0    0  0.00000000000E+00  0.00000000000E+00  0.70207678334E+03  0.75313048200E+03  0.27256873115E+03 0.  0.
         25    1    3    3    0    0  0.54592608775E+02  0.43814547799E+01  0.44570693958E+03  0.46481633585E+03  0.12000000000E+03 0.  0.
         25    1    3    3    0    0 -0.54592608775E+02 -0.43814547799E+01  0.25636984376E+03  0.28831414615E+03  0.12000000000E+03 0.  0.
<mgrwt>
<rscale>  0 0.27256873E+03</rscale>
<asrwt>0</asrwt>
<pdfrwt beam="1">  1        1 0.39272081E-02 0.27256873E+03</pdfrwt>
<pdfrwt beam="2">  1       -1 0.11193900E+00 0.27256873E+03</pdfrwt>
<totfact> 0.18158277E+03</totfact>
</mgrwt>
</event>
<event>
 5    1  0.1111501E+001  0.2747272E+03  0.7818608E-02  0.1098604E+00
          2   -1    0    0  501    0  0.00000000000E+00  0.00000000000E+00  0.27238162384E+03  0.27238162384E+03  0.00000000000E+00 0.  1.
         -2   -1    0    0    0  501 -0.00000000000E+00 -0.00000000000E+00 -0.69273254065E+02  0.69273254065E+02  0.00000000000E+00 0.  1.
         35    2    1    2    0    0  0.00000000000E+00  0.00000000000E+00  0.20310836977E+03  0.34165487790E+03  0.27472722057E+03 0.  0.
         25    1    3    3    0    0  0.42542603103E+02  0.44975007330E+02  0.70188029870E+02  0.15218076061E+03  0.12000000000E+03 0.  0.
         25    1    3    3    0    0 -0.42542603103E+02 -0.44975007330E+02  0.13292033990E+03  0.18947411729E+03  0.12000000000E+03 0.  0.
<mgrwt>
<rscale>  0 0.27472722E+03</rscale>
<asrwt>0</asrwt>
<pdfrwt beam="1">  1        2 0.41904865E-01 0.27472722E+03</pdfrwt>
<pdfrwt beam="2">  1       -2 0.10657424E-01 0.27472722E+03</pdfrwt>
<totfact> 0.72208938E+03</totfact>
</mgrwt>
</event>
<event>
 5    1  0.1111501E+001  0.2773103E+03  0.7818608E-02  0.1097167E+00
         -2   -1    0    0    0  501 -0.00000000000E+00  0.00000000000E+00  0.18213634083E+02  0.18213634083E+02  0.00000000000E+00 0.  1.
          2   -1    0    0  501    0  0.00000000000E+00 -0.00000000000E+00 -0.10555413749E+04  0.10555413749E+04  0.00000000000E+00 0.  1.
         35    2    1    2    0    0  0.00000000000E+00  0.00000000000E+00 -0.10373277408E+04  0.10737550090E+04  0.27731025485E+03 0.  0.
         25    1    3    3    0    0 -0.62375956161E+01  0.68194705901E+02 -0.56378908675E+03  0.58047184243E+03  0.12000000000E+03 0.  0.
         25    1    3    3    0    0  0.62375956161E+01 -0.68194705901E+02 -0.47353865409E+03  0.49328316658E+03  0.12000000000E+03 0.  0.
<mgrwt>
<rscale>  0 0.27731025E+03</rscale>
<asrwt>0</asrwt>
<pdfrwt beam="1">  1        2 0.16239101E+00 0.27731025E+03</pdfrwt>
<pdfrwt beam="2">  1       -2 0.28020971E-02 0.27731025E+03</pdfrwt>
<totfact> 0.11368975E+04</totfact>
</mgrwt>
</event>
<event>
 5    1  0.1111501E+001  0.2753937E+03  0.7818608E-02  0.1098232E+00
          1   -1    0    0  501    0  0.00000000000E+00  0.00000000000E+00  0.24359928235E+03  0.24359928235E+03  0.00000000000E+00 0.  1.
         -1   -1    0    0    0  501 -0.00000000000E+00 -0.00000000000E+00 -0.77834477129E+02  0.77834477129E+02  0.00000000000E+00 0.  1.
         35    2    1    2    0    0  0.00000000000E+00  0.00000000000E+00  0.16576480522E+03  0.32143375948E+03  0.27539370197E+03 0.  0.
         25    1    3    3    0    0 -0.61002088619E+02  0.40038671663E+01  0.11636919474E+03  0.17798616591E+03  0.12000000000E+03 0.  0.
         25    1    3    3    0    0  0.61002088619E+02 -0.40038671663E+01  0.49395610479E+02  0.14344759358E+03  0.12000000000E+03 0.  0.
<mgrwt>
<rscale>  0 0.27539370E+03</rscale>
<asrwt>0</asrwt>
<pdfrwt beam="1">  1        1 0.37476812E-01 0.27539370E+03</pdfrwt>
<pdfrwt beam="2">  1       -1 0.11974535E-01 0.27539370E+03</pdfrwt>
<totfact> 0.52105022E+03</totfact>
</mgrwt>
</event>
<event>
 5    1  0.1111501E+001  0.2749393E+03  0.7818608E-02  0.1098486E+00
         -2   -1    0    0    0  501 -0.00000000000E+00  0.00000000000E+00  0.56825253485E+03  0.56825253485E+03  0.00000000000E+00 0. -1.
          2   -1    0    0  501    0  0.00000000000E+00 -0.00000000000E+00 -0.33256174595E+02  0.33256174595E+02  0.00000000000E+00 0. -1.
         35    2    1    2    0    0  0.00000000000E+00  0.00000000000E+00  0.53499636025E+03  0.60150870944E+03  0.27493930612E+03 0.  0.
         25    1    3    3    0    0 -0.45364493553E+02 -0.46186262769E+02  0.22917770341E+03  0.26667119808E+03  0.12000000000E+03 0.  0.
         25    1    3    3    0    0  0.45364493553E+02  0.46186262769E+02  0.30581865684E+03  0.33483751136E+03  0.12000000000E+03 0.  0.
<mgrwt>
<rscale>  0 0.27493931E+03</rscale>
<asrwt>0</asrwt>
<pdfrwt beam="1">  1        2 0.51163350E-02 0.27493931E+03</pdfrwt>
<pdfrwt beam="2">  1       -2 0.87423460E-01 0.27493931E+03</pdfrwt>
<totfact> 0.17778392E+03</totfact>
</mgrwt>
</event>
<event>
 5    1  0.1111501E+001  0.2763027E+03  0.7818608E-02  0.1097726E+00
         -2   -1    0    0    0  501 -0.00000000000E+00  0.00000000000E+00  0.92639275778E+02  0.92639275778E+02  0.00000000000E+00 0. -1.
          2   -1    0    0  501    0  0.00000000000E+00 -0.00000000000E+00 -0.20602264661E+03  0.20602264661E+03  0.00000000000E+00 0. -1.
         35    2    1    2    0    0  0.00000000000E+00  0.00000000000E+00 -0.11338337083E+03  0.29866192238E+03  0.27630265128E+03 0.  0.
         25    1    3    3    0    0 -0.40384687998E+02 -0.54040471534E+02 -0.44156090582E+02  0.14457197489E+03  0.12000000000E+03 0.  0.
         25    1    3    3    0    0  0.40384687998E+02  0.54040471534E+02 -0.69227280247E+02  0.15408994749E+03  0.12000000000E+03 0.  0.
<mgrwt>
<rscale>  0 0.27630265E+03</rscale>
<asrwt>0</asrwt>
<pdfrwt beam="1">  1        2 0.31695792E-01 0.27630265E+03</pdfrwt>
<pdfrwt beam="2">  1       -2 0.14252196E-01 0.27630265E+03</pdfrwt>
<totfact> 0.61048858E+03</totfact>
</mgrwt>
</event>
<event>
 5    1  0.1111501E+001  0.2754216E+03  0.7818608E-02  0.1098216E+00
          2   -1    0    0  501    0  0.00000000000E+00  0.00000000000E+00  0.13968397781E+03  0.13968397781E+03  0.00000000000E+00 0. -1.
         -2   -1    0    0    0  501 -0.00000000000E+00 -0.00000000000E+00 -0.13576552596E+03  0.13576552596E+03  0.00000000000E+00 0. -1.
         35    2    1    2    0    0  0.00000000000E+00  0.00000000000E+00  0.39184518464E+01  0.27544950377E+03  0.27542163107E+03 0.  0.
         25    1    3    3    0    0  0.16095894114E+02 -0.62394998669E+02  0.22260419328E+02  0.13801354982E+03  0.12000000000E+03 0.  0.
         25    1    3    3    0    0 -0.16095894114E+02  0.62394998669E+02 -0.18341967482E+02  0.13743595395E+03  0.12000000000E+03 0.  0.
<mgrwt>
<rscale>  0 0.27542163E+03</rscale>
<asrwt>0</asrwt>
<pdfrwt beam="1">  1        2 0.21489843E-01 0.27542163E+03</pdfrwt>
<pdfrwt beam="2">  1       -2 0.20887004E-01 0.27542163E+03</pdfrwt>
<totfact> 0.49503059E+03</totfact>
</mgrwt>
</event>
<event>
 5    1  0.1111501E+001  0.2762029E+03  0.7818608E-02  0.1097781E+00
         -2   -1    0    0    0  501 -0.00000000000E+00  0.00000000000E+00  0.26059354883E+02  0.26059354883E+02  0.00000000000E+00 0.  1.
          2   -1    0    0  501    0  0.00000000000E+00 -0.00000000000E+00 -0.73186822196E+03  0.73186822196E+03  0.00000000000E+00 0.  1.
         35    2    1    2    0    0  0.00000000000E+00  0.00000000000E+00 -0.70580886708E+03  0.75792757685E+03  0.27620292340E+03 0.  0.
         25    1    3    3    0    0  0.21046319361E+02 -0.22916657409E+02 -0.18589974925E+03  0.22344314158E+03  0.12000000000E+03 0.  0.
         25    1    3    3    0    0 -0.21046319361E+02  0.22916657409E+02 -0.51990911783E+03  0.53448443527E+03  0.12000000000E+03 0.  0.
<mgrwt>
<rscale>  0 0.27620292E+03</rscale>
<asrwt>0</asrwt>
<pdfrwt beam="1">  1        2 0.11259510E+00 0.27620292E+03</pdfrwt>
<pdfrwt beam="2">  1       -2 0.40091319E-02 0.27620292E+03</pdfrwt>
<totfact> 0.10834286E+04</totfact>
</mgrwt>
</event>
<event>
 5    1  0.1111501E+001  0.2745882E+03  0.7818608E-02  0.1098682E+00
          3   -1    0    0  501    0  0.00000000000E+00  0.00000000000E+00  0.24617886170E+02  0.24617886170E+02  0.00000000000E+00 0.  1.
         -3   -1    0    0    0  501 -0.00000000000E+00 -0.00000000000E+00 -0.76568990466E+03  0.76568990466E+03  0.00000000000E+00 0.  1.
         35    2    1    2    0    0  0.00000000000E+00  0.00000000000E+00 -0.74107201849E+03  0.79030779083E+03  0.27458817829E+03 0.  0.
         25    1    3    3    0    0  0.56211457716E+02  0.22235284148E+02 -0.45171487925E+03  0.47127536321E+03  0.12000000000E+03 0.  0.
         25    1    3    3    0    0 -0.56211457716E+02 -0.22235284148E+02 -0.28935713924E+03  0.31903242761E+03  0.12000000000E+03 0.  0.
<mgrwt>
<rscale>  0 0.27458818E+03</rscale>
<asrwt>0</asrwt>
<pdfrwt beam="1">  1        3 0.37873679E-02 0.27458818E+03</pdfrwt>
<pdfrwt beam="2">  1       -3 0.11779842E+00 0.27458818E+03</pdfrwt>
<totfact> 0.55435861E+02</totfact>
</mgrwt>
</event>
<event>
 5    1  0.1111501E+001  0.2749159E+03  0.7818608E-02  0.1098499E+00
         -2   -1    0    0    0  501 -0.00000000000E+00  0.00000000000E+00  0.20119042826E+02  0.20119042826E+02  0.00000000000E+00 0.  1.
          2   -1    0    0  501    0  0.00000000000E+00 -0.00000000000E+00 -0.93914419663E+03  0.93914419663E+03  0.00000000000E+00 0.  1.
         35    2    1    2    0    0  0.00000000000E+00  0.00000000000E+00 -0.91902515380E+03  0.95926323945E+03  0.27491585848E+03 0.  0.
         25    1    3    3    0    0  0.95874960672E+01  0.53434223492E+02 -0.32224758421E+03  0.34812446316E+03  0.12000000000E+03 0.  0.
         25    1    3    3    0    0 -0.95874960672E+01 -0.53434223492E+02 -0.59677756959E+03  0.61113877630E+03  0.12000000000E+03 0.  0.
<mgrwt>
<rscale>  0 0.27491586E+03</rscale>
<asrwt>0</asrwt>
<pdfrwt beam="1">  1        2 0.14448366E+00 0.27491586E+03</pdfrwt>
<pdfrwt beam="2">  1       -2 0.30952386E-02 0.27491586E+03</pdfrwt>
<totfact> 0.11555341E+04</totfact>
</mgrwt>
</event>
<event>
 5    1  0.1111501E+001  0.2753641E+03  0.7818608E-02  0.1098248E+00
          1   -1    0    0  501    0  0.00000000000E+00  0.00000000000E+00  0.10615888932E+03  0.10615888932E+03  0.00000000000E+00 0. -1.
         -1   -1    0    0    0  501 -0.00000000000E+00 -0.00000000000E+00 -0.17856574748E+03  0.17856574748E+03  0.00000000000E+00 0. -1.
         35    2    1    2    0    0  0.00000000000E+00  0.00000000000E+00 -0.72406858160E+02  0.28472463681E+03  0.27536406029E+03 0.  0.
         25    1    3    3    0    0 -0.20476972553E+02 -0.63914279669E+02 -0.43659652896E+02  0.14425847234E+03  0.12000000000E+03 0.  0.
         25    1    3    3    0    0  0.20476972553E+02  0.63914279669E+02 -0.28747205264E+02  0.14046616447E+03  0.12000000000E+03 0.  0.
<mgrwt>
<rscale>  0 0.27536406E+03</rscale>
<asrwt>0</asrwt>
<pdfrwt beam="1">  1        1 0.16332137E-01 0.27536406E+03</pdfrwt>
<pdfrwt beam="2">  1       -1 0.27471653E-01 0.27536406E+03</pdfrwt>
<totfact> 0.39322090E+03</totfact>
</mgrwt>
</event>
<event>
 5    1  0.1111501E+001  0.2756615E+03  0.7818608E-02  0.1098082E+00
          1   -1    0    0  501    0  0.00000000000E+00  0.00000000000E+00  0.82248076824E+03  0.82248076824E+03  0.00000000000E+00 0. -1.
         -1   -1    0    0    0  501 -0.00000000000E+00 -0.00000000000E+00 -0.23097581779E+02  0.23097581779E+02  0.00000000000E+00 0. -1.
         35    2    1    2    0    0  0.00000000000E+00  0.00000000000E+00  0.79938318646E+03  0.84557835002E+03  0.27566150842E+03 0.  0.
         25    1    3    3    0    0  0.66985937324E+02 -0.71933846089E+00  0.43181698957E+03  0.45315951466E+03  0.12000000000E+03 0.  0.
         25    1    3    3    0    0 -0.66985937324E+02  0.71933846089E+00  0.36756619689E+03  0.39241883536E+03  0.12000000000E+03 0.  0.
<mgrwt>
<rscale>  0 0.27566151E+03</rscale>
<asrwt>0</asrwt>
<pdfrwt beam="1">  1        1 0.12653548E+00 0.27566151E+03</pdfrwt>
<pdfrwt beam="2">  1       -1 0.35534748E-02 0.27566151E+03</pdfrwt>
<totfact> 0.64629716E+03</totfact>
</mgrwt>
</event>
<event>
 5    1  0.1111501E+001  0.2749417E+03  0.7818608E-02  0.1098484E+00
         -2   -1    0    0    0  501 -0.00000000000E+00  0.00000000000E+00  0.97424400947E+02  0.97424400947E+02  0.00000000000E+00 0. -1.
          2   -1    0    0  501    0  0.00000000000E+00 -0.00000000000E+00 -0.19397840303E+03  0.19397840303E+03  0.00000000000E+00 0. -1.
         35    2    1    2    0    0  0.00000000000E+00  0.00000000000E+00 -0.96554002082E+02  0.29140280398E+03  0.27494166444E+03 0.  0.
         25    1    3    3    0    0  0.27635281945E+02 -0.46002979740E+02 -0.90912911532E+02  0.15982847192E+03  0.12000000000E+03 0.  0.
         25    1    3    3    0    0 -0.27635281945E+02  0.46002979740E+02 -0.56410905495E+01  0.13157433206E+03  0.12000000000E+03 0.  0.
<mgrwt>
<rscale>  0 0.27494166E+03</rscale>
<asrwt>0</asrwt>
<pdfrwt beam="1">  1        2 0.29842831E-01 0.27494166E+03</pdfrwt>
<pdfrwt beam="2">  1       -2 0.14988370E-01 0.27494166E+03</pdfrwt>
<totfact> 0.60009590E+03</totfact>
</mgrwt>
</event>
<event>
 5    1  0.1111501E+001  0.2747326E+03  0.7818608E-02  0.1098601E+00
         -1   -1    0    0    0  501 -0.00000000000E+00  0.00000000000E+00  0.15471511700E+03  0.15471511700E+03  0.00000000000E+00 0.  1.
          1   -1    0    0  501    0  0.00000000000E+00 -0.00000000000E+00 -0.12196288770E+03  0.12196288770E+03  0.00000000000E+00 0.  1.
         35    2    1    2    0    0  0.00000000000E+00  0.00000000000E+00  0.32752229302E+02  0.27667800469E+03  0.27473261502E+03 0.  0.
         25    1    3    3    0    0 -0.27630359549E+02 -0.55159736527E+02  0.42316401707E+02  0.14140972794E+03  0.12000000000E+03 0.  0.
         25    1    3    3    0    0  0.27630359549E+02  0.55159736527E+02 -0.95641724051E+01  0.13526827676E+03  0.12000000000E+03 0.  0.
<mgrwt>
<rscale>  0 0.27473262E+03</rscale>
<asrwt>0</asrwt>
<pdfrwt beam="1">  1        1 0.18763521E-01 0.27473262E+03</pdfrwt>
<pdfrwt beam="2">  1       -1 0.23802326E-01 0.27473262E+03</pdfrwt>
<totfact> 0.41698709E+03</totfact>
</mgrwt>
</event>
<event>
 5    1  0.1111501E+001  0.2724322E+03  0.7818608E-02  0.1099896E+00
          3   -1    0    0  501    0  0.00000000000E+00  0.00000000000E+00  0.69248209034E+02  0.69248209034E+02  0.00000000000E+00 0.  1.
         -3   -1    0    0    0  501 -0.00000000000E+00 -0.00000000000E+00 -0.26794661378E+03  0.26794661378E+03  0.00000000000E+00 0.  1.
         35    2    1    2    0    0  0.00000000000E+00  0.00000000000E+00 -0.19869840475E+03  0.33719482281E+03  0.27243217961E+03 0.  0.
         25    1    3    3    0    0  0.42701854452E+02 -0.30730924405E+02 -0.53253718285E+02  0.14143477861E+03  0.12000000000E+03 0.  0.
         25    1    3    3    0    0 -0.42701854452E+02  0.30730924405E+02 -0.14544468646E+03  0.19576004421E+03  0.12000000000E+03 0.  0.
<mgrwt>
<rscale>  0 0.27243218E+03</rscale>
<asrwt>0</asrwt>
<pdfrwt beam="1">  1        3 0.10653570E-01 0.27243218E+03</pdfrwt>
<pdfrwt beam="2">  1       -3 0.41222557E-01 0.27243218E+03</pdfrwt>
<totfact> 0.98748732E+02</totfact>
</mgrwt>
</event>
<event>
 5    1  0.1111501E+001  0.2757838E+03  0.7818608E-02  0.1098014E+00
          2   -1    0    0  501    0  0.00000000000E+00  0.00000000000E+00  0.52651545384E+03  0.52651545384E+03  0.00000000000E+00 0. -1.
         -2   -1    0    0    0  501 -0.00000000000E+00 -0.00000000000E+00 -0.36113240453E+02  0.36113240453E+02  0.00000000000E+00 0. -1.
         35    2    1    2    0    0  0.00000000000E+00  0.00000000000E+00  0.49040221339E+03  0.56262869430E+03  0.27578382249E+03 0.  0.
         25    1    3    3    0    0  0.48389640575E+01 -0.42230034441E+02  0.35329578049E+03  0.37553255504E+03  0.12000000000E+03 0.  0.
         25    1    3    3    0    0 -0.48389640575E+01  0.42230034441E+02  0.13710643290E+03  0.18709613925E+03  0.12000000000E+03 0.  0.
<mgrwt>
<rscale>  0 0.27578382E+03</rscale>
<asrwt>0</asrwt>
<pdfrwt beam="1">  1        2 0.81002372E-01 0.27578382E+03</pdfrwt>
<pdfrwt beam="2">  1       -2 0.55558835E-02 0.27578382E+03</pdfrwt>
<totfact> 0.97273113E+03</totfact>
</mgrwt>
</event>
<event>
 5    1  0.1111501E+001  0.2756743E+03  0.7818608E-02  0.1098075E+00
         -4   -1    0    0    0  501 -0.00000000000E+00  0.00000000000E+00  0.11714553374E+03  0.11714553374E+03  0.00000000000E+00 0.  1.
          4   -1    0    0  501    0  0.00000000000E+00 -0.00000000000E+00 -0.16218350344E+03  0.16218350344E+03  0.00000000000E+00 0.  1.
         35    2    1    2    0    0  0.00000000000E+00  0.00000000000E+00 -0.45037969696E+02  0.27932903718E+03  0.27567425034E+03 0.  0.
         25    1    3    3    0    0  0.47165807017E+02  0.41574813046E+01  0.26675430326E+02  0.13173259500E+03  0.12000000000E+03 0.  0.
         25    1    3    3    0    0 -0.47165807017E+02 -0.41574813046E+01 -0.71713400022E+02  0.14759644218E+03  0.12000000000E+03 0.  0.
<mgrwt>
<rscale>  0 0.27567425E+03</rscale>
<asrwt>0</asrwt>
<pdfrwt beam="1">  1        4 0.24951308E-01 0.27567425E+03</pdfrwt>
<pdfrwt beam="2">  1       -4 0.18022390E-01 0.27567425E+03</pdfrwt>
<totfact> 0.76771778E+02</totfact>
</mgrwt>
</event>
<event>
 5    1  0.1111501E+001  0.2683225E+03  0.7818608E-02  0.1102244E+00
          2   -1    0    0  501    0  0.00000000000E+00  0.00000000000E+00  0.16690840378E+04  0.16690840378E+04  0.00000000000E+00 0.  1.
         -2   -1    0    0    0  501 -0.00000000000E+00 -0.00000000000E+00 -0.10783901537E+02  0.10783901537E+02  0.00000000000E+00 0.  1.
         35    2    1    2    0    0  0.00000000000E+00  0.00000000000E+00  0.16583001362E+04  0.16798679393E+04  0.26832247704E+03 0.  0.
         25    1    3    3    0    0  0.12127583379E+02  0.58318220317E+02  0.87392334898E+03  0.88413240693E+03  0.12000000000E+03 0.  0.
         25    1    3    3    0    0 -0.12127583379E+02 -0.58318220317E+02  0.78437678725E+03  0.79573553237E+03  0.12000000000E+03 0.  0.
<mgrwt>
<rscale>  0 0.26832248E+03</rscale>
<asrwt>0</asrwt>
<pdfrwt beam="1">  1        2 0.25678195E+00 0.26832248E+03</pdfrwt>
<pdfrwt beam="2">  1       -2 0.16590631E-02 0.26832248E+03</pdfrwt>
<totfact> 0.11282072E+04</totfact>
</mgrwt>
</event>
<event>
 5    1  0.1111501E+001  0.2786858E+03  0.7818608E-02  0.1096409E+00
         -1   -1    0    0    0  501 -0.00000000000E+00  0.00000000000E+00  0.25237867498E+02  0.25237867498E+02  0.00000000000E+00 0. -1.
          1   -1    0    0  501    0  0.00000000000E+00 -0.00000000000E+00 -0.76933784087E+03  0.76933784087E+03  0.00000000000E+00 0. -1.
         35    2    1    2    0    0  0.00000000000E+00  0.00000000000E+00 -0.74409997338E+03  0.79457570837E+03  0.27868581944E+03 0.  0.
         25    1    3    3    0    0 -0.31363620538E+02  0.43657302794E+02 -0.50353756600E+03  0.52042263320E+03  0.12000000000E+03 0.  0.
         25    1    3    3    0    0  0.31363620538E+02 -0.43657302794E+02 -0.24056240738E+03  0.27415307517E+03  0.12000000000E+03 0.  0.
<mgrwt>
<rscale>  0 0.27868582E+03</rscale>
<asrwt>0</asrwt>
<pdfrwt beam="1">  1        1 0.11835966E+00 0.27868582E+03</pdfrwt>
<pdfrwt beam="2">  1       -1 0.38827490E-02 0.27868582E+03</pdfrwt>
<totfact> 0.62807299E+03</totfact>
</mgrwt>
</event>
<event>
 5    1  0.1111501E+001  0.2742303E+03  0.7818608E-02  0.1098883E+00
          2   -1    0    0  501    0  0.00000000000E+00  0.00000000000E+00  0.12495852471E+04  0.12495852471E+04  0.00000000000E+00 0. -1.
         -2   -1    0    0    0  501 -0.00000000000E+00 -0.00000000000E+00 -0.15045445709E+02  0.15045445709E+02  0.00000000000E+00 0. -1.
         35    2    1    2    0    0  0.00000000000E+00  0.00000000000E+00  0.12345398014E+04  0.12646306929E+04  0.27423031922E+03 0.  0.
         25    1    3    3    0    0 -0.37078282606E+02  0.34351101272E+01  0.87044300419E+03  0.87946439528E+03  0.12000000000E+03 0.  0.
         25    1    3    3    0    0  0.37078282606E+02 -0.34351101272E+01  0.36409679725E+03  0.38516629758E+03  0.12000000000E+03 0.  0.
<mgrwt>
<rscale>  0 0.27423032E+03</rscale>
<asrwt>0</asrwt>
<pdfrwt beam="1">  1        2 0.19224380E+00 0.27423032E+03</pdfrwt>
<pdfrwt beam="2">  1       -2 0.23146849E-02 0.27423032E+03</pdfrwt>
<totfact> 0.11652185E+04</totfact>
</mgrwt>
</event>
<event>
 5    1  0.1111501E+001  0.2800196E+03  0.7818608E-02  0.1095678E+00
          2   -1    0    0  501    0  0.00000000000E+00  0.00000000000E+00  0.23465738633E+03  0.23465738633E+03  0.00000000000E+00 0. -1.
         -2   -1    0    0    0  501 -0.00000000000E+00 -0.00000000000E+00 -0.83537742858E+02  0.83537742858E+02  0.00000000000E+00 0. -1.
         35    2    1    2    0    0  0.00000000000E+00  0.00000000000E+00  0.15111964347E+03  0.31819512919E+03  0.28001963074E+03 0.  0.
         25    1    3    3    0    0  0.29656104827E+02 -0.55621599099E+02  0.35715210779E+02  0.14017425984E+03  0.12000000000E+03 0.  0.
         25    1    3    3    0    0 -0.29656104827E+02  0.55621599099E+02  0.11540443270E+03  0.17802086935E+03  0.12000000000E+03 0.  0.
<mgrwt>
<rscale>  0 0.28001963E+03</rscale>
<asrwt>0</asrwt>
<pdfrwt beam="1">  1        2 0.36101136E-01 0.28001963E+03</pdfrwt>
<pdfrwt beam="2">  1       -2 0.12851960E-01 0.28001963E+03</pdfrwt>
<totfact> 0.62775139E+03</totfact>
</mgrwt>
</event>
<event>
 5    1  0.1111501E+001  0.2750674E+03  0.7818608E-02  0.1098414E+00
          2   -1    0    0  501    0  0.00000000000E+00  0.00000000000E+00  0.12068849429E+04  0.12068849429E+04  0.00000000000E+00 0. -1.
         -2   -1    0    0    0  501 -0.00000000000E+00 -0.00000000000E+00 -0.15673014582E+02  0.15673014582E+02  0.00000000000E+00 0. -1.
         35    2    1    2    0    0  0.00000000000E+00  0.00000000000E+00  0.11912119283E+04  0.12225579575E+04  0.27506744852E+03 0.  0.
         25    1    3    3    0    0  0.10335866382E+02 -0.10291640607E+02  0.88715035653E+03  0.89534825800E+03  0.12000000000E+03 0.  0.
         25    1    3    3    0    0 -0.10335866382E+02  0.10291640607E+02  0.30406157177E+03  0.32720969947E+03  0.12000000000E+03 0.  0.
<mgrwt>
<rscale>  0 0.27506745E+03</rscale>
<asrwt>0</asrwt>
<pdfrwt beam="1">  1        2 0.18567453E+00 0.27506745E+03</pdfrwt>
<pdfrwt beam="2">  1       -2 0.24112340E-02 0.27506745E+03</pdfrwt>
<totfact> 0.11595624E+04</totfact>
</mgrwt>
</event>
<event>
 5    1  0.1111501E+001  0.2751563E+03  0.7818608E-02  0.1098364E+00
          1   -1    0    0  501    0  0.00000000000E+00  0.00000000000E+00  0.49133878279E+04  0.49133878279E+04  0.00000000000E+00 0.  1.
         -1   -1    0    0    0  501 -0.00000000000E+00 -0.00000000000E+00 -0.38522811502E+01  0.38522811502E+01  0.00000000000E+00 0.  1.
         35    2    1    2    0    0  0.00000000000E+00  0.00000000000E+00  0.49095355468E+04  0.49172401091E+04  0.27515632875E+03 0.  0.
         25    1    3    3    0    0  0.16356579072E+02  0.37768997000E+01  0.36192403855E+04  0.36212681164E+04  0.12000000000E+03 0.  0.
         25    1    3    3    0    0 -0.16356579072E+02 -0.37768997000E+01  0.12902951613E+04  0.12959719927E+04  0.12000000000E+03 0.  0.
<mgrwt>
<rscale>  0 0.27515633E+03</rscale>
<asrwt>0</asrwt>
<pdfrwt beam="1">  1        1 0.75590081E+00 0.27515633E+03</pdfrwt>
<pdfrwt beam="2">  1       -1 0.59266257E-03 0.27515633E+03</pdfrwt>
<totfact> 0.63909986E+01</totfact>
</mgrwt>
</event>
<event>
 5    1  0.1111501E+001  0.2748454E+03  0.7818608E-02  0.1098538E+00
         -2   -1    0    0    0  501 -0.00000000000E+00  0.00000000000E+00  0.10922557567E+03  0.10922557567E+03  0.00000000000E+00 0. -1.
          2   -1    0    0  501    0  0.00000000000E+00 -0.00000000000E+00 -0.17289909794E+03  0.17289909794E+03  0.00000000000E+00 0. -1.
         35    2    1    2    0    0  0.00000000000E+00  0.00000000000E+00 -0.63673522270E+02  0.28212467362E+03  0.27484543661E+03 0.  0.
         25    1    3    3    0    0 -0.12351832427E+02 -0.65815850850E+02 -0.30972122614E+02  0.14086719408E+03  0.12000000000E+03 0.  0.
         25    1    3    3    0    0  0.12351832427E+02  0.65815850850E+02 -0.32701399656E+02  0.14125747954E+03  0.12000000000E+03 0.  0.
<mgrwt>
<rscale>  0 0.27484544E+03</rscale>
<asrwt>0</asrwt>
<pdfrwt beam="1">  1        2 0.26599861E-01 0.27484544E+03</pdfrwt>
<pdfrwt beam="2">  1       -2 0.16803935E-01 0.27484544E+03</pdfrwt>
<totfact> 0.56338720E+03</totfact>
</mgrwt>
</event>
<event>
 5    1  0.1111501E+001  0.2748232E+03  0.7818608E-02  0.1098550E+00
          2   -1    0    0  501    0  0.00000000000E+00  0.00000000000E+00  0.32012103336E+02  0.32012103336E+02  0.00000000000E+00 0.  1.
         -2   -1    0    0    0  501 -0.00000000000E+00 -0.00000000000E+00 -0.58983798045E+03  0.58983798045E+03  0.00000000000E+00 0.  1.
         35    2    1    2    0    0  0.00000000000E+00  0.00000000000E+00 -0.55782587712E+03  0.62185008379E+03  0.27482324779E+03 0.  0.
         25    1    3    3    0    0  0.24220765920E+02  0.43308534385E+02 -0.38060182296E+03  0.40214428044E+03  0.12000000000E+03 0.  0.
         25    1    3    3    0    0 -0.24220765920E+02 -0.43308534385E+02 -0.17722405416E+03  0.21970580335E+03  0.12000000000E+03 0.  0.
<mgrwt>
<rscale>  0 0.27482325E+03</rscale>
<asrwt>0</asrwt>
<pdfrwt beam="1">  1        2 0.49249388E-02 0.27482325E+03</pdfrwt>
<pdfrwt beam="2">  1       -2 0.90744307E-01 0.27482325E+03</pdfrwt>
<totfact> 0.17187526E+03</totfact>
</mgrwt>
</event>
<event>
 5    1  0.1111501E+001  0.2820336E+03  0.7818608E-02  0.1094583E+00
          4   -1    0    0  501    0  0.00000000000E+00  0.00000000000E+00  0.85884917260E+02  0.85884917260E+02  0.00000000000E+00 0.  1.
         -4   -1    0    0    0  501 -0.00000000000E+00 -0.00000000000E+00 -0.23153928350E+03  0.23153928350E+03  0.00000000000E+00 0.  1.
         35    2    1    2    0    0  0.00000000000E+00  0.00000000000E+00 -0.14565436624E+03  0.31742420076E+03  0.28203355974E+03 0.  0.
         25    1    3    3    0    0 -0.22120708631E+01  0.21902856364E+02  0.67653233558E+01  0.12219000767E+03  0.12000000000E+03 0.  0.
         25    1    3    3    0    0  0.22120708631E+01 -0.21902856364E+02 -0.15241968959E+03  0.19523419308E+03  0.12000000000E+03 0.  0.
<mgrwt>
<rscale>  0 0.28203356E+03</rscale>
<asrwt>0</asrwt>
<pdfrwt beam="1">  1        4 0.13213064E-01 0.28203356E+03</pdfrwt>
<pdfrwt beam="2">  1       -4 0.35621428E-01 0.28203356E+03</pdfrwt>
<totfact> 0.67603545E+02</totfact>
</mgrwt>
</event>
<event>
 5    1  0.1111501E+001  0.2746860E+03  0.7818608E-02  0.1098627E+00
         -1   -1    0    0    0  501 -0.00000000000E+00  0.00000000000E+00  0.36757693061E+02  0.36757693061E+02  0.00000000000E+00 0.  1.
          1   -1    0    0  501    0  0.00000000000E+00 -0.00000000000E+00 -0.51317432851E+03  0.51317432851E+03  0.00000000000E+00 0.  1.
         35    2    1    2    0    0  0.00000000000E+00  0.00000000000E+00 -0.47641663545E+03  0.54993202157E+03  0.27468603499E+03 0.  0.
         25    1    3    3    0    0 -0.63790766862E+02 -0.12455012740E+02 -0.26914063400E+03  0.30176326839E+03  0.12000000000E+03 0.  0.
         25    1    3    3    0    0  0.63790766862E+02  0.12455012740E+02 -0.20727600145E+03  0.24816875318E+03  0.12000000000E+03 0.  0.
<mgrwt>
<rscale>  0 0.27468603E+03</rscale>
<asrwt>0</asrwt>
<pdfrwt beam="1">  1        1 0.78949896E-01 0.27468603E+03</pdfrwt>
<pdfrwt beam="2">  1       -1 0.56550297E-02 0.27468603E+03</pdfrwt>
<totfact> 0.63429644E+03</totfact>
</mgrwt>
</event>
<event>
 5    1  0.1111501E+001  0.2748001E+03  0.7818608E-02  0.1098563E+00
          1   -1    0    0  501    0  0.00000000000E+00  0.00000000000E+00  0.10359692932E+03  0.10359692932E+03  0.00000000000E+00 0.  1.
         -1   -1    0    0    0  501 -0.00000000000E+00 -0.00000000000E+00 -0.18223295176E+03  0.18223295176E+03  0.00000000000E+00 0.  1.
         35    2    1    2    0    0  0.00000000000E+00  0.00000000000E+00 -0.78636022436E+02  0.28582988108E+03  0.27480010351E+03 0.  0.
         25    1    3    3    0    0 -0.10311569627E+02 -0.49841912719E+02 -0.84515897464E+02  0.15534954669E+03  0.12000000000E+03 0.  0.
         25    1    3    3    0    0  0.10311569627E+02  0.49841912719E+02  0.58798750286E+01  0.13048033439E+03  0.12000000000E+03 0.  0.
<mgrwt>
<rscale>  0 0.27480010E+03</rscale>
<asrwt>0</asrwt>
<pdfrwt beam="1">  1        1 0.15937989E-01 0.27480010E+03</pdfrwt>
<pdfrwt beam="2">  1       -1 0.28035839E-01 0.27480010E+03</pdfrwt>
<totfact> 0.39228014E+03</totfact>
</mgrwt>
</event>
<event>
 5    1  0.1111501E+001  0.2744804E+03  0.7818608E-02  0.1098742E+00
          4   -1    0    0  501    0  0.00000000000E+00  0.00000000000E+00  0.20312081997E+03  0.20312081997E+03  0.00000000000E+00 0.  1.
         -4   -1    0    0    0  501 -0.00000000000E+00 -0.00000000000E+00 -0.92727405255E+02  0.92727405255E+02  0.00000000000E+00 0.  1.
         35    2    1    2    0    0  0.00000000000E+00  0.00000000000E+00  0.11039341471E+03  0.29584822522E+03  0.27448035696E+03 0.  0.
         25    1    3    3    0    0 -0.47862676369E+01 -0.58651289292E+02  0.21592986600E+02  0.13538515119E+03  0.12000000000E+03 0.  0.
         25    1    3    3    0    0  0.47862676369E+01  0.58651289292E+02  0.88800428112E+02  0.16046307403E+03  0.12000000000E+03 0.  0.
<mgrwt>
<rscale>  0 0.27448036E+03</rscale>
<asrwt>0</asrwt>
<pdfrwt beam="1">  1        4 0.31249357E-01 0.27448036E+03</pdfrwt>
<pdfrwt beam="2">  1       -4 0.14265755E-01 0.27448036E+03</pdfrwt>
<totfact> 0.75901552E+02</totfact>
</mgrwt>
</event>
<event>
 5    1  0.1111501E+001  0.2761964E+03  0.7818608E-02  0.1097785E+00
          2   -1    0    0  501    0  0.00000000000E+00  0.00000000000E+00  0.25317804560E+04  0.25317804560E+04  0.00000000000E+00 0.  1.
         -2   -1    0    0    0  501 -0.00000000000E+00 -0.00000000000E+00 -0.75326858633E+01  0.75326858633E+01  0.00000000000E+00 0.  1.
         35    2    1    2    0    0  0.00000000000E+00  0.00000000000E+00  0.25242477701E+04  0.25393131419E+04  0.27619635660E+03 0.  0.
         25    1    3    3    0    0  0.19014096363E+02  0.52712514629E+02  0.16218570602E+04  0.16272555020E+04  0.12000000000E+03 0.  0.
         25    1    3    3    0    0 -0.19014096363E+02 -0.52712514629E+02  0.90239070997E+03  0.91205763990E+03  0.12000000000E+03 0.  0.
<mgrwt>
<rscale>  0 0.27619636E+03</rscale>
<asrwt>0</asrwt>
<pdfrwt beam="1">  1        2 0.38950401E+00 0.27619636E+03</pdfrwt>
<pdfrwt beam="2">  1       -2 0.11588768E-02 0.27619636E+03</pdfrwt>
<totfact> 0.66271010E+03</totfact>
</mgrwt>
</event>
<event>
 5    1  0.1111501E+001  0.2767810E+03  0.7818608E-02  0.1097460E+00
          2   -1    0    0  501    0  0.00000000000E+00  0.00000000000E+00  0.12050726834E+04  0.12050726834E+04  0.00000000000E+00 0.  1.
         -2   -1    0    0    0  501 -0.00000000000E+00 -0.00000000000E+00 -0.15892763519E+02  0.15892763519E+02  0.00000000000E+00 0.  1.
         35    2    1    2    0    0  0.00000000000E+00  0.00000000000E+00  0.11891799199E+04  0.12209654469E+04  0.27678103390E+03 0.  0.
         25    1    3    3    0    0  0.38683707990E+02 -0.33968740046E+02  0.79681980066E+03  0.80744789262E+03  0.12000000000E+03 0.  0.
         25    1    3    3    0    0 -0.38683707990E+02  0.33968740046E+02  0.39236011924E+03  0.41351755433E+03  0.12000000000E+03 0.  0.
<mgrwt>
<rscale>  0 0.27678103E+03</rscale>
<asrwt>0</asrwt>
<pdfrwt beam="1">  1        2 0.18539573E+00 0.27678103E+03</pdfrwt>
<pdfrwt beam="2">  1       -2 0.24450415E-02 0.27678103E+03</pdfrwt>
<totfact> 0.11388156E+04</totfact>
</mgrwt>
</event>
<event>
 5    1  0.1111501E+001  0.2749062E+03  0.7818608E-02  0.1098504E+00
         -1   -1    0    0    0  501 -0.00000000000E+00  0.00000000000E+00  0.87416372115E+02  0.87416372115E+02  0.00000000000E+00 0. -1.
          1   -1    0    0  501    0  0.00000000000E+00 -0.00000000000E+00 -0.21613062702E+03  0.21613062702E+03  0.00000000000E+00 0. -1.
         35    2    1    2    0    0  0.00000000000E+00  0.00000000000E+00 -0.12871425490E+03  0.30354699913E+03  0.27490620449E+03 0.  0.
         25    1    3    3    0    0 -0.16766248585E+01  0.60998809721E+02 -0.33723447451E+02  0.13878377703E+03  0.12000000000E+03 0.  0.
         25    1    3    3    0    0  0.16766248585E+01 -0.60998809721E+02 -0.94990807453E+02  0.16476322211E+03  0.12000000000E+03 0.  0.
<mgrwt>
<rscale>  0 0.27490620E+03</rscale>
<asrwt>0</asrwt>
<pdfrwt beam="1">  1        1 0.33250866E-01 0.27490620E+03</pdfrwt>
<pdfrwt beam="2">  1       -1 0.13448673E-01 0.27490620E+03</pdfrwt>
<totfact> 0.50476806E+03</totfact>
</mgrwt>
</event>
<event>
 5    1  0.1111501E+001  0.2750769E+03  0.7818608E-02  0.1098409E+00
         -1   -1    0    0    0  501 -0.00000000000E+00  0.00000000000E+00  0.12381663575E+03  0.12381663575E+03  0.00000000000E+00 0. -1.
          1   -1    0    0  501    0  0.00000000000E+00 -0.00000000000E+00 -0.15278101036E+03  0.15278101036E+03  0.00000000000E+00 0. -1.
         35    2    1    2    0    0  0.00000000000E+00  0.00000000000E+00 -0.28964374604E+02  0.27659764611E+03  0.27507693985E+03 0.  0.
         25    1    3    3    0    0 -0.18279095654E+02 -0.53313851839E+02  0.22330841757E+02  0.13444388655E+03  0.12000000000E+03 0.  0.
         25    1    3    3    0    0  0.18279095654E+02  0.53313851839E+02 -0.51295216362E+02  0.14215375956E+03  0.12000000000E+03 0.  0.
<mgrwt>
<rscale>  0 0.27507694E+03</rscale>
<asrwt>0</asrwt>
<pdfrwt beam="1">  1        1 0.23504771E-01 0.27507694E+03</pdfrwt>
<pdfrwt beam="2">  1       -1 0.19048713E-01 0.27507694E+03</pdfrwt>
<totfact> 0.44945987E+03</totfact>
</mgrwt>
</event>
<event>
 5    1  0.1111501E+001  0.2755101E+03  0.7818608E-02  0.1098167E+00
          2   -1    0    0  501    0  0.00000000000E+00  0.00000000000E+00  0.30829521730E+03  0.30829521730E+03  0.00000000000E+00 0. -1.
         -2   -1    0    0    0  501 -0.00000000000E+00 -0.00000000000E+00 -0.61552883178E+02  0.61552883178E+02  0.00000000000E+00 0. -1.
         35    2    1    2    0    0  0.00000000000E+00  0.00000000000E+00  0.24674233412E+03  0.36984810048E+03  0.27551014134E+03 0.  0.
         25    1    3    3    0    0  0.96441148428E+01 -0.64583143721E+02  0.14710066993E+03  0.20075507091E+03  0.12000000000E+03 0.  0.
         25    1    3    3    0    0 -0.96441148428E+01  0.64583143721E+02  0.99641664193E+02  0.16909302956E+03  0.12000000000E+03 0.  0.
<mgrwt>
<rscale>  0 0.27551014E+03</rscale>
<asrwt>0</asrwt>
<pdfrwt beam="1">  1        2 0.47430032E-01 0.27551014E+03</pdfrwt>
<pdfrwt beam="2">  1       -2 0.94696745E-02 0.27551014E+03</pdfrwt>
<totfact> 0.76274861E+03</totfact>
</mgrwt>
</event>
<event>
 5    1  0.1111501E+001  0.2762207E+03  0.7818608E-02  0.1097771E+00
         -2   -1    0    0    0  501 -0.00000000000E+00  0.00000000000E+00  0.18237926817E+04  0.18237926817E+04  0.00000000000E+00 0. -1.
          2   -1    0    0  501    0  0.00000000000E+00 -0.00000000000E+00 -0.10458683330E+02  0.10458683330E+02  0.00000000000E+00 0. -1.
         35    2    1    2    0    0  0.00000000000E+00  0.00000000000E+00  0.18133339984E+04  0.18342513650E+04  0.27622070971E+03 0.  0.
         25    1    3    3    0    0 -0.42827197024E+02 -0.27733514678E+02  0.12088769466E+04  0.12158892995E+04  0.12000000000E+03 0.  0.
         25    1    3    3    0    0  0.42827197024E+02  0.27733514678E+02  0.60445705178E+03  0.61836206553E+03  0.12000000000E+03 0.  0.
<mgrwt>
<rscale>  0 0.27622071E+03</rscale>
<asrwt>0</asrwt>
<pdfrwt beam="1">  1        2 0.16090297E-02 0.27622071E+03</pdfrwt>
<pdfrwt beam="2">  1       -2 0.28058324E+00 0.27622071E+03</pdfrwt>
<totfact> 0.35212717E+02</totfact>
</mgrwt>
</event>
<event>
 5    1  0.1111501E+001  0.2784705E+03  0.7818608E-02  0.1096527E+00
         -3   -1    0    0    0  501 -0.00000000000E+00  0.00000000000E+00  0.15908786507E+03  0.15908786507E+03  0.00000000000E+00 0. -1.
          3   -1    0    0  501    0  0.00000000000E+00 -0.00000000000E+00 -0.12186007713E+03  0.12186007713E+03  0.00000000000E+00 0. -1.
         35    2    1    2    0    0  0.00000000000E+00  0.00000000000E+00  0.37227787943E+02  0.28094794221E+03  0.27847053351E+03 0.  0.
         25    1    3    3    0    0  0.80938106543E-01  0.19955364399E+02  0.86953032693E+02  0.14952943862E+03  0.12000000000E+03 0.  0.
         25    1    3    3    0    0 -0.80938106543E-01 -0.19955364399E+02 -0.49725244750E+02  0.13141850359E+03  0.12000000000E+03 0.  0.
<mgrwt>
<rscale>  0 0.27847053E+03</rscale>
<asrwt>0</asrwt>
<pdfrwt beam="1">  1        3 0.18747704E-01 0.27847053E+03</pdfrwt>
<pdfrwt beam="2">  1       -3 0.24475056E-01 0.27847053E+03</pdfrwt>
<totfact> 0.10005580E+03</totfact>
</mgrwt>
</event>
<event>
 5    1  0.1111501E+001  0.2748705E+03  0.7818608E-02  0.1098524E+00
          2   -1    0    0  501    0  0.00000000000E+00  0.00000000000E+00  0.13357239981E+04  0.13357239981E+04  0.00000000000E+00 0. -1.
         -2   -1    0    0    0  501 -0.00000000000E+00 -0.00000000000E+00 -0.14140977678E+02  0.14140977678E+02  0.00000000000E+00 0. -1.
         35    2    1    2    0    0  0.00000000000E+00  0.00000000000E+00  0.13215830204E+04  0.13498649758E+04  0.27487046579E+03 0.  0.
         25    1    3    3    0    0  0.50946490703E+02 -0.22902883189E+02  0.47913045038E+03  0.49707753465E+03  0.12000000000E+03 0.  0.
         25    1    3    3    0    0 -0.50946490703E+02  0.22902883189E+02  0.84245257002E+03  0.85278744111E+03  0.12000000000E+03 0.  0.
<mgrwt>
<rscale>  0 0.27487047E+03</rscale>
<asrwt>0</asrwt>
<pdfrwt beam="1">  1        2 0.20549590E+00 0.27487047E+03</pdfrwt>
<pdfrwt beam="2">  1       -2 0.21755361E-02 0.27487047E+03</pdfrwt>
<totfact> 0.11438572E+04</totfact>
</mgrwt>
</event>
<event>
 5    1  0.1111501E+001  0.2751780E+03  0.7818608E-02  0.1098352E+00
          1   -1    0    0  501    0  0.00000000000E+00  0.00000000000E+00  0.68533207195E+02  0.68533207195E+02  0.00000000000E+00 0. -1.
         -1   -1    0    0    0  501 -0.00000000000E+00 -0.00000000000E+00 -0.27622722271E+03  0.27622722271E+03  0.00000000000E+00 0. -1.
         35    2    1    2    0    0  0.00000000000E+00  0.00000000000E+00 -0.20769401551E+03  0.34476042990E+03  0.27517803319E+03 0.  0.
         25    1    3    3    0    0  0.54622642955E+02 -0.67274481003E+01 -0.55293979247E+02  0.14313041543E+03  0.12000000000E+03 0.  0.
         25    1    3    3    0    0 -0.54622642955E+02  0.67274481003E+01 -0.15240003627E+03  0.20163001447E+03  0.12000000000E+03 0.  0.
<mgrwt>
<rscale>  0 0.27517803E+03</rscale>
<asrwt>0</asrwt>
<pdfrwt beam="1">  1        1 0.10543571E-01 0.27517803E+03</pdfrwt>
<pdfrwt beam="2">  1       -1 0.42496495E-01 0.27517803E+03</pdfrwt>
<totfact> 0.32925464E+03</totfact>
</mgrwt>
</event>
<event>
 5    1  0.1111501E+001  0.2732435E+03  0.7818608E-02  0.1099438E+00
         -4   -1    0    0    0  501 -0.00000000000E+00  0.00000000000E+00  0.11502582498E+03  0.11502582498E+03  0.00000000000E+00 0. -1.
          4   -1    0    0  501    0  0.00000000000E+00 -0.00000000000E+00 -0.16227223538E+03  0.16227223538E+03  0.00000000000E+00 0. -1.
         35    2    1    2    0    0  0.00000000000E+00  0.00000000000E+00 -0.47246410398E+02  0.27729806036E+03  0.27324346466E+03 0.  0.
         25    1    3    3    0    0 -0.24135155906E+02 -0.53094076550E+02 -0.53453441368E+02  0.14373154528E+03  0.12000000000E+03 0.  0.
         25    1    3    3    0    0  0.24135155906E+02  0.53094076550E+02  0.62070309699E+01  0.13356651507E+03  0.12000000000E+03 0.  0.
<mgrwt>
<rscale>  0 0.27324346E+03</rscale>
<asrwt>0</asrwt>
<pdfrwt beam="1">  1        4 0.24964959E-01 0.27324346E+03</pdfrwt>
<pdfrwt beam="2">  1       -4 0.17696281E-01 0.27324346E+03</pdfrwt>
<totfact> 0.79147043E+02</totfact>
</mgrwt>
</event>
<event>
 5    1  0.1111501E+001  0.2745576E+03  0.7818608E-02  0.1098699E+00
          2   -1    0    0  501    0  0.00000000000E+00  0.00000000000E+00  0.15697948558E+04  0.15697948558E+04  0.00000000000E+00 0. -1.
         -2   -1    0    0    0  501 -0.00000000000E+00 -0.00000000000E+00 -0.12005053428E+02  0.12005053428E+02  0.00000000000E+00 0. -1.
         35    2    1    2    0    0  0.00000000000E+00  0.00000000000E+00  0.15577898023E+04  0.15817999092E+04  0.27455761592E+03 0.  0.
         25    1    3    3    0    0 -0.38887864035E+01 -0.48108160090E+02  0.51387950849E+03  0.52990722488E+03  0.12000000000E+03 0.  0.
         25    1    3    3    0    0  0.38887864035E+01  0.48108160090E+02  0.10439102939E+04  0.10518926843E+04  0.12000000000E+03 0.  0.
<mgrwt>
<rscale>  0 0.27455762E+03</rscale>
<asrwt>0</asrwt>
<pdfrwt beam="1">  1        2 0.24150674E+00 0.27455762E+03</pdfrwt>
<pdfrwt beam="2">  1       -2 0.18469325E-02 0.27455762E+03</pdfrwt>
<totfact> 0.10883865E+04</totfact>
</mgrwt>
</event>
<event>
 5    1  0.1111501E+001  0.2743298E+03  0.7818608E-02  0.1098827E+00
          1   -1    0    0  501    0  0.00000000000E+00  0.00000000000E+00  0.22997610379E+03  0.22997610379E+03  0.00000000000E+00 0. -1.
         -1   -1    0    0    0  501 -0.00000000000E+00 -0.00000000000E+00 -0.81809394426E+02  0.81809394426E+02  0.00000000000E+00 0. -1.
         35    2    1    2    0    0  0.00000000000E+00  0.00000000000E+00  0.14816670936E+03  0.31178549821E+03  0.27432977077E+03 0.  0.
         25    1    3    3    0    0 -0.15093045069E+02  0.57400364766E+02  0.10802000317E+03  0.17202012374E+03  0.12000000000E+03 0.  0.
         25    1    3    3    0    0  0.15093045069E+02 -0.57400364766E+02  0.40146706188E+02  0.13976537448E+03  0.12000000000E+03 0.  0.
<mgrwt>
<rscale>  0 0.27432977E+03</rscale>
<asrwt>0</asrwt>
<pdfrwt beam="1">  1        1 0.35380939E-01 0.27432977E+03</pdfrwt>
<pdfrwt beam="2">  1       -1 0.12586061E-01 0.27432977E+03</pdfrwt>
<totfact> 0.51805759E+03</totfact>
</mgrwt>
</event>
<event>
 5    1  0.1111501E+001  0.2749854E+03  0.7818608E-02  0.1098460E+00
         -4   -1    0    0    0  501 -0.00000000000E+00  0.00000000000E+00  0.13199158113E+04  0.13199158113E+04  0.00000000000E+00 0.  1.
          4   -1    0    0  501    0  0.00000000000E+00 -0.00000000000E+00 -0.14322309992E+02  0.14322309992E+02  0.00000000000E+00 0.  1.
         35    2    1    2    0    0  0.00000000000E+00  0.00000000000E+00  0.13055935013E+04  0.13342381212E+04  0.27498540625E+03 0.  0.
         25    1    3    3    0    0  0.23101505800E+02 -0.34415280402E+02  0.90890650914E+03  0.91773042527E+03  0.12000000000E+03 0.  0.
         25    1    3    3    0    0 -0.23101505800E+02  0.34415280402E+02  0.39668699212E+03  0.41650769598E+03  0.12000000000E+03 0.  0.
<mgrwt>
<rscale>  0 0.27498541E+03</rscale>
<asrwt>0</asrwt>
<pdfrwt beam="1">  1        4 0.22034333E-02 0.27498541E+03</pdfrwt>
<pdfrwt beam="2">  1       -4 0.20306388E+00 0.27498541E+03</pdfrwt>
<totfact> 0.22513333E+02</totfact>
</mgrwt>
</event>
<event>
 5    1  0.1111501E+001  0.2754666E+03  0.7818608E-02  0.1098191E+00
         -1   -1    0    0    0  501 -0.00000000000E+00  0.00000000000E+00  0.56293963041E+03  0.56293963041E+03  0.00000000000E+00 0.  1.
          1   -1    0    0  501    0  0.00000000000E+00 -0.00000000000E+00 -0.33698917741E+02  0.33698917741E+02  0.00000000000E+00 0.  1.
         35    2    1    2    0    0  0.00000000000E+00  0.00000000000E+00  0.52924071267E+03  0.59663854815E+03  0.27546655912E+03 0.  0.
         25    1    3    3    0    0  0.41181110087E+02 -0.13942435686E+02  0.15248966918E+03  0.19885515972E+03  0.12000000000E+03 0.  0.
         25    1    3    3    0    0 -0.41181110087E+02  0.13942435686E+02  0.37675104349E+03  0.39778338843E+03  0.12000000000E+03 0.  0.
<mgrwt>
<rscale>  0 0.27546656E+03</rscale>
<asrwt>0</asrwt>
<pdfrwt beam="1">  1        1 0.51844493E-02 0.27546656E+03</pdfrwt>
<pdfrwt beam="2">  1       -1 0.86606090E-01 0.27546656E+03</pdfrwt>
<totfact> 0.21806259E+03</totfact>
</mgrwt>
</event>
<event>
 5    1  0.1111501E+001  0.2750893E+03  0.7818608E-02  0.1098402E+00
         -2   -1    0    0    0  501 -0.00000000000E+00  0.00000000000E+00  0.10703037833E+02  0.10703037833E+02  0.00000000000E+00 0.  1.
          2   -1    0    0  501    0  0.00000000000E+00 -0.00000000000E+00 -0.17675850610E+04  0.17675850610E+04  0.00000000000E+00 0.  1.
         35    2    1    2    0    0  0.00000000000E+00  0.00000000000E+00 -0.17568820232E+04  0.17782880988E+04  0.27508929300E+03 0.  0.
         25    1    3    3    0    0 -0.15059828261E+02  0.63567169317E+02 -0.77603655288E+03  0.78797228051E+03  0.12000000000E+03 0.  0.
         25    1    3    3    0    0  0.15059828261E+02 -0.63567169317E+02 -0.98084547028E+03  0.99031581832E+03  0.12000000000E+03 0.  0.
<mgrwt>
<rscale>  0 0.27508929E+03</rscale>
<asrwt>0</asrwt>
<pdfrwt beam="1">  1        2 0.27193634E+00 0.27508929E+03</pdfrwt>
<pdfrwt beam="2">  1       -2 0.16466201E-02 0.27508929E+03</pdfrwt>
<totfact> 0.10128515E+04</totfact>
</mgrwt>
</event>
<event>
 5    1  0.1111501E+001  0.2751232E+03  0.7818608E-02  0.1098383E+00
          2   -1    0    0  501    0  0.00000000000E+00  0.00000000000E+00  0.40500930305E+02  0.40500930305E+02  0.00000000000E+00 0. -1.
         -2   -1    0    0    0  501 -0.00000000000E+00 -0.00000000000E+00 -0.46722857698E+03  0.46722857698E+03  0.00000000000E+00 0. -1.
         35    2    1    2    0    0  0.00000000000E+00  0.00000000000E+00 -0.42672764667E+03  0.50772950728E+03  0.27512318719E+03 0.  0.
         25    1    3    3    0    0 -0.25145691108E+02  0.44741475481E+02 -0.13315333765E+03  0.18645084268E+03  0.12000000000E+03 0.  0.
         25    1    3    3    0    0  0.25145691108E+02 -0.44741475481E+02 -0.29357430902E+03  0.32127866460E+03  0.12000000000E+03 0.  0.
<mgrwt>
<rscale>  0 0.27512319E+03</rscale>
<asrwt>0</asrwt>
<pdfrwt beam="1">  1        2 0.62309125E-02 0.27512319E+03</pdfrwt>
<pdfrwt beam="2">  1       -2 0.71881318E-01 0.27512319E+03</pdfrwt>
<totfact> 0.21129400E+03</totfact>
</mgrwt>
</event>
<event>
 5    1  0.1111501E+001  0.2753184E+03  0.7818608E-02  0.1098274E+00
         -2   -1    0    0    0  501 -0.00000000000E+00  0.00000000000E+00  0.32136222014E+02  0.32136222014E+02  0.00000000000E+00 0. -1.
          2   -1    0    0  501    0  0.00000000000E+00 -0.00000000000E+00 -0.58967894627E+03  0.58967894627E+03  0.00000000000E+00 0. -1.
         35    2    1    2    0    0  0.00000000000E+00  0.00000000000E+00 -0.55754272426E+03  0.62181516829E+03  0.27531838685E+03 0.  0.
         25    1    3    3    0    0 -0.55964200888E+02  0.29645644610E+02 -0.33121587237E+03  0.35793129248E+03  0.12000000000E+03 0.  0.
         25    1    3    3    0    0  0.55964200888E+02 -0.29645644610E+02 -0.22632685189E+03  0.26388387581E+03  0.12000000000E+03 0.  0.
<mgrwt>
<rscale>  0 0.27531839E+03</rscale>
<asrwt>0</asrwt>
<pdfrwt beam="1">  1        2 0.90719832E-01 0.27531839E+03</pdfrwt>
<pdfrwt beam="2">  1       -2 0.49440345E-02 0.27531839E+03</pdfrwt>
<totfact> 0.10208204E+04</totfact>
</mgrwt>
</event>
<event>
 5    1  0.1111501E+001  0.2743661E+03  0.7818608E-02  0.1098806E+00
         -3   -1    0    0    0  501 -0.00000000000E+00  0.00000000000E+00  0.18890462722E+03  0.18890462722E+03  0.00000000000E+00 0. -1.
          3   -1    0    0  501    0  0.00000000000E+00 -0.00000000000E+00 -0.99622724095E+02  0.99622724095E+02  0.00000000000E+00 0. -1.
         35    2    1    2    0    0  0.00000000000E+00  0.00000000000E+00  0.89281903129E+02  0.28852735132E+03  0.27436613172E+03 0.  0.
         25    1    3    3    0    0  0.36264656566E+02  0.48463352134E+02  0.15738355331E+02  0.13532005633E+03  0.12000000000E+03 0.  0.
         25    1    3    3    0    0 -0.36264656566E+02 -0.48463352134E+02  0.73543547797E+02  0.15320729499E+03  0.12000000000E+03 0.  0.
<mgrwt>
<rscale>  0 0.27436613E+03</rscale>
<asrwt>0</asrwt>
<pdfrwt beam="1">  1        3 0.15326573E-01 0.27436613E+03</pdfrwt>
<pdfrwt beam="2">  1       -3 0.29062250E-01 0.27436613E+03</pdfrwt>
<totfact> 0.10357002E+03</totfact>
</mgrwt>
</event>
<event>
 5    1  0.1111501E+001  0.2747846E+03  0.7818608E-02  0.1098572E+00
          2   -1    0    0  501    0  0.00000000000E+00  0.00000000000E+00  0.21914637756E+03  0.21914637756E+03  0.00000000000E+00 0. -1.
         -2   -1    0    0    0  501 -0.00000000000E+00 -0.00000000000E+00 -0.86137121987E+02  0.86137121987E+02  0.00000000000E+00 0. -1.
         35    2    1    2    0    0  0.00000000000E+00  0.00000000000E+00  0.13300925557E+03  0.30528349955E+03  0.27478455748E+03 0.  0.
         25    1    3    3    0    0 -0.54794277772E+02  0.26493783481E+02  0.35629740484E+02  0.13918984103E+03  0.12000000000E+03 0.  0.
         25    1    3    3    0    0  0.54794277772E+02 -0.26493783481E+02  0.97379515088E+02  0.16609365851E+03  0.12000000000E+03 0.  0.
<mgrwt>
<rscale>  0 0.27478456E+03</rscale>
<asrwt>0</asrwt>
<pdfrwt beam="1">  1        2 0.33714827E-01 0.27478456E+03</pdfrwt>
<pdfrwt beam="2">  1       -2 0.13251865E-01 0.27478456E+03</pdfrwt>
<totfact> 0.64280602E+03</totfact>
</mgrwt>
</event>
<event>
 5    1  0.1111501E+001  0.2746974E+03  0.7818608E-02  0.1098621E+00
          2   -1    0    0  501    0  0.00000000000E+00  0.00000000000E+00  0.12301302377E+03  0.12301302377E+03  0.00000000000E+00 0.  1.
         -2   -1    0    0    0  501 -0.00000000000E+00 -0.00000000000E+00 -0.15335503495E+03  0.15335503495E+03  0.00000000000E+00 0.  1.
         35    2    1    2    0    0  0.00000000000E+00  0.00000000000E+00 -0.30342011179E+02  0.27636805872E+03  0.27469740851E+03 0.  0.
         25    1    3    3    0    0 -0.10000635466E+02  0.65800818610E+02 -0.21115077818E+02  0.13883661963E+03  0.12000000000E+03 0.  0.
         25    1    3    3    0    0  0.10000635466E+02 -0.65800818610E+02 -0.92269333611E+01  0.13753143909E+03  0.12000000000E+03 0.  0.
<mgrwt>
<rscale>  0 0.27469741E+03</rscale>
<asrwt>0</asrwt>
<pdfrwt beam="1">  1        2 0.18925081E-01 0.27469741E+03</pdfrwt>
<pdfrwt beam="2">  1       -2 0.23593082E-01 0.27469741E+03</pdfrwt>
<totfact> 0.46339157E+03</totfact>
</mgrwt>
</event>
<event>
 5    1  0.1111501E+001  0.2757443E+03  0.7818608E-02  0.1098036E+00
          1   -1    0    0  501    0  0.00000000000E+00  0.00000000000E+00  0.72798711995E+02  0.72798711995E+02  0.00000000000E+00 0.  1.
         -1   -1    0    0    0  501 -0.00000000000E+00 -0.00000000000E+00 -0.26111348646E+03  0.26111348646E+03  0.00000000000E+00 0.  1.
         35    2    1    2    0    0  0.00000000000E+00  0.00000000000E+00 -0.18831477446E+03  0.33391219845E+03  0.27574426920E+03 0.  0.
         25    1    3    3    0    0 -0.49510527602E+02 -0.39218309726E+02 -0.12429413847E+03  0.18395217046E+03  0.12000000000E+03 0.  0.
         25    1    3    3    0    0  0.49510527602E+02  0.39218309726E+02 -0.64020635998E+02  0.14996002799E+03  0.12000000000E+03 0.  0.
<mgrwt>
<rscale>  0 0.27574427E+03</rscale>
<asrwt>0</asrwt>
<pdfrwt beam="1">  1        1 0.11199802E-01 0.27574427E+03</pdfrwt>
<pdfrwt beam="2">  1       -1 0.40171305E-01 0.27574427E+03</pdfrwt>
<totfact> 0.33581837E+03</totfact>
</mgrwt>
</event>
<event>
 5    1  0.1111501E+001  0.2750297E+03  0.7818608E-02  0.1098435E+00
         -2   -1    0    0    0  501 -0.00000000000E+00  0.00000000000E+00  0.23525050308E+02  0.23525050308E+02  0.00000000000E+00 0. -1.
          2   -1    0    0  501    0  0.00000000000E+00 -0.00000000000E+00 -0.80383819965E+03  0.80383819965E+03  0.00000000000E+00 0. -1.
         35    2    1    2    0    0  0.00000000000E+00  0.00000000000E+00 -0.78031314934E+03  0.82736324995E+03  0.27502970084E+03 0.  0.
         25    1    3    3    0    0  0.95616913636E+00  0.65557480433E+02 -0.43392007022E+03  0.45495639883E+03  0.12000000000E+03 0.  0.
         25    1    3    3    0    0 -0.95616913636E+00 -0.65557480433E+02 -0.34639307912E+03  0.37240685112E+03  0.12000000000E+03 0.  0.
<mgrwt>
<rscale>  0 0.27502970E+03</rscale>
<asrwt>0</asrwt>
<pdfrwt beam="1">  1        2 0.12366744E+00 0.27502970E+03</pdfrwt>
<pdfrwt beam="2">  1       -2 0.36192379E-02 0.27502970E+03</pdfrwt>
<totfact> 0.11230636E+04</totfact>
</mgrwt>
</event>
<event>
 5    1  0.1111501E+001  0.2754997E+03  0.7818608E-02  0.1098173E+00
         -2   -1    0    0    0  501 -0.00000000000E+00  0.00000000000E+00  0.12255769365E+03  0.12255769365E+03  0.00000000000E+00 0. -1.
          2   -1    0    0  501    0  0.00000000000E+00 -0.00000000000E+00 -0.15482516912E+03  0.15482516912E+03  0.00000000000E+00 0. -1.
         35    2    1    2    0    0  0.00000000000E+00  0.00000000000E+00 -0.32267475468E+02  0.27738286277E+03  0.27549965986E+03 0.  0.
         25    1    3    3    0    0  0.63150340643E+02  0.20595701081E+02 -0.32845581000E+01  0.13719670823E+03  0.12000000000E+03 0.  0.
         25    1    3    3    0    0 -0.63150340643E+02 -0.20595701081E+02 -0.28982917368E+02  0.14018615454E+03  0.12000000000E+03 0.  0.
<mgrwt>
<rscale>  0 0.27549966E+03</rscale>
<asrwt>0</asrwt>
<pdfrwt beam="1">  1        2 0.23819257E-01 0.27549966E+03</pdfrwt>
<pdfrwt beam="2">  1       -2 0.18855030E-01 0.27549966E+03</pdfrwt>
<totfact> 0.52495410E+03</totfact>
</mgrwt>
</event>
<event>
 5    1  0.1111501E+001  0.2751024E+03  0.7818608E-02  0.1098394E+00
         -1   -1    0    0    0  501 -0.00000000000E+00  0.00000000000E+00  0.15470870014E+02  0.15470870014E+02  0.00000000000E+00 0. -1.
          1   -1    0    0  501    0  0.00000000000E+00 -0.00000000000E+00 -0.12229649970E+04  0.12229649970E+04  0.00000000000E+00 0. -1.
         35    2    1    2    0    0  0.00000000000E+00  0.00000000000E+00 -0.12074941270E+04  0.12384358670E+04  0.27510239912E+03 0.  0.
         25    1    3    3    0    0  0.61689224677E+02  0.19250616761E+02 -0.52022992107E+03  0.53778742777E+03  0.12000000000E+03 0.  0.
         25    1    3    3    0    0 -0.61689224677E+02 -0.19250616761E+02 -0.68726420590E+03  0.70064843923E+03  0.12000000000E+03 0.  0.
<mgrwt>
<rscale>  0 0.27510240E+03</rscale>
<asrwt>0</asrwt>
<pdfrwt beam="1">  1        1 0.18814854E+00 0.27510240E+03</pdfrwt>
<pdfrwt beam="2">  1       -1 0.23801329E-02 0.27510240E+03</pdfrwt>
<totfact> 0.58576149E+03</totfact>
</mgrwt>
</event>
<event>
 5    1  0.1111501E+001  0.2744640E+03  0.7818608E-02  0.1098752E+00
          3   -1    0    0  501    0  0.00000000000E+00  0.00000000000E+00  0.62922432962E+02  0.62922432962E+02  0.00000000000E+00 0.  1.
         -3   -1    0    0    0  501 -0.00000000000E+00 -0.00000000000E+00 -0.29929896888E+03  0.29929896888E+03  0.00000000000E+00 0.  1.
         35    2    1    2    0    0  0.00000000000E+00  0.00000000000E+00 -0.23637653591E+03  0.36222140184E+03  0.27446398164E+03 0.  0.
         25    1    3    3    0    0 -0.63700406878E+02 -0.88310550035E+01 -0.14092805984E+03  0.19595011462E+03  0.12000000000E+03 0.  0.
         25    1    3    3    0    0  0.63700406878E+02  0.88310550035E+01 -0.95448476078E+02  0.16627128722E+03  0.12000000000E+03 0.  0.
<mgrwt>
<rscale>  0 0.27446398E+03</rscale>
<asrwt>0</asrwt>
<pdfrwt beam="1">  1        3 0.96803743E-02 0.27446398E+03</pdfrwt>
<pdfrwt beam="2">  1       -3 0.46045995E-01 0.27446398E+03</pdfrwt>
<totfact> 0.93242494E+02</totfact>
</mgrwt>
</event>
<event>
 5    1  0.1111501E+001  0.2750210E+03  0.7818608E-02  0.1098440E+00
         -1   -1    0    0    0  501 -0.00000000000E+00  0.00000000000E+00  0.80383429482E+02  0.80383429482E+02  0.00000000000E+00 0. -1.
          1   -1    0    0  501    0  0.00000000000E+00 -0.00000000000E+00 -0.23523679919E+03  0.23523679919E+03  0.00000000000E+00 0. -1.
         35    2    1    2    0    0  0.00000000000E+00  0.00000000000E+00 -0.15485336971E+03  0.31562022867E+03  0.27502102217E+03 0.  0.
         25    1    3    3    0    0 -0.19941826097E+02  0.60008542997E+01 -0.15069006215E+03  0.19375546834E+03  0.12000000000E+03 0.  0.
         25    1    3    3    0    0  0.19941826097E+02 -0.60008542997E+01 -0.41633075528E+01  0.12186476033E+03  0.12000000000E+03 0.  0.
<mgrwt>
<rscale>  0 0.27502102E+03</rscale>
<asrwt>0</asrwt>
<pdfrwt beam="1">  1        1 0.36190277E-01 0.27502102E+03</pdfrwt>
<pdfrwt beam="2">  1       -1 0.12366681E-01 0.27502102E+03</pdfrwt>
<totfact> 0.51764591E+03</totfact>
</mgrwt>
</event>
<event>
 5    1  0.1111501E+001  0.2775218E+03  0.7818608E-02  0.1097050E+00
          2   -1    0    0  501    0  0.00000000000E+00  0.00000000000E+00  0.66694984175E+03  0.66694984175E+03  0.00000000000E+00 0.  1.
         -2   -1    0    0    0  501 -0.00000000000E+00 -0.00000000000E+00 -0.28869609558E+02  0.28869609558E+02  0.00000000000E+00 0.  1.
         35    2    1    2    0    0  0.00000000000E+00  0.00000000000E+00  0.63808023219E+03  0.69581945130E+03  0.27752175789E+03 0.  0.
         25    1    3    3    0    0  0.17767385575E+02 -0.17521698769E+02  0.15593529618E+03  0.19833937207E+03  0.12000000000E+03 0.  0.
         25    1    3    3    0    0 -0.17767385575E+02  0.17521698769E+02  0.48214493601E+03  0.49748007923E+03  0.12000000000E+03 0.  0.
<mgrwt>
<rscale>  0 0.27752176E+03</rscale>
<asrwt>0</asrwt>
<pdfrwt beam="1">  1        2 0.10260766E+00 0.27752176E+03</pdfrwt>
<pdfrwt beam="2">  1       -2 0.44414789E-02 0.27752176E+03</pdfrwt>
<totfact> 0.10393230E+04</totfact>
</mgrwt>
</event>
<event>
 5    1  0.1111501E+001  0.2752276E+03  0.7818608E-02  0.1098324E+00
          2   -1    0    0  501    0  0.00000000000E+00  0.00000000000E+00  0.50431313776E+03  0.50431313776E+03  0.00000000000E+00 0. -1.
         -2   -1    0    0    0  501 -0.00000000000E+00 -0.00000000000E+00 -0.37551196484E+02  0.37551196484E+02  0.00000000000E+00 0. -1.
         35    2    1    2    0    0  0.00000000000E+00  0.00000000000E+00  0.46676194127E+03  0.54186433424E+03  0.27522762743E+03 0.  0.
         25    1    3    3    0    0 -0.11489749511E+02  0.56854522470E+02  0.30081327950E+03  0.32901835844E+03  0.12000000000E+03 0.  0.
         25    1    3    3    0    0  0.11489749511E+02 -0.56854522470E+02  0.16594866178E+03  0.21284597580E+03  0.12000000000E+03 0.  0.
<mgrwt>
<rscale>  0 0.27522763E+03</rscale>
<asrwt>0</asrwt>
<pdfrwt beam="1">  1        2 0.77586632E-01 0.27522763E+03</pdfrwt>
<pdfrwt beam="2">  1       -2 0.57771075E-02 0.27522763E+03</pdfrwt>
<totfact> 0.96177215E+03</totfact>
</mgrwt>
</event>
<event>
 5    1  0.1111501E+001  0.2763639E+03  0.7818608E-02  0.1097692E+00
          1   -1    0    0  501    0  0.00000000000E+00  0.00000000000E+00  0.93997869573E+03  0.93997869573E+03  0.00000000000E+00 0. -1.
         -1   -1    0    0    0  501 -0.00000000000E+00 -0.00000000000E+00 -0.20313487505E+02  0.20313487505E+02  0.00000000000E+00 0. -1.
         35    2    1    2    0    0  0.00000000000E+00  0.00000000000E+00  0.91966520822E+03  0.96029218323E+03  0.27636385792E+03 0.  0.
         25    1    3    3    0    0 -0.47078803313E+02  0.42106059255E+02  0.55208750751E+03  0.56849797704E+03  0.12000000000E+03 0.  0.
         25    1    3    3    0    0  0.47078803313E+02 -0.42106059255E+02  0.36757770071E+03  0.39179420620E+03  0.12000000000E+03 0.  0.
<mgrwt>
<rscale>  0 0.27636386E+03</rscale>
<asrwt>0</asrwt>
<pdfrwt beam="1">  1        1 0.14461207E+00 0.27636386E+03</pdfrwt>
<pdfrwt beam="2">  1       -1 0.31251527E-02 0.27636386E+03</pdfrwt>
<totfact> 0.63038609E+03</totfact>
</mgrwt>
</event>
<event>
 5    1  0.1111501E+001  0.2746945E+03  0.7818608E-02  0.1098623E+00
          2   -1    0    0  501    0  0.00000000000E+00  0.00000000000E+00  0.40753808570E+04  0.40753808570E+04  0.00000000000E+00 0. -1.
         -2   -1    0    0    0  501 -0.00000000000E+00 -0.00000000000E+00 -0.46288339962E+01  0.46288339962E+01  0.00000000000E+00 0. -1.
         35    2    1    2    0    0  0.00000000000E+00  0.00000000000E+00  0.40707520230E+04  0.40800096910E+04  0.27469445905E+03 0.  0.
         25    1    3    3    0    0 -0.29058621600E+02  0.66409995370E+01  0.29235441273E+04  0.29261576805E+04  0.12000000000E+03 0.  0.
         25    1    3    3    0    0  0.29058621600E+02 -0.66409995370E+01  0.11472078957E+04  0.11538520106E+04  0.12000000000E+03 0.  0.
<mgrwt>
<rscale>  0 0.27469446E+03</rscale>
<asrwt>0</asrwt>
<pdfrwt beam="1">  1        2 0.62697880E+00 0.27469446E+03</pdfrwt>
<pdfrwt beam="2">  1       -2 0.71213157E-03 0.27469446E+03</pdfrwt>
<totfact> 0.13633198E+03</totfact>
</mgrwt>
</event>
<event>
 5    1  0.1111501E+001  0.2752760E+03  0.7818608E-02  0.1098297E+00
          1   -1    0    0  501    0  0.00000000000E+00  0.00000000000E+00  0.27662097842E+02  0.27662097842E+02  0.00000000000E+00 0. -1.
         -1   -1    0    0    0  501 -0.00000000000E+00 -0.00000000000E+00 -0.68484375037E+03  0.68484375037E+03  0.00000000000E+00 0. -1.
         35    2    1    2    0    0  0.00000000000E+00  0.00000000000E+00 -0.65718165253E+03  0.71250584822E+03  0.27527596938E+03 0.  0.
         25    1    3    3    0    0  0.34298737367E+02 -0.57843874408E+02 -0.34070290728E+03  0.36742453405E+03  0.12000000000E+03 0.  0.
         25    1    3    3    0    0 -0.34298737367E+02  0.57843874408E+02 -0.31647874525E+03  0.34508131416E+03  0.12000000000E+03 0.  0.
<mgrwt>
<rscale>  0 0.27527597E+03</rscale>
<asrwt>0</asrwt>
<pdfrwt beam="1">  1        1 0.42557073E-02 0.27527597E+03</pdfrwt>
<pdfrwt beam="2">  1       -1 0.10536058E+00 0.27527597E+03</pdfrwt>
<totfact> 0.18657039E+03</totfact>
</mgrwt>
</event>
<event>
 5    1  0.1111501E+001  0.2741367E+03  0.7818608E-02  0.1098935E+00
         -4   -1    0    0    0  501 -0.00000000000E+00  0.00000000000E+00  0.33391113907E+03  0.33391113907E+03  0.00000000000E+00 0.  1.
          4   -1    0    0  501    0  0.00000000000E+00 -0.00000000000E+00 -0.56265667662E+02  0.56265667662E+02  0.00000000000E+00 0.  1.
         35    2    1    2    0    0  0.00000000000E+00  0.00000000000E+00  0.27764547141E+03  0.39017680673E+03  0.27413670443E+03 0.  0.
         25    1    3    3    0    0  0.30405632998E+02  0.42080289314E+02  0.80268809103E+02  0.15342208114E+03  0.12000000000E+03 0.  0.
         25    1    3    3    0    0 -0.30405632998E+02 -0.42080289314E+02  0.19737666230E+03  0.23675472559E+03  0.12000000000E+03 0.  0.
<mgrwt>
<rscale>  0 0.27413670E+03</rscale>
<asrwt>0</asrwt>
<pdfrwt beam="1">  1        4 0.86562568E-02 0.27413670E+03</pdfrwt>
<pdfrwt beam="2">  1       -4 0.51370943E-01 0.27413670E+03</pdfrwt>
<totfact> 0.66531249E+02</totfact>
</mgrwt>
</event>
<event>
 5    1  0.1111501E+001  0.2670766E+03  0.7818608E-02  0.1102964E+00
         -2   -1    0    0    0  501 -0.00000000000E+00  0.00000000000E+00  0.36768599653E+02  0.36768599653E+02  0.00000000000E+00 0. -1.
          2   -1    0    0  501    0  0.00000000000E+00 -0.00000000000E+00 -0.48499217287E+03  0.48499217287E+03  0.00000000000E+00 0. -1.
         35    2    1    2    0    0  0.00000000000E+00  0.00000000000E+00 -0.44822357321E+03  0.52176077252E+03  0.26707664098E+03 0.  0.
         25    1    3    3    0    0  0.39624732643E+02  0.98416147797E+01 -0.14202558782E+03  0.19036345346E+03  0.12000000000E+03 0.  0.
         25    1    3    3    0    0 -0.39624732643E+02 -0.98416147797E+01 -0.30619798540E+03  0.33139731906E+03  0.12000000000E+03 0.  0.
<mgrwt>
<rscale>  0 0.26707664E+03</rscale>
<asrwt>0</asrwt>
<pdfrwt beam="1">  1        2 0.74614172E-01 0.26707664E+03</pdfrwt>
<pdfrwt beam="2">  1       -2 0.56567082E-02 0.26707664E+03</pdfrwt>
<totfact> 0.10362942E+04</totfact>
</mgrwt>
</event>
<event>
 5    1  0.1111501E+001  0.2753357E+03  0.7818608E-02  0.1098264E+00
          2   -1    0    0  501    0  0.00000000000E+00  0.00000000000E+00  0.15774430916E+04  0.15774430916E+04  0.00000000000E+00 0. -1.
         -2   -1    0    0    0  501 -0.00000000000E+00 -0.00000000000E+00 -0.12014660632E+02  0.12014660632E+02  0.00000000000E+00 0. -1.
         35    2    1    2    0    0  0.00000000000E+00  0.00000000000E+00  0.15654284309E+04  0.15894577522E+04  0.27533574713E+03 0.  0.
         25    1    3    3    0    0  0.50914827669E+02 -0.73084456948E+01  0.53063980996E+03  0.54646531543E+03  0.12000000000E+03 0.  0.
         25    1    3    3    0    0 -0.50914827669E+02  0.73084456948E+01  0.10347886210E+04  0.10429924368E+04  0.12000000000E+03 0.  0.
<mgrwt>
<rscale>  0 0.27533575E+03</rscale>
<asrwt>0</asrwt>
<pdfrwt beam="1">  1        2 0.24268339E+00 0.27533575E+03</pdfrwt>
<pdfrwt beam="2">  1       -2 0.18484106E-02 0.27533575E+03</pdfrwt>
<totfact> 0.10770459E+04</totfact>
</mgrwt>
</event>
<event>
 5    1  0.1111501E+001  0.2753038E+03  0.7818608E-02  0.1098282E+00
          2   -1    0    0  501    0  0.00000000000E+00  0.00000000000E+00  0.96129144395E+03  0.96129144395E+03  0.00000000000E+00 0. -1.
         -2   -1    0    0    0  501 -0.00000000000E+00 -0.00000000000E+00 -0.19711029517E+02  0.19711029517E+02  0.00000000000E+00 0. -1.
         35    2    1    2    0    0  0.00000000000E+00  0.00000000000E+00  0.94158041443E+03  0.98100247346E+03  0.27530378876E+03 0.  0.
         25    1    3    3    0    0 -0.23092224135E+02 -0.49475115988E+02  0.32973365678E+03  0.35511311202E+03  0.12000000000E+03 0.  0.
         25    1    3    3    0    0  0.23092224135E+02  0.49475115988E+02  0.61184675765E+03  0.62588936145E+03  0.12000000000E+03 0.  0.
<mgrwt>
<rscale>  0 0.27530379E+03</rscale>
<asrwt>0</asrwt>
<pdfrwt beam="1">  1        2 0.14789096E+00 0.27530379E+03</pdfrwt>
<pdfrwt beam="2">  1       -2 0.30324668E-02 0.27530379E+03</pdfrwt>
<totfact> 0.11538411E+04</totfact>
</mgrwt>
</event>
<event>
 5    1  0.1111501E+001  0.2756724E+03  0.7818608E-02  0.1098076E+00
          2   -1    0    0  501    0  0.00000000000E+00  0.00000000000E+00  0.13490269873E+04  0.13490269873E+04  0.00000000000E+00 0. -1.
         -2   -1    0    0    0  501 -0.00000000000E+00 -0.00000000000E+00 -0.14083344197E+02  0.14083344197E+02  0.00000000000E+00 0. -1.
         35    2    1    2    0    0  0.00000000000E+00  0.00000000000E+00  0.13349436432E+04  0.13631103315E+04  0.27567235185E+03 0.  0.
         25    1    3    3    0    0  0.23755552814E+02  0.40375662626E+01  0.35403308873E+03  0.37459318753E+03  0.12000000000E+03 0.  0.
         25    1    3    3    0    0 -0.23755552814E+02 -0.40375662626E+01  0.98091055443E+03  0.98851714402E+03  0.12000000000E+03 0.  0.
<mgrwt>
<rscale>  0 0.27567235E+03</rscale>
<asrwt>0</asrwt>
<pdfrwt beam="1">  1        2 0.20754251E+00 0.27567235E+03</pdfrwt>
<pdfrwt beam="2">  1       -2 0.21666694E-02 0.27567235E+03</pdfrwt>
<totfact> 0.11316592E+04</totfact>
</mgrwt>
</event>
<event>
 5    1  0.1111501E+001  0.2738765E+03  0.7818608E-02  0.1099081E+00
         -1   -1    0    0    0  501 -0.00000000000E+00  0.00000000000E+00  0.11710188423E+03  0.11710188423E+03  0.00000000000E+00 0.  1.
          1   -1    0    0  501    0  0.00000000000E+00 -0.00000000000E+00 -0.16013482730E+03  0.16013482730E+03  0.00000000000E+00 0.  1.
         35    2    1    2    0    0  0.00000000000E+00  0.00000000000E+00 -0.43032943072E+02  0.27723671153E+03  0.27387654158E+03 0.  0.
         25    1    3    3    0    0  0.40292321652E+01 -0.57058676098E+02  0.11752586706E+02  0.13345430126E+03  0.12000000000E+03 0.  0.
         25    1    3    3    0    0 -0.40292321652E+01  0.57058676098E+02 -0.54785529778E+02  0.14378241027E+03  0.12000000000E+03 0.  0.
<mgrwt>
<rscale>  0 0.27387654E+03</rscale>
<asrwt>0</asrwt>
<pdfrwt beam="1">  1        1 0.24636127E-01 0.27387654E+03</pdfrwt>
<pdfrwt beam="2">  1       -1 0.18015675E-01 0.27387654E+03</pdfrwt>
<totfact> 0.46310760E+03</totfact>
</mgrwt>
</event>
<event>
 5    1  0.1111501E+001  0.2763398E+03  0.7818608E-02  0.1097705E+00
          2   -1    0    0  501    0  0.00000000000E+00  0.00000000000E+00  0.71626750382E+03  0.71626750382E+03  0.00000000000E+00 0.  1.
         -2   -1    0    0    0  501 -0.00000000000E+00 -0.00000000000E+00 -0.26653333390E+02  0.26653333390E+02  0.00000000000E+00 0.  1.
         35    2    1    2    0    0  0.00000000000E+00  0.00000000000E+00  0.68961417043E+03  0.74292083721E+03  0.27633976605E+03 0.  0.
         25    1    3    3    0    0 -0.23474906318E+02 -0.61490496506E+02  0.39572887933E+03  0.41872843028E+03  0.12000000000E+03 0.  0.
         25    1    3    3    0    0  0.23474906318E+02  0.61490496506E+02  0.29388529110E+03  0.32419240693E+03  0.12000000000E+03 0.  0.
<mgrwt>
<rscale>  0 0.27633977E+03</rscale>
<asrwt>0</asrwt>
<pdfrwt beam="1">  1        2 0.11019499E+00 0.27633977E+03</pdfrwt>
<pdfrwt beam="2">  1       -2 0.41005134E-02 0.27633977E+03</pdfrwt>
<totfact> 0.10753754E+04</totfact>
</mgrwt>
</event>
<event>
 5    1  0.1111501E+001  0.2756927E+03  0.7818608E-02  0.1098065E+00
          1   -1    0    0  501    0  0.00000000000E+00  0.00000000000E+00  0.31960016616E+03  0.31960016616E+03  0.00000000000E+00 0. -1.
         -1   -1    0    0    0  501 -0.00000000000E+00 -0.00000000000E+00 -0.59454351971E+02  0.59454351971E+02  0.00000000000E+00 0. -1.
         35    2    1    2    0    0  0.00000000000E+00  0.00000000000E+00  0.26014581419E+03  0.37905451813E+03  0.27569273308E+03 0.  0.
         25    1    3    3    0    0  0.25450463663E+02  0.52088931402E+02  0.17850116870E+03  0.22276366423E+03  0.12000000000E+03 0.  0.
         25    1    3    3    0    0 -0.25450463663E+02 -0.52088931402E+02  0.81644645490E+02  0.15629085390E+03  0.12000000000E+03 0.  0.
<mgrwt>
<rscale>  0 0.27569273E+03</rscale>
<asrwt>0</asrwt>
<pdfrwt beam="1">  1        1 0.49169255E-01 0.27569273E+03</pdfrwt>
<pdfrwt beam="2">  1       -1 0.91468235E-02 0.27569273E+03</pdfrwt>
<totfact> 0.56236674E+03</totfact>
</mgrwt>
</event>
<event>
 5    1  0.1111501E+001  0.2747314E+03  0.7818608E-02  0.1098602E+00
          2   -1    0    0  501    0  0.00000000000E+00  0.00000000000E+00  0.76452033941E+03  0.76452033941E+03  0.00000000000E+00 0.  1.
         -2   -1    0    0    0  501 -0.00000000000E+00 -0.00000000000E+00 -0.24681264541E+02  0.24681264541E+02  0.00000000000E+00 0.  1.
         35    2    1    2    0    0  0.00000000000E+00  0.00000000000E+00  0.73983907487E+03  0.78920160395E+03  0.27473135055E+03 0.  0.
         25    1    3    3    0    0 -0.41655857456E+02 -0.45441689699E+02  0.29560935403E+03  0.32493852928E+03  0.12000000000E+03 0.  0.
         25    1    3    3    0    0  0.41655857456E+02  0.45441689699E+02  0.44422972084E+03  0.46426307467E+03  0.12000000000E+03 0.  0.
<mgrwt>
<rscale>  0 0.27473135E+03</rscale>
<asrwt>0</asrwt>
<pdfrwt beam="1">  1        2 0.11761850E+00 0.27473135E+03</pdfrwt>
<pdfrwt beam="2">  1       -2 0.37971182E-02 0.27473135E+03</pdfrwt>
<totfact> 0.11133924E+04</totfact>
</mgrwt>
</event>
<event>
 5    1  0.1111501E+001  0.2748863E+03  0.7818608E-02  0.1098515E+00
          2   -1    0    0  501    0  0.00000000000E+00  0.00000000000E+00  0.14769415305E+04  0.14769415305E+04  0.00000000000E+00 0.  1.
         -2   -1    0    0    0  501 -0.00000000000E+00 -0.00000000000E+00 -0.12790367274E+02  0.12790367274E+02  0.00000000000E+00 0.  1.
         35    2    1    2    0    0  0.00000000000E+00  0.00000000000E+00  0.14641511632E+04  0.14897318978E+04  0.27488633737E+03 0.  0.
         25    1    3    3    0    0 -0.29046226007E+02  0.12218108296E+02  0.10525871489E+04  0.10598738941E+04  0.12000000000E+03 0.  0.
         25    1    3    3    0    0  0.29046226007E+02 -0.12218108296E+02  0.41156401435E+03  0.42985800368E+03  0.12000000000E+03 0.  0.
<mgrwt>
<rscale>  0 0.27488634E+03</rscale>
<asrwt>0</asrwt>
<pdfrwt beam="1">  1        2 0.22722164E+00 0.27488634E+03</pdfrwt>
<pdfrwt beam="2">  1       -2 0.19677500E-02 0.27488634E+03</pdfrwt>
<totfact> 0.11115461E+04</totfact>
</mgrwt>
</event>
<event>
 5    1  0.1111501E+001  0.2753939E+03  0.7818608E-02  0.1098232E+00
         -1   -1    0    0    0  501 -0.00000000000E+00  0.00000000000E+00  0.16256951475E+02  0.16256951475E+02  0.00000000000E+00 0.  1.
          1   -1    0    0  501    0  0.00000000000E+00 -0.00000000000E+00 -0.11662976673E+04  0.11662976673E+04  0.00000000000E+00 0.  1.
         35    2    1    2    0    0  0.00000000000E+00  0.00000000000E+00 -0.11500407158E+04  0.11825546187E+04  0.27539386037E+03 0.  0.
         25    1    3    3    0    0 -0.46031116990E+02  0.48139179157E+02 -0.52716525623E+03  0.54473796607E+03  0.12000000000E+03 0.  0.
         25    1    3    3    0    0  0.46031116990E+02 -0.48139179157E+02 -0.62287545957E+03  0.63781665268E+03  0.12000000000E+03 0.  0.
<mgrwt>
<rscale>  0 0.27539386E+03</rscale>
<asrwt>0</asrwt>
<pdfrwt beam="1">  1        1 0.17943037E+00 0.27539386E+03</pdfrwt>
<pdfrwt beam="2">  1       -1 0.25010700E-02 0.27539386E+03</pdfrwt>
<totfact> 0.59680984E+03</totfact>
</mgrwt>
</event>
<event>
 5    1  0.1111501E+001  0.2723610E+03  0.7818608E-02  0.1099936E+00
         -1   -1    0    0    0  501 -0.00000000000E+00  0.00000000000E+00  0.27063140441E+03  0.27063140441E+03  0.00000000000E+00 0.  1.
          1   -1    0    0  501    0  0.00000000000E+00 -0.00000000000E+00 -0.68525418631E+02  0.68525418631E+02  0.00000000000E+00 0.  1.
         35    2    1    2    0    0  0.00000000000E+00  0.00000000000E+00  0.20210598578E+03  0.33915682305E+03  0.27236101250E+03 0.  0.
         25    1    3    3    0    0 -0.37362905819E+02  0.39045016098E+02  0.57475914148E+02  0.14361051744E+03  0.12000000000E+03 0.  0.
         25    1    3    3    0    0  0.37362905819E+02 -0.39045016098E+02  0.14463007163E+03  0.19554630560E+03  0.12000000000E+03 0.  0.
<mgrwt>
<rscale>  0 0.27236101E+03</rscale>
<asrwt>0</asrwt>
<pdfrwt beam="1">  1        1 0.10542372E-01 0.27236101E+03</pdfrwt>
<pdfrwt beam="2">  1       -1 0.41635600E-01 0.27236101E+03</pdfrwt>
<totfact> 0.34149937E+03</totfact>
</mgrwt>
</event>
<event>
 5    1  0.1111501E+001  0.2746693E+03  0.7818608E-02  0.1098637E+00
         -2   -1    0    0    0  501 -0.00000000000E+00  0.00000000000E+00  0.95746553253E+01  0.95746553253E+01  0.00000000000E+00 0. -1.
          2   -1    0    0  501    0  0.00000000000E+00 -0.00000000000E+00 -0.19698676556E+04  0.19698676556E+04  0.00000000000E+00 0. -1.
         35    2    1    2    0    0  0.00000000000E+00  0.00000000000E+00 -0.19602930003E+04  0.19794423110E+04  0.27466928361E+03 0.  0.
         25    1    3    3    0    0 -0.85813782733E+01 -0.11352726364E+01 -0.14574129174E+04  0.14623704527E+04  0.12000000000E+03 0.  0.
         25    1    3    3    0    0  0.85813782733E+01  0.11352726364E+01 -0.50288008286E+03  0.51707185829E+03  0.12000000000E+03 0.  0.
<mgrwt>
<rscale>  0 0.27466928E+03</rscale>
<asrwt>0</asrwt>
<pdfrwt beam="1">  1        2 0.30305651E+00 0.27466928E+03</pdfrwt>
<pdfrwt beam="2">  1       -2 0.14730242E-02 0.27466928E+03</pdfrwt>
<totfact> 0.93358439E+03</totfact>
</mgrwt>
</event>
<event>
 5    1  0.1111501E+001  0.2751849E+03  0.7818608E-02  0.1098348E+00
         -2   -1    0    0    0  501 -0.00000000000E+00  0.00000000000E+00  0.29454285250E+02  0.29454285250E+02  0.00000000000E+00 0.  1.
          2   -1    0    0  501    0  0.00000000000E+00 -0.00000000000E+00 -0.64274810019E+03  0.64274810019E+03  0.00000000000E+00 0.  1.
         35    2    1    2    0    0  0.00000000000E+00  0.00000000000E+00 -0.61329381494E+03  0.67220238544E+03  0.27518492609E+03 0.  0.
         25    1    3    3    0    0 -0.14262689338E+02  0.41564484602E+02 -0.43121786329E+03  0.44975535162E+03  0.12000000000E+03 0.  0.
         25    1    3    3    0    0  0.14262689338E+02 -0.41564484602E+02 -0.18207595165E+03  0.22244703382E+03  0.12000000000E+03 0.  0.
<mgrwt>
<rscale>  0 0.27518493E+03</rscale>
<asrwt>0</asrwt>
<pdfrwt beam="1">  1        2 0.98884332E-01 0.27518493E+03</pdfrwt>
<pdfrwt beam="2">  1       -2 0.45314281E-02 0.27518493E+03</pdfrwt>
<totfact> 0.10532732E+04</totfact>
</mgrwt>
</event>
<event>
 5    1  0.1111501E+001  0.2747676E+03  0.7818608E-02  0.1098582E+00
         -1   -1    0    0    0  501 -0.00000000000E+00  0.00000000000E+00  0.39664008798E+03  0.39664008798E+03  0.00000000000E+00 0.  1.
          1   -1    0    0  501    0  0.00000000000E+00 -0.00000000000E+00 -0.47585492051E+02  0.47585492051E+02  0.00000000000E+00 0.  1.
         35    2    1    2    0    0  0.00000000000E+00  0.00000000000E+00  0.34905459593E+03  0.44422558003E+03  0.27476763822E+03 0.  0.
         25    1    3    3    0    0 -0.65491765592E+02  0.11313539097E+02  0.16230559395E+03  0.21250946650E+03  0.12000000000E+03 0.  0.
         25    1    3    3    0    0  0.65491765592E+02 -0.11313539097E+02  0.18674900198E+03  0.23171611353E+03  0.12000000000E+03 0.  0.
<mgrwt>
<rscale>  0 0.27476764E+03</rscale>
<asrwt>0</asrwt>
<pdfrwt beam="1">  1        1 0.73208452E-02 0.27476764E+03</pdfrwt>
<pdfrwt beam="2">  1       -1 0.61021550E-01 0.27476764E+03</pdfrwt>
<totfact> 0.27536667E+03</totfact>
</mgrwt>
</event>
<event>
 5    1  0.1111501E+001  0.2855429E+03  0.7818608E-02  0.1092699E+00
         -1   -1    0    0    0  501 -0.00000000000E+00  0.00000000000E+00  0.19283500409E+02  0.19283500409E+02  0.00000000000E+00 0.  1.
          1   -1    0    0  501    0  0.00000000000E+00 -0.00000000000E+00 -0.10570529629E+04  0.10570529629E+04  0.00000000000E+00 0.  1.
         35    2    1    2    0    0  0.00000000000E+00  0.00000000000E+00 -0.10377694625E+04  0.10763364633E+04  0.28554286013E+03 0.  0.
         25    1    3    3    0    0 -0.44172859329E+02 -0.48896565062E+02 -0.67160823472E+03  0.68541938732E+03  0.12000000000E+03 0.  0.
         25    1    3    3    0    0  0.44172859329E+02  0.48896565062E+02 -0.36616122781E+03  0.39091707603E+03  0.12000000000E+03 0.  0.
<mgrwt>
<rscale>  0 0.28554286E+03</rscale>
<asrwt>0</asrwt>
<pdfrwt beam="1">  1        1 0.16262358E+00 0.28554286E+03</pdfrwt>
<pdfrwt beam="2">  1       -1 0.29666915E-02 0.28554286E+03</pdfrwt>
<totfact> 0.55644945E+03</totfact>
</mgrwt>
</event>
<event>
 5    1  0.1111501E+001  0.2739299E+03  0.7818608E-02  0.1099051E+00
          2   -1    0    0  501    0  0.00000000000E+00  0.00000000000E+00  0.13432305600E+03  0.13432305600E+03  0.00000000000E+00 0.  1.
         -2   -1    0    0    0  501 -0.00000000000E+00 -0.00000000000E+00 -0.13965884205E+03  0.13965884205E+03  0.00000000000E+00 0.  1.
         35    2    1    2    0    0  0.00000000000E+00  0.00000000000E+00 -0.53357860486E+01  0.27398189805E+03  0.27392993602E+03 0.  0.
         25    1    3    3    0    0 -0.50077047295E+01  0.63974814711E+02 -0.18212669820E+02  0.13729368291E+03  0.12000000000E+03 0.  0.
         25    1    3    3    0    0  0.50077047295E+01 -0.63974814711E+02  0.12876883772E+02  0.13668821515E+03  0.12000000000E+03 0.  0.
<mgrwt>
<rscale>  0 0.27392994E+03</rscale>
<asrwt>0</asrwt>
<pdfrwt beam="1">  1        2 0.20665085E-01 0.27392994E+03</pdfrwt>
<pdfrwt beam="2">  1       -2 0.21485976E-01 0.27392994E+03</pdfrwt>
<totfact> 0.49286742E+03</totfact>
</mgrwt>
</event>
<event>
 5    1  0.1111501E+001  0.2751738E+03  0.7818608E-02  0.1098354E+00
          1   -1    0    0  501    0  0.00000000000E+00  0.00000000000E+00  0.17453076262E+03  0.17453076262E+03  0.00000000000E+00 0.  1.
         -1   -1    0    0    0  501 -0.00000000000E+00 -0.00000000000E+00 -0.10846312833E+03  0.10846312833E+03  0.00000000000E+00 0.  1.
         35    2    1    2    0    0  0.00000000000E+00  0.00000000000E+00  0.66067634297E+02  0.28299389095E+03  0.27517378148E+03 0.  0.
         25    1    3    3    0    0 -0.48045518546E+02 -0.46135529070E+02  0.23100462214E+02  0.13917790863E+03  0.12000000000E+03 0.  0.
         25    1    3    3    0    0  0.48045518546E+02  0.46135529070E+02  0.42967172082E+02  0.14381598232E+03  0.12000000000E+03 0.  0.
<mgrwt>
<rscale>  0 0.27517378E+03</rscale>
<asrwt>0</asrwt>
<pdfrwt beam="1">  1        1 0.26850887E-01 0.27517378E+03</pdfrwt>
<pdfrwt beam="2">  1       -1 0.16686635E-01 0.27517378E+03</pdfrwt>
<totfact> 0.46950705E+03</totfact>
</mgrwt>
</event>
<event>
 5    1  0.1111501E+001  0.2741510E+03  0.7818608E-02  0.1098927E+00
          2   -1    0    0  501    0  0.00000000000E+00  0.00000000000E+00  0.19442447630E+03  0.19442447630E+03  0.00000000000E+00 0. -1.
         -2   -1    0    0    0  501 -0.00000000000E+00 -0.00000000000E+00 -0.96642617180E+02  0.96642617180E+02  0.00000000000E+00 0. -1.
         35    2    1    2    0    0  0.00000000000E+00  0.00000000000E+00  0.97781859125E+02  0.29106709348E+03  0.27415098201E+03 0.  0.
         25    1    3    3    0    0  0.21230664437E+02 -0.60290851656E+02  0.67401217921E+02  0.15175194260E+03  0.12000000000E+03 0.  0.
         25    1    3    3    0    0 -0.21230664437E+02  0.60290851656E+02  0.30380641203E+02  0.13931515088E+03  0.12000000000E+03 0.  0.
<mgrwt>
<rscale>  0 0.27415098E+03</rscale>
<asrwt>0</asrwt>
<pdfrwt beam="1">  1        2 0.29911458E-01 0.27415098E+03</pdfrwt>
<pdfrwt beam="2">  1       -2 0.14868095E-01 0.27415098E+03</pdfrwt>
<totfact> 0.60653726E+03</totfact>
</mgrwt>
</event>
<event>
 5    1  0.1111501E+001  0.2776204E+03  0.7818608E-02  0.1096996E+00
         -1   -1    0    0    0  501 -0.00000000000E+00  0.00000000000E+00  0.12419231549E+03  0.12419231549E+03  0.00000000000E+00 0.  1.
          1   -1    0    0  501    0  0.00000000000E+00 -0.00000000000E+00 -0.15514867746E+03  0.15514867746E+03  0.00000000000E+00 0.  1.
         35    2    1    2    0    0  0.00000000000E+00  0.00000000000E+00 -0.30956361974E+02  0.27934099295E+03  0.27762041351E+03 0.  0.
         25    1    3    3    0    0  0.16051831036E+02  0.58251613115E+02 -0.50585131637E+02  0.14356102275E+03  0.12000000000E+03 0.  0.
         25    1    3    3    0    0 -0.16051831036E+02 -0.58251613115E+02  0.19628769663E+02  0.13577997020E+03  0.12000000000E+03 0.  0.
<mgrwt>
<rscale>  0 0.27762041E+03</rscale>
<asrwt>0</asrwt>
<pdfrwt beam="1">  1        1 0.23869027E-01 0.27762041E+03</pdfrwt>
<pdfrwt beam="2">  1       -1 0.19106510E-01 0.27762041E+03</pdfrwt>
<totfact> 0.43869103E+03</totfact>
</mgrwt>
</event>
<event>
 5    1  0.1111501E+001  0.2736088E+03  0.7818608E-02  0.1099232E+00
          2   -1    0    0  501    0  0.00000000000E+00  0.00000000000E+00  0.21553172704E+04  0.21553172704E+04  0.00000000000E+00 0.  1.
         -2   -1    0    0    0  501 -0.00000000000E+00 -0.00000000000E+00 -0.86833851531E+01  0.86833851531E+01  0.00000000000E+00 0.  1.
         35    2    1    2    0    0  0.00000000000E+00  0.00000000000E+00  0.21466338852E+04  0.21640006555E+04  0.27360884478E+03 0.  0.
         25    1    3    3    0    0 -0.45585175993E+01 -0.49929083966E+02  0.73759842130E+03  0.74897605076E+03  0.12000000000E+03 0.  0.
         25    1    3    3    0    0  0.45585175993E+01  0.49929083966E+02  0.14090354639E+04  0.14150246048E+04  0.12000000000E+03 0.  0.
<mgrwt>
<rscale>  0 0.27360884E+03</rscale>
<asrwt>0</asrwt>
<pdfrwt beam="1">  1        2 0.33158685E+00 0.27360884E+03</pdfrwt>
<pdfrwt beam="2">  1       -2 0.13359071E-02 0.27360884E+03</pdfrwt>
<totfact> 0.85959352E+03</totfact>
</mgrwt>
</event>
<event>
 5    1  0.1111501E+001  0.2744582E+03  0.7818608E-02  0.1098755E+00
         -2   -1    0    0    0  501 -0.00000000000E+00  0.00000000000E+00  0.53384410342E+02  0.53384410342E+02  0.00000000000E+00 0. -1.
          2   -1    0    0  501    0  0.00000000000E+00 -0.00000000000E+00 -0.35275902739E+03  0.35275902739E+03  0.00000000000E+00 0. -1.
         35    2    1    2    0    0  0.00000000000E+00  0.00000000000E+00 -0.29937461705E+03  0.40614343773E+03  0.27445824943E+03 0.  0.
         25    1    3    3    0    0 -0.93909089171E+01  0.12240922247E+02 -0.24551856476E+03  0.27371042177E+03  0.12000000000E+03 0.  0.
         25    1    3    3    0    0  0.93909089171E+01 -0.12240922247E+02 -0.53856052293E+02  0.13243301596E+03  0.12000000000E+03 0.  0.
<mgrwt>
<rscale>  0 0.27445825E+03</rscale>
<asrwt>0</asrwt>
<pdfrwt beam="1">  1        2 0.54270621E-01 0.27445825E+03</pdfrwt>
<pdfrwt beam="2">  1       -2 0.82129859E-02 0.27445825E+03</pdfrwt>
<totfact> 0.82525583E+03</totfact>
</mgrwt>
</event>
<event>
 5    1  0.1111501E+001  0.2728723E+03  0.7818608E-02  0.1099647E+00
          2   -1    0    0  501    0  0.00000000000E+00  0.00000000000E+00  0.52326362237E+03  0.52326362237E+03  0.00000000000E+00 0. -1.
         -2   -1    0    0    0  501 -0.00000000000E+00 -0.00000000000E+00 -0.35574454048E+02  0.35574454048E+02  0.00000000000E+00 0. -1.
         35    2    1    2    0    0  0.00000000000E+00  0.00000000000E+00  0.48768916832E+03  0.55883807642E+03  0.27287226088E+03 0.  0.
         25    1    3    3    0    0  0.84562568855E+01  0.51996005494E+02  0.32155269409E+03  0.34723367916E+03  0.12000000000E+03 0.  0.
         25    1    3    3    0    0 -0.84562568855E+01 -0.51996005494E+02  0.16613647423E+03  0.21160439726E+03  0.12000000000E+03 0.  0.
<mgrwt>
<rscale>  0 0.27287226E+03</rscale>
<asrwt>0</asrwt>
<pdfrwt beam="1">  1        2 0.80502090E-01 0.27287226E+03</pdfrwt>
<pdfrwt beam="2">  1       -2 0.54729933E-02 0.27287226E+03</pdfrwt>
<totfact> 0.10018905E+04</totfact>
</mgrwt>
</event>
<event>
 5    1  0.1111501E+001  0.2773050E+03  0.7818608E-02  0.1097170E+00
         -2   -1    0    0    0  501 -0.00000000000E+00  0.00000000000E+00  0.69390911924E+02  0.69390911924E+02  0.00000000000E+00 0. -1.
          2   -1    0    0  501    0  0.00000000000E+00 -0.00000000000E+00 -0.27704655630E+03  0.27704655630E+03  0.00000000000E+00 0. -1.
         35    2    1    2    0    0  0.00000000000E+00  0.00000000000E+00 -0.20765564437E+03  0.34643746822E+03  0.27730498147E+03 0.  0.
         25    1    3    3    0    0 -0.45690504580E+02  0.54584691125E+01 -0.38826974425E+02  0.13425703347E+03  0.12000000000E+03 0.  0.
         25    1    3    3    0    0  0.45690504580E+02 -0.54584691125E+01 -0.16882866995E+03  0.21218043475E+03  0.12000000000E+03 0.  0.
<mgrwt>
<rscale>  0 0.27730498E+03</rscale>
<asrwt>0</asrwt>
<pdfrwt beam="1">  1        2 0.42622547E-01 0.27730498E+03</pdfrwt>
<pdfrwt beam="2">  1       -2 0.10675525E-01 0.27730498E+03</pdfrwt>
<totfact> 0.70734176E+03</totfact>
</mgrwt>
</event>
<event>
 5    1  0.1111501E+001  0.2752983E+03  0.7818608E-02  0.1098285E+00
         -1   -1    0    0    0  501 -0.00000000000E+00  0.00000000000E+00  0.14682446210E+02  0.14682446210E+02  0.00000000000E+00 0. -1.
          1   -1    0    0  501    0  0.00000000000E+00 -0.00000000000E+00 -0.12904722015E+04  0.12904722015E+04  0.00000000000E+00 0. -1.
         35    2    1    2    0    0  0.00000000000E+00  0.00000000000E+00 -0.12757897553E+04  0.13051546477E+04  0.27529830136E+03 0.  0.
         25    1    3    3    0    0 -0.27385913833E+02  0.41011506369E+02 -0.85594194654E+03  0.86571851533E+03  0.12000000000E+03 0.  0.
         25    1    3    3    0    0  0.27385913833E+02 -0.41011506369E+02 -0.41984780872E+03  0.43943613235E+03  0.12000000000E+03 0.  0.
<mgrwt>
<rscale>  0 0.27529830E+03</rscale>
<asrwt>0</asrwt>
<pdfrwt beam="1">  1        1 0.19853415E+00 0.27529830E+03</pdfrwt>
<pdfrwt beam="2">  1       -1 0.22588382E-02 0.27529830E+03</pdfrwt>
<totfact> 0.56813350E+03</totfact>
</mgrwt>
</event>
<event>
 5    1  0.1111501E+001  0.2747950E+03  0.7818608E-02  0.1098566E+00
          1   -1    0    0  501    0  0.00000000000E+00  0.00000000000E+00  0.24718138214E+02  0.24718138214E+02  0.00000000000E+00 0.  1.
         -1   -1    0    0    0  501 -0.00000000000E+00 -0.00000000000E+00 -0.76373345880E+03  0.76373345880E+03  0.00000000000E+00 0.  1.
         35    2    1    2    0    0  0.00000000000E+00  0.00000000000E+00 -0.73901532059E+03  0.78845159702E+03  0.27479497225E+03 0.  0.
         25    1    3    3    0    0 -0.53587130632E+02 -0.36630839850E+02 -0.32282895794E+03  0.35047387218E+03  0.12000000000E+03 0.  0.
         25    1    3    3    0    0  0.53587130632E+02  0.36630839850E+02 -0.41618636265E+03  0.43797772484E+03  0.12000000000E+03 0.  0.
<mgrwt>
<rscale>  0 0.27479497E+03</rscale>
<asrwt>0</asrwt>
<pdfrwt beam="1">  1        1 0.38027909E-02 0.27479497E+03</pdfrwt>
<pdfrwt beam="2">  1       -1 0.11749744E+00 0.27479497E+03</pdfrwt>
<totfact> 0.16962976E+03</totfact>
</mgrwt>
</event>
<event>
 5    1  0.1111501E+001  0.2761110E+03  0.7818608E-02  0.1097832E+00
          1   -1    0    0  501    0  0.00000000000E+00  0.00000000000E+00  0.10347865975E+03  0.10347865975E+03  0.00000000000E+00 0.  1.
         -1   -1    0    0    0  501 -0.00000000000E+00 -0.00000000000E+00 -0.18418594392E+03  0.18418594392E+03  0.00000000000E+00 0.  1.
         35    2    1    2    0    0  0.00000000000E+00  0.00000000000E+00 -0.80707284172E+02  0.28766460367E+03  0.27611095322E+03 0.  0.
         25    1    3    3    0    0  0.54295591505E+02 -0.10982964899E+02 -0.81905831072E+02  0.15549019885E+03  0.12000000000E+03 0.  0.
         25    1    3    3    0    0 -0.54295591505E+02  0.10982964899E+02  0.11985468995E+01  0.13217440482E+03  0.12000000000E+03 0.  0.
<mgrwt>
<rscale>  0 0.27611095E+03</rscale>
<asrwt>0</asrwt>
<pdfrwt beam="1">  1        1 0.15919794E-01 0.27611095E+03</pdfrwt>
<pdfrwt beam="2">  1       -1 0.28336299E-01 0.27611095E+03</pdfrwt>
<totfact> 0.38591522E+03</totfact>
</mgrwt>
</event>
<event>
 5    1  0.1111501E+001  0.2750465E+03  0.7818608E-02  0.1098426E+00
         -1   -1    0    0    0  501 -0.00000000000E+00  0.00000000000E+00  0.38204067633E+02  0.38204067633E+02  0.00000000000E+00 0. -1.
          1   -1    0    0  501    0  0.00000000000E+00 -0.00000000000E+00 -0.49504259572E+03  0.49504259572E+03  0.00000000000E+00 0. -1.
         35    2    1    2    0    0  0.00000000000E+00  0.00000000000E+00 -0.45683852809E+03  0.53324666336E+03  0.27504647468E+03 0.  0.
         25    1    3    3    0    0 -0.17298705779E+02  0.55273860616E+02 -0.16243914740E+03  0.21009740955E+03  0.12000000000E+03 0.  0.
         25    1    3    3    0    0  0.17298705779E+02 -0.55273860616E+02 -0.29439938069E+03  0.32314925381E+03  0.12000000000E+03 0.  0.
<mgrwt>
<rscale>  0 0.27504647E+03</rscale>
<asrwt>0</asrwt>
<pdfrwt beam="1">  1        1 0.76160393E-01 0.27504647E+03</pdfrwt>
<pdfrwt beam="2">  1       -1 0.58775493E-02 0.27504647E+03</pdfrwt>
<totfact> 0.62785486E+03</totfact>
</mgrwt>
</event>
<event>
 5    1  0.1111501E+001  0.2755830E+03  0.7818608E-02  0.1098126E+00
          1   -1    0    0  501    0  0.00000000000E+00  0.00000000000E+00  0.38838552592E+03  0.38838552592E+03  0.00000000000E+00 0. -1.
         -1   -1    0    0    0  501 -0.00000000000E+00 -0.00000000000E+00 -0.48885709545E+02  0.48885709545E+02  0.00000000000E+00 0. -1.
         35    2    1    2    0    0  0.00000000000E+00  0.00000000000E+00  0.33949981637E+03  0.43727123546E+03  0.27558303294E+03 0.  0.
         25    1    3    3    0    0 -0.45517908096E+02  0.41543722702E+02  0.21431201200E+03  0.25323388268E+03  0.12000000000E+03 0.  0.
         25    1    3    3    0    0  0.45517908096E+02 -0.41543722702E+02  0.12518780438E+03  0.18403735278E+03  0.12000000000E+03 0.  0.
<mgrwt>
<rscale>  0 0.27558303E+03</rscale>
<asrwt>0</asrwt>
<pdfrwt beam="1">  1        1 0.59751617E-01 0.27558303E+03</pdfrwt>
<pdfrwt beam="2">  1       -1 0.75208786E-02 0.27558303E+03</pdfrwt>
<totfact> 0.59244915E+03</totfact>
</mgrwt>
</event>
<event>
 5    1  0.1111501E+001  0.2754460E+03  0.7818608E-02  0.1098203E+00
          4   -1    0    0  501    0  0.00000000000E+00  0.00000000000E+00  0.39570394281E+02  0.39570394281E+02  0.00000000000E+00 0.  1.
         -4   -1    0    0    0  501 -0.00000000000E+00 -0.00000000000E+00 -0.47933894331E+03  0.47933894331E+03  0.00000000000E+00 0.  1.
         35    2    1    2    0    0  0.00000000000E+00  0.00000000000E+00 -0.43976854903E+03  0.51890933759E+03  0.27544604540E+03 0.  0.
         25    1    3    3    0    0 -0.41271474852E+02  0.20558684460E+02 -0.31297265582E+03  0.33834579565E+03  0.12000000000E+03 0.  0.
         25    1    3    3    0    0  0.41271474852E+02 -0.20558684460E+02 -0.12679589320E+03  0.18056354194E+03  0.12000000000E+03 0.  0.
<mgrwt>
<rscale>  0 0.27544605E+03</rscale>
<asrwt>0</asrwt>
<pdfrwt beam="1">  1        4 0.60877528E-02 0.27544605E+03</pdfrwt>
<pdfrwt beam="2">  1       -4 0.73744454E-01 0.27544605E+03</pdfrwt>
<totfact> 0.55255501E+02</totfact>
</mgrwt>
</event>
<event>
 5    1  0.1111501E+001  0.2726448E+03  0.7818608E-02  0.1099775E+00
          1   -1    0    0  501    0  0.00000000000E+00  0.00000000000E+00  0.11425953130E+04  0.11425953130E+04  0.00000000000E+00 0.  1.
         -1   -1    0    0    0  501 -0.00000000000E+00 -0.00000000000E+00 -0.16264547497E+02  0.16264547497E+02  0.00000000000E+00 0.  1.
         35    2    1    2    0    0  0.00000000000E+00  0.00000000000E+00  0.11263307655E+04  0.11588598605E+04  0.27264479264E+03 0.  0.
         25    1    3    3    0    0 -0.63338741898E+01  0.44990352847E+02  0.75884929781E+03  0.76962101491E+03  0.12000000000E+03 0.  0.
         25    1    3    3    0    0  0.63338741898E+01 -0.44990352847E+02  0.36748146767E+03  0.38923884556E+03  0.12000000000E+03 0.  0.
<mgrwt>
<rscale>  0 0.27264479E+03</rscale>
<asrwt>0</asrwt>
<pdfrwt beam="1">  1        1 0.17578383E+00 0.27264479E+03</pdfrwt>
<pdfrwt beam="2">  1       -1 0.25022390E-02 0.27264479E+03</pdfrwt>
<totfact> 0.61980631E+03</totfact>
</mgrwt>
</event>
<event>
 5    1  0.1111501E+001  0.2758923E+03  0.7818608E-02  0.1097954E+00
          1   -1    0    0  501    0  0.00000000000E+00  0.00000000000E+00  0.11978068256E+04  0.11978068256E+04  0.00000000000E+00 0.  1.
         -1   -1    0    0    0  501 -0.00000000000E+00 -0.00000000000E+00 -0.15886656774E+02  0.15886656774E+02  0.00000000000E+00 0.  1.
         35    2    1    2    0    0  0.00000000000E+00  0.00000000000E+00  0.11819201688E+04  0.12136934824E+04  0.27589234074E+03 0.  0.
         25    1    3    3    0    0  0.21708725247E+02 -0.63733268776E+02  0.63405107503E+03  0.64880965162E+03  0.12000000000E+03 0.  0.
         25    1    3    3    0    0 -0.21708725247E+02  0.63733268776E+02  0.54786909381E+03  0.56488383076E+03  0.12000000000E+03 0.  0.
<mgrwt>
<rscale>  0 0.27589234E+03</rscale>
<asrwt>0</asrwt>
<pdfrwt beam="1">  1        1 0.18427790E+00 0.27589234E+03</pdfrwt>
<pdfrwt beam="2">  1       -1 0.24441020E-02 0.27589234E+03</pdfrwt>
<totfact> 0.58666511E+03</totfact>
</mgrwt>
</event>
<event>
 5    1  0.1111501E+001  0.2752767E+03  0.7818608E-02  0.1098297E+00
          2   -1    0    0  501    0  0.00000000000E+00  0.00000000000E+00  0.48779832663E+03  0.48779832663E+03  0.00000000000E+00 0. -1.
         -2   -1    0    0    0  501 -0.00000000000E+00 -0.00000000000E+00 -0.38836365063E+02  0.38836365063E+02  0.00000000000E+00 0. -1.
         35    2    1    2    0    0  0.00000000000E+00  0.00000000000E+00  0.44896196157E+03  0.52663469170E+03  0.27527668910E+03 0.  0.
         25    1    3    3    0    0 -0.57386193102E+02 -0.56926982091E+01  0.29126831684E+03  0.32025429641E+03  0.12000000000E+03 0.  0.
         25    1    3    3    0    0  0.57386193102E+02  0.56926982091E+01  0.15769364473E+03  0.20638039529E+03  0.12000000000E+03 0.  0.
<mgrwt>
<rscale>  0 0.27527669E+03</rscale>
<asrwt>0</asrwt>
<pdfrwt beam="1">  1        2 0.75045892E-01 0.27527669E+03</pdfrwt>
<pdfrwt beam="2">  1       -2 0.59748257E-02 0.27527669E+03</pdfrwt>
<totfact> 0.94806186E+03</totfact>
</mgrwt>
</event>
<event>
 5    1  0.1111501E+001  0.2743871E+03  0.7818608E-02  0.1098795E+00
         -1   -1    0    0    0  501 -0.00000000000E+00  0.00000000000E+00  0.58699822991E+02  0.58699822991E+02  0.00000000000E+00 0.  1.
          1   -1    0    0  501    0  0.00000000000E+00 -0.00000000000E+00 -0.32064944741E+03  0.32064944741E+03  0.00000000000E+00 0.  1.
         35    2    1    2    0    0  0.00000000000E+00  0.00000000000E+00 -0.26194962441E+03  0.37934927040E+03  0.27438706824E+03 0.  0.
         25    1    3    3    0    0  0.44188953415E+02  0.27094318467E+02 -0.18856691167E+03  0.22944333914E+03  0.12000000000E+03 0.  0.
         25    1    3    3    0    0 -0.44188953415E+02 -0.27094318467E+02 -0.73382712739E+02  0.14990593126E+03  0.12000000000E+03 0.  0.
<mgrwt>
<rscale>  0 0.27438707E+03</rscale>
<asrwt>0</asrwt>
<pdfrwt beam="1">  1        1 0.49330685E-01 0.27438707E+03</pdfrwt>
<pdfrwt beam="2">  1       -1 0.90307419E-02 0.27438707E+03</pdfrwt>
<totfact> 0.57106498E+03</totfact>
</mgrwt>
</event>
<event>
 5    1  0.1111501E+001  0.2735284E+03  0.7818608E-02  0.1099277E+00
         -2   -1    0    0    0  501 -0.00000000000E+00  0.00000000000E+00  0.25869371908E+02  0.25869371908E+02  0.00000000000E+00 0.  1.
          2   -1    0    0  501    0  0.00000000000E+00 -0.00000000000E+00 -0.72303459398E+03  0.72303459398E+03  0.00000000000E+00 0.  1.
         35    2    1    2    0    0  0.00000000000E+00  0.00000000000E+00 -0.69716522207E+03  0.74890396589E+03  0.27352843226E+03 0.  0.
         25    1    3    3    0    0 -0.88557961441E+01 -0.15034002261E+02 -0.17542009312E+03  0.21325256252E+03  0.12000000000E+03 0.  0.
         25    1    3    3    0    0  0.88557961441E+01  0.15034002261E+02 -0.52174512895E+03  0.53565140337E+03  0.12000000000E+03 0.  0.
<mgrwt>
<rscale>  0 0.27352843E+03</rscale>
<asrwt>0</asrwt>
<pdfrwt beam="1">  1        2 0.11123609E+00 0.27352843E+03</pdfrwt>
<pdfrwt beam="2">  1       -2 0.39799034E-02 0.27352843E+03</pdfrwt>
<totfact> 0.11114974E+04</totfact>
</mgrwt>
</event>
<event>
 5    1  0.1111501E+001  0.2757582E+03  0.7818608E-02  0.1098029E+00
         -1   -1    0    0    0  501 -0.00000000000E+00  0.00000000000E+00  0.63161333697E+02  0.63161333697E+02  0.00000000000E+00 0.  1.
          1   -1    0    0  501    0  0.00000000000E+00 -0.00000000000E+00 -0.30098544480E+03  0.30098544480E+03  0.00000000000E+00 0.  1.
         35    2    1    2    0    0  0.00000000000E+00  0.00000000000E+00 -0.23782411110E+03  0.36414677850E+03  0.27575817027E+03 0.  0.
         25    1    3    3    0    0 -0.78727568946E+01  0.61395221293E+02 -0.15577561355E+03  0.20614896380E+03  0.12000000000E+03 0.  0.
         25    1    3    3    0    0  0.78727568946E+01 -0.61395221293E+02 -0.82048497550E+02  0.15799781470E+03  0.12000000000E+03 0.  0.
<mgrwt>
<rscale>  0 0.27575817E+03</rscale>
<asrwt>0</asrwt>
<pdfrwt beam="1">  1        1 0.46305453E-01 0.27575817E+03</pdfrwt>
<pdfrwt beam="2">  1       -1 0.97171283E-02 0.27575817E+03</pdfrwt>
<totfact> 0.55255829E+03</totfact>
</mgrwt>
</event>
<event>
 4    1  0.1111501E+001  0.2912427E+03  0.7818608E-02  0.1089702E+00
          2   -1    0    0  501    0  0.00000000000E+00  0.00000000000E+00  0.18513840652E+03  0.18513840652E+03  0.00000000000E+00 0. -1.
         -2   -1    0    0    0  501 -0.00000000000E+00 -0.00000000000E+00 -0.11453903031E+03  0.11453903031E+03  0.00000000000E+00 0. -1.
         25    1    1    2    0    0  0.30699474706E+02  0.46460793311E+02  0.97927098285E+02  0.16459276910E+03  0.12000000000E+03 0.  0.
         25    1    1    2    0    0 -0.30699474706E+02 -0.46460793311E+02 -0.27327722074E+02  0.13508466773E+03  0.12000000000E+03 0.  0.
<mgrwt>
<rscale>  0 0.29124267E+03</rscale>
<asrwt>0</asrwt>
<pdfrwt beam="1">  1        2 0.28482832E-01 0.29124267E+03</pdfrwt>
<pdfrwt beam="2">  1       -2 0.17621389E-01 0.29124267E+03</pdfrwt>
<totfact> 0.48316671E+03</totfact>
</mgrwt>
</event>
<event>
 5    1  0.1111501E+001  0.2748929E+03  0.7818608E-02  0.1098511E+00
          2   -1    0    0  501    0  0.00000000000E+00  0.00000000000E+00  0.64482969010E+02  0.64482969010E+02  0.00000000000E+00 0.  1.
         -2   -1    0    0    0  501 -0.00000000000E+00 -0.00000000000E+00 -0.29296930089E+03  0.29296930089E+03  0.00000000000E+00 0.  1.
         35    2    1    2    0    0  0.00000000000E+00  0.00000000000E+00 -0.22848633188E+03  0.35745226990E+03  0.27489292715E+03 0.  0.
         25    1    3    3    0    0 -0.69417841918E+01 -0.36013895371E+02 -0.18718176382E+03  0.22534906642E+03  0.12000000000E+03 0.  0.
         25    1    3    3    0    0  0.69417841918E+01  0.36013895371E+02 -0.41304568057E+02  0.13210320348E+03  0.12000000000E+03 0.  0.
<mgrwt>
<rscale>  0 0.27489293E+03</rscale>
<asrwt>0</asrwt>
<pdfrwt beam="1">  1        2 0.99204569E-02 0.27489293E+03</pdfrwt>
<pdfrwt beam="2">  1       -2 0.45072200E-01 0.27489293E+03</pdfrwt>
<totfact> 0.30439564E+03</totfact>
</mgrwt>
</event>
<event>
 5    1  0.1111501E+001  0.2751060E+03  0.7818608E-02  0.1098392E+00
         -2   -1    0    0    0  501 -0.00000000000E+00  0.00000000000E+00  0.17913806413E+02  0.17913806413E+02  0.00000000000E+00 0. -1.
          2   -1    0    0  501    0  0.00000000000E+00 -0.00000000000E+00 -0.10562148359E+04  0.10562148359E+04  0.00000000000E+00 0. -1.
         35    2    1    2    0    0  0.00000000000E+00  0.00000000000E+00 -0.10383010295E+04  0.10741286423E+04  0.27510600212E+03 0.  0.
         25    1    3    3    0    0 -0.53231884426E+02  0.41034686640E+02 -0.52629578268E+03  0.54397125833E+03  0.12000000000E+03 0.  0.
         25    1    3    3    0    0  0.53231884426E+02 -0.41034686640E+02 -0.51200524677E+03  0.53015738395E+03  0.12000000000E+03 0.  0.
<mgrwt>
<rscale>  0 0.27510600E+03</rscale>
<asrwt>0</asrwt>
<pdfrwt beam="1">  1        2 0.16249456E+00 0.27510600E+03</pdfrwt>
<pdfrwt beam="2">  1       -2 0.27559707E-02 0.27510600E+03</pdfrwt>
<totfact> 0.11639025E+04</totfact>
</mgrwt>
</event>
<event>
 5    1  0.1111501E+001  0.2759089E+03  0.7818608E-02  0.1097945E+00
          2   -1    0    0  501    0  0.00000000000E+00  0.00000000000E+00  0.99640886097E+03  0.99640886097E+03  0.00000000000E+00 0.  1.
         -2   -1    0    0    0  501 -0.00000000000E+00 -0.00000000000E+00 -0.19100016440E+02  0.19100016440E+02  0.00000000000E+00 0.  1.
         35    2    1    2    0    0  0.00000000000E+00  0.00000000000E+00  0.97730884453E+03  0.10155088774E+04  0.27590886630E+03 0.  0.
         25    1    3    3    0    0  0.18761343790E+02 -0.48949389098E+01  0.72875444459E+03  0.73882270468E+03  0.12000000000E+03 0.  0.
         25    1    3    3    0    0 -0.18761343790E+02  0.48949389098E+01  0.24855439994E+03  0.27668617272E+03  0.12000000000E+03 0.  0.
<mgrwt>
<rscale>  0 0.27590887E+03</rscale>
<asrwt>0</asrwt>
<pdfrwt beam="1">  1        2 0.15329363E+00 0.27590887E+03</pdfrwt>
<pdfrwt beam="2">  1       -2 0.29384649E-02 0.27590887E+03</pdfrwt>
<totfact> 0.11502490E+04</totfact>
</mgrwt>
</event>
<event>
 5    1  0.1111501E+001  0.2756865E+03  0.7818608E-02  0.1098068E+00
         -1   -1    0    0    0  501 -0.00000000000E+00  0.00000000000E+00  0.18134705076E+02  0.18134705076E+02  0.00000000000E+00 0.  1.
          1   -1    0    0  501    0  0.00000000000E+00 -0.00000000000E+00 -0.10477566275E+04  0.10477566275E+04  0.00000000000E+00 0.  1.
         35    2    1    2    0    0  0.00000000000E+00  0.00000000000E+00 -0.10296219224E+04  0.10658913326E+04  0.27568646997E+03 0.  0.
         25    1    3    3    0    0 -0.60406044534E+02 -0.28548664505E+02 -0.56003877033E+03  0.57663449492E+03  0.12000000000E+03 0.  0.
         25    1    3    3    0    0  0.60406044534E+02  0.28548664505E+02 -0.46958315209E+03  0.48925683765E+03  0.12000000000E+03 0.  0.
<mgrwt>
<rscale>  0 0.27568647E+03</rscale>
<asrwt>0</asrwt>
<pdfrwt beam="1">  1        1 0.16119339E+00 0.27568647E+03</pdfrwt>
<pdfrwt beam="2">  1       -1 0.27899535E-02 0.27568647E+03</pdfrwt>
<totfact> 0.61846035E+03</totfact>
</mgrwt>
</event>
<event>
 5    1  0.1111501E+001  0.2749469E+03  0.7818608E-02  0.1098481E+00
          2   -1    0    0  501    0  0.00000000000E+00  0.00000000000E+00  0.19690090510E+03  0.19690090510E+03  0.00000000000E+00 0.  1.
         -2   -1    0    0    0  501 -0.00000000000E+00 -0.00000000000E+00 -0.95982034500E+02  0.95982034500E+02  0.00000000000E+00 0.  1.
         35    2    1    2    0    0  0.00000000000E+00  0.00000000000E+00  0.10091887060E+03  0.29288293960E+03  0.27494690009E+03 0.  0.
         25    1    3    3    0    0  0.48866364337E+02 -0.19169934280E+02  0.59797818846E+01  0.13111508584E+03  0.12000000000E+03 0.  0.
         25    1    3    3    0    0 -0.48866364337E+02  0.19169934280E+02  0.94939088717E+02  0.16176785376E+03  0.12000000000E+03 0.  0.
<mgrwt>
<rscale>  0 0.27494690E+03</rscale>
<asrwt>0</asrwt>
<pdfrwt beam="1">  1        2 0.30292447E-01 0.27494690E+03</pdfrwt>
<pdfrwt beam="2">  1       -2 0.14766467E-01 0.27494690E+03</pdfrwt>
<totfact> 0.60504425E+03</totfact>
</mgrwt>
</event>
<event>
 5    1  0.1111501E+001  0.2748332E+03  0.7818608E-02  0.1098545E+00
         -3   -1    0    0    0  501 -0.00000000000E+00  0.00000000000E+00  0.50875258668E+03  0.50875258668E+03  0.00000000000E+00 0.  1.
          3   -1    0    0  501    0  0.00000000000E+00 -0.00000000000E+00 -0.37116908665E+02  0.37116908665E+02  0.00000000000E+00 0.  1.
         35    2    1    2    0    0  0.00000000000E+00  0.00000000000E+00  0.47163567802E+03  0.54586949535E+03  0.27483320973E+03 0.  0.
         25    1    3    3    0    0 -0.28923455863E+02  0.58812191821E+02  0.20859311665E+03  0.24941236642E+03  0.12000000000E+03 0.  0.
         25    1    3    3    0    0  0.28923455863E+02 -0.58812191821E+02  0.26304256136E+03  0.29645712893E+03  0.12000000000E+03 0.  0.
<mgrwt>
<rscale>  0 0.27483321E+03</rscale>
<asrwt>0</asrwt>
<pdfrwt beam="1">  1        3 0.57102940E-02 0.27483321E+03</pdfrwt>
<pdfrwt beam="2">  1       -3 0.78269624E-01 0.27483321E+03</pdfrwt>
<totfact> 0.73208803E+02</totfact>
</mgrwt>
</event>
<event>
 5    1  0.1111501E+001  0.2750978E+03  0.7818608E-02  0.1098397E+00
         -1   -1    0    0    0  501 -0.00000000000E+00  0.00000000000E+00  0.27423037783E+02  0.27423037783E+02  0.00000000000E+00 0.  1.
          1   -1    0    0  501    0  0.00000000000E+00 -0.00000000000E+00 -0.68991997303E+03  0.68991997303E+03  0.00000000000E+00 0.  1.
         35    2    1    2    0    0  0.00000000000E+00  0.00000000000E+00 -0.66249693525E+03  0.71734301082E+03  0.27509781161E+03 0.  0.
         25    1    3    3    0    0  0.50779284880E+02  0.40734174134E+02 -0.37502906732E+03  0.39910476075E+03  0.12000000000E+03 0.  0.
         25    1    3    3    0    0 -0.50779284880E+02 -0.40734174134E+02 -0.28746786793E+03  0.31823825007E+03  0.12000000000E+03 0.  0.
<mgrwt>
<rscale>  0 0.27509781E+03</rscale>
<asrwt>0</asrwt>
<pdfrwt beam="1">  1        1 0.10614153E+00 0.27509781E+03</pdfrwt>
<pdfrwt beam="2">  1       -1 0.42189290E-02 0.27509781E+03</pdfrwt>
<totfact> 0.65212172E+03</totfact>
</mgrwt>
</event>
<event>
 5    1  0.1111501E+001  0.2716952E+03  0.7818608E-02  0.1100313E+00
          1   -1    0    0  501    0  0.00000000000E+00  0.00000000000E+00  0.42370465191E+03  0.42370465191E+03  0.00000000000E+00 0. -1.
         -1   -1    0    0    0  501 -0.00000000000E+00 -0.00000000000E+00 -0.43555283995E+02  0.43555283995E+02  0.00000000000E+00 0. -1.
         35    2    1    2    0    0  0.00000000000E+00  0.00000000000E+00  0.38014936791E+03  0.46725993590E+03  0.27169524430E+03 0.  0.
         25    1    3    3    0    0  0.67611487932E+00  0.54115323591E+02  0.13237434004E+03  0.18668661248E+03  0.12000000000E+03 0.  0.
         25    1    3    3    0    0 -0.67611487932E+00 -0.54115323591E+02  0.24777502787E+03  0.28057332342E+03  0.12000000000E+03 0.  0.
<mgrwt>
<rscale>  0 0.27169524E+03</rscale>
<asrwt>0</asrwt>
<pdfrwt beam="1">  1        1 0.65185328E-01 0.27169524E+03</pdfrwt>
<pdfrwt beam="2">  1       -1 0.67008132E-02 0.27169524E+03</pdfrwt>
<totfact> 0.63102244E+03</totfact>
</mgrwt>
</event>
<event>
 5    1  0.1111501E+001  0.2760521E+03  0.7818608E-02  0.1097865E+00
         -2   -1    0    0    0  501 -0.00000000000E+00  0.00000000000E+00  0.56308151008E+01  0.56308151008E+01  0.00000000000E+00 0. -1.
          2   -1    0    0  501    0  0.00000000000E+00 -0.00000000000E+00 -0.33833813731E+04  0.33833813731E+04  0.00000000000E+00 0. -1.
         35    2    1    2    0    0  0.00000000000E+00  0.00000000000E+00 -0.33777505580E+04  0.33890121882E+04  0.27605213223E+03 0.  0.
         25    1    3    3    0    0  0.14316438749E+02  0.38787379925E+02 -0.10230095657E+04  0.10308530413E+04  0.12000000000E+03 0.  0.
         25    1    3    3    0    0 -0.14316438749E+02 -0.38787379925E+02 -0.23547409923E+04  0.23581591469E+04  0.12000000000E+03 0.  0.
<mgrwt>
<rscale>  0 0.27605213E+03</rscale>
<asrwt>0</asrwt>
<pdfrwt beam="1">  1        2 0.52052104E+00 0.27605213E+03</pdfrwt>
<pdfrwt beam="2">  1       -2 0.86627787E-03 0.27605213E+03</pdfrwt>
<totfact> 0.31733585E+03</totfact>
</mgrwt>
</event>
<event>
 5    1  0.1111501E+001  0.2753859E+03  0.7818608E-02  0.1098236E+00
         -2   -1    0    0    0  501 -0.00000000000E+00  0.00000000000E+00  0.63254585818E+02  0.63254585818E+02  0.00000000000E+00 0. -1.
          2   -1    0    0  501    0  0.00000000000E+00 -0.00000000000E+00 -0.29973092017E+03  0.29973092017E+03  0.00000000000E+00 0. -1.
         35    2    1    2    0    0  0.00000000000E+00  0.00000000000E+00 -0.23647633435E+03  0.36298550599E+03  0.27538594889E+03 0.  0.
         25    1    3    3    0    0  0.24193706419E+02 -0.55742533576E+02 -0.79431675150E+02  0.15621125599E+03  0.12000000000E+03 0.  0.
         25    1    3    3    0    0 -0.24193706419E+02  0.55742533576E+02 -0.15704465920E+03  0.20677425000E+03  0.12000000000E+03 0.  0.
<mgrwt>
<rscale>  0 0.27538595E+03</rscale>
<asrwt>0</asrwt>
<pdfrwt beam="1">  1        2 0.46112449E-01 0.27538595E+03</pdfrwt>
<pdfrwt beam="2">  1       -2 0.97314747E-02 0.27538595E+03</pdfrwt>
<totfact> 0.75295645E+03</totfact>
</mgrwt>
</event>
<event>
 5    1  0.1111501E+001  0.2778930E+03  0.7818608E-02  0.1096845E+00
          1   -1    0    0  501    0  0.00000000000E+00  0.00000000000E+00  0.94423715825E+03  0.94423715825E+03  0.00000000000E+00 0.  1.
         -1   -1    0    0    0  501 -0.00000000000E+00 -0.00000000000E+00 -0.20446274309E+02  0.20446274309E+02  0.00000000000E+00 0.  1.
         35    2    1    2    0    0  0.00000000000E+00  0.00000000000E+00  0.92379088394E+03  0.96468343256E+03  0.27789301503E+03 0.  0.
         25    1    3    3    0    0 -0.58657755897E+02  0.27135429247E+02  0.55562816596E+03  0.57210114722E+03  0.12000000000E+03 0.  0.
         25    1    3    3    0    0  0.58657755897E+02 -0.27135429247E+02  0.36816271798E+03  0.39258228534E+03  0.12000000000E+03 0.  0.
<mgrwt>
<rscale>  0 0.27789302E+03</rscale>
<asrwt>0</asrwt>
<pdfrwt beam="1">  1        1 0.14526722E+00 0.27789302E+03</pdfrwt>
<pdfrwt beam="2">  1       -1 0.31455814E-02 0.27789302E+03</pdfrwt>
<totfact> 0.61973034E+03</totfact>
</mgrwt>
</event>
<event>
 5    1  0.1111501E+001  0.2748908E+03  0.7818608E-02  0.1098513E+00
          1   -1    0    0  501    0  0.00000000000E+00  0.00000000000E+00  0.56264974754E+03  0.56264974754E+03  0.00000000000E+00 0.  1.
         -1   -1    0    0    0  501 -0.00000000000E+00 -0.00000000000E+00 -0.33575486828E+02  0.33575486828E+02  0.00000000000E+00 0.  1.
         35    2    1    2    0    0  0.00000000000E+00  0.00000000000E+00  0.52907426071E+03  0.59622523437E+03  0.27489080878E+03 0.  0.
         25    1    3    3    0    0  0.27688561812E+02 -0.46493383885E+02  0.17878944678E+03  0.22202242562E+03  0.12000000000E+03 0.  0.
         25    1    3    3    0    0 -0.27688561812E+02  0.46493383885E+02  0.35028481393E+03  0.37420280874E+03  0.12000000000E+03 0.  0.
<mgrwt>
<rscale>  0 0.27489081E+03</rscale>
<asrwt>0</asrwt>
<pdfrwt beam="1">  1        1 0.86561493E-01 0.27489081E+03</pdfrwt>
<pdfrwt beam="2">  1       -1 0.51654599E-02 0.27489081E+03</pdfrwt>
<totfact> 0.64182571E+03</totfact>
</mgrwt>
</event>
<event>
 5    1  0.1111501E+001  0.2756799E+03  0.7818608E-02  0.1098072E+00
         -1   -1    0    0    0  501 -0.00000000000E+00  0.00000000000E+00  0.33505330665E+02  0.33505330665E+02  0.00000000000E+00 0.  1.
          1   -1    0    0  501    0  0.00000000000E+00 -0.00000000000E+00 -0.56706953579E+03  0.56706953579E+03  0.00000000000E+00 0.  1.
         35    2    1    2    0    0  0.00000000000E+00  0.00000000000E+00 -0.53356420512E+03  0.60057486645E+03  0.27567990356E+03 0.  0.
         25    1    3    3    0    0 -0.30154253578E+02 -0.54757890038E+02 -0.32409615880E+03  0.35120652853E+03  0.12000000000E+03 0.  0.
         25    1    3    3    0    0  0.30154253578E+02  0.54757890038E+02 -0.20946804632E+03  0.24936833793E+03  0.12000000000E+03 0.  0.
<mgrwt>
<rscale>  0 0.27567990E+03</rscale>
<asrwt>0</asrwt>
<pdfrwt beam="1">  1        1 0.87241464E-01 0.27567990E+03</pdfrwt>
<pdfrwt beam="2">  1       -1 0.51546664E-02 0.27567990E+03</pdfrwt>
<totfact> 0.63704844E+03</totfact>
</mgrwt>
</event>
<event>
 5    1  0.1111501E+001  0.2761789E+03  0.7818608E-02  0.1097794E+00
          2   -1    0    0  501    0  0.00000000000E+00  0.00000000000E+00  0.30406406108E+04  0.30406406108E+04  0.00000000000E+00 0.  1.
         -2   -1    0    0    0  501 -0.00000000000E+00 -0.00000000000E+00 -0.62712758607E+01  0.62712758607E+01  0.00000000000E+00 0.  1.
         35    2    1    2    0    0  0.00000000000E+00  0.00000000000E+00  0.30343693349E+04  0.30469118866E+04  0.27617889900E+03 0.  0.
         25    1    3    3    0    0  0.35305564499E+02  0.55637815505E+02  0.13177923068E+04  0.13248843773E+04  0.12000000000E+03 0.  0.
         25    1    3    3    0    0 -0.35305564499E+02 -0.55637815505E+02  0.17165770281E+04  0.17220275093E+04  0.12000000000E+03 0.  0.
<mgrwt>
<rscale>  0 0.27617890E+03</rscale>
<asrwt>0</asrwt>
<pdfrwt beam="1">  1        2 0.46778969E+00 0.27617890E+03</pdfrwt>
<pdfrwt beam="2">  1       -2 0.96481410E-03 0.27617890E+03</pdfrwt>
<totfact> 0.44258711E+03</totfact>
</mgrwt>
</event>
<event>
 5    1  0.1111501E+001  0.2747250E+03  0.7818608E-02  0.1098605E+00
          1   -1    0    0  501    0  0.00000000000E+00  0.00000000000E+00  0.43023996624E+03  0.43023996624E+03  0.00000000000E+00 0.  1.
         -1   -1    0    0    0  501 -0.00000000000E+00 -0.00000000000E+00 -0.43855672720E+02  0.43855672720E+02  0.00000000000E+00 0.  1.
         35    2    1    2    0    0  0.00000000000E+00  0.00000000000E+00  0.38638429352E+03  0.47409563896E+03  0.27472504910E+03 0.  0.
         25    1    3    3    0    0  0.28575215645E+02  0.57188903220E+02  0.22689210166E+03  0.26451302311E+03  0.12000000000E+03 0.  0.
         25    1    3    3    0    0 -0.28575215645E+02 -0.57188903220E+02  0.15949219186E+03  0.20958261585E+03  0.12000000000E+03 0.  0.
<mgrwt>
<rscale>  0 0.27472505E+03</rscale>
<asrwt>0</asrwt>
<pdfrwt beam="1">  1        1 0.66190761E-01 0.27472505E+03</pdfrwt>
<pdfrwt beam="2">  1       -1 0.67470269E-02 0.27472505E+03</pdfrwt>
<totfact> 0.61246180E+03</totfact>
</mgrwt>
</event>
<event>
 5    1  0.1111501E+001  0.2750193E+03  0.7818608E-02  0.1098441E+00
          1   -1    0    0  501    0  0.00000000000E+00  0.00000000000E+00  0.10652192390E+03  0.10652192390E+03  0.00000000000E+00 0.  1.
         -1   -1    0    0    0  501 -0.00000000000E+00 -0.00000000000E+00 -0.17751189404E+03  0.17751189404E+03  0.00000000000E+00 0.  1.
         35    2    1    2    0    0  0.00000000000E+00  0.00000000000E+00 -0.70989970142E+02  0.28403381794E+03  0.27501933364E+03 0.  0.
         25    1    3    3    0    0 -0.53049470362E+02  0.25222531746E+02 -0.18942021719E+01  0.13361889992E+03  0.12000000000E+03 0.  0.
         25    1    3    3    0    0  0.53049470362E+02 -0.25222531746E+02 -0.69095767970E+02  0.15041491803E+03  0.12000000000E+03 0.  0.
<mgrwt>
<rscale>  0 0.27501933E+03</rscale>
<asrwt>0</asrwt>
<pdfrwt beam="1">  1        1 0.16387988E-01 0.27501933E+03</pdfrwt>
<pdfrwt beam="2">  1       -1 0.27309522E-01 0.27501933E+03</pdfrwt>
<totfact> 0.39537480E+03</totfact>
</mgrwt>
</event>
<event>
 5    1  0.1111501E+001  0.2754398E+03  0.7818608E-02  0.1098206E+00
         -2   -1    0    0    0  501 -0.00000000000E+00  0.00000000000E+00  0.18504402463E+02  0.18504402463E+02  0.00000000000E+00 0.  1.
          2   -1    0    0  501    0  0.00000000000E+00 -0.00000000000E+00 -0.10249865704E+04  0.10249865704E+04  0.00000000000E+00 0.  1.
         35    2    1    2    0    0  0.00000000000E+00  0.00000000000E+00 -0.10064821680E+04  0.10434909729E+04  0.27543975035E+03 0.  0.
         25    1    3    3    0    0  0.40582810932E+02 -0.41098909184E+02 -0.63614399693E+03  0.64993481959E+03  0.12000000000E+03 0.  0.
         25    1    3    3    0    0 -0.40582810932E+02  0.41098909184E+02 -0.37033817103E+03  0.39355615330E+03  0.12000000000E+03 0.  0.
<mgrwt>
<rscale>  0 0.27543975E+03</rscale>
<asrwt>0</asrwt>
<pdfrwt beam="1">  1        2 0.15769030E+00 0.27543975E+03</pdfrwt>
<pdfrwt beam="2">  1       -2 0.28468301E-02 0.27543975E+03</pdfrwt>
<totfact> 0.11582434E+04</totfact>
</mgrwt>
</event>
<event>
 5    1  0.1111501E+001  0.2757531E+03  0.7818608E-02  0.1098031E+00
         -2   -1    0    0    0  501 -0.00000000000E+00  0.00000000000E+00  0.56586617171E+02  0.56586617171E+02  0.00000000000E+00 0.  1.
          2   -1    0    0  501    0  0.00000000000E+00 -0.00000000000E+00 -0.33594409150E+03  0.33594409150E+03  0.00000000000E+00 0.  1.
         35    2    1    2    0    0  0.00000000000E+00  0.00000000000E+00 -0.27935747433E+03  0.39253070868E+03  0.27575307575E+03 0.  0.
         25    1    3    3    0    0  0.65040153345E+02  0.10301360003E+02 -0.16322442729E+03  0.21302242424E+03  0.12000000000E+03 0.  0.
         25    1    3    3    0    0 -0.65040153345E+02 -0.10301360003E+02 -0.11613304704E+03  0.17950828443E+03  0.12000000000E+03 0.  0.
<mgrwt>
<rscale>  0 0.27575308E+03</rscale>
<asrwt>0</asrwt>
<pdfrwt beam="1">  1        2 0.51683707E-01 0.27575308E+03</pdfrwt>
<pdfrwt beam="2">  1       -2 0.87056332E-02 0.27575308E+03</pdfrwt>
<totfact> 0.79408474E+03</totfact>
</mgrwt>
</event>
<event>
 5    1  0.1111501E+001  0.2679209E+03  0.7818608E-02  0.1102475E+00
          2   -1    0    0  501    0  0.00000000000E+00  0.00000000000E+00  0.19272434168E+03  0.19272434168E+03  0.00000000000E+00 0. -1.
         -2   -1    0    0    0  501 -0.00000000000E+00 -0.00000000000E+00 -0.93114378800E+02  0.93114378800E+02  0.00000000000E+00 0. -1.
         35    2    1    2    0    0  0.00000000000E+00  0.00000000000E+00  0.99609962883E+02  0.28583872048E+03  0.26792093875E+03 0.  0.
         25    1    3    3    0    0  0.36915219678E+02 -0.15815747535E+02  0.29044024650E+01  0.12657530118E+03  0.12000000000E+03 0.  0.
         25    1    3    3    0    0 -0.36915219678E+02  0.15815747535E+02  0.96705560418E+02  0.15926341931E+03  0.12000000000E+03 0.  0.
<mgrwt>
<rscale>  0 0.26792094E+03</rscale>
<asrwt>0</asrwt>
<pdfrwt beam="1">  1        2 0.29649899E-01 0.26792094E+03</pdfrwt>
<pdfrwt beam="2">  1       -2 0.14325289E-01 0.26792094E+03</pdfrwt>
<totfact> 0.65053354E+03</totfact>
</mgrwt>
</event>
<event>
 5    1  0.1111501E+001  0.2748804E+03  0.7818608E-02  0.1098518E+00
          2   -1    0    0  501    0  0.00000000000E+00  0.00000000000E+00  0.70734022022E+02  0.70734022022E+02  0.00000000000E+00 0. -1.
         -2   -1    0    0    0  501 -0.00000000000E+00 -0.00000000000E+00 -0.26705409481E+03  0.26705409481E+03  0.00000000000E+00 0. -1.
         35    2    1    2    0    0  0.00000000000E+00  0.00000000000E+00 -0.19632007278E+03  0.33778811683E+03  0.27488041198E+03 0.  0.
         25    1    3    3    0    0 -0.42588403661E+02  0.14633758032E+02 -0.15913267705E+03  0.20433092743E+03  0.12000000000E+03 0.  0.
         25    1    3    3    0    0  0.42588403661E+02 -0.14633758032E+02 -0.37187395738E+02  0.13345718940E+03  0.12000000000E+03 0.  0.
<mgrwt>
<rscale>  0 0.27488041E+03</rscale>
<asrwt>0</asrwt>
<pdfrwt beam="1">  1        2 0.10882157E-01 0.27488041E+03</pdfrwt>
<pdfrwt beam="2">  1       -2 0.41085245E-01 0.27488041E+03</pdfrwt>
<totfact> 0.32480905E+03</totfact>
</mgrwt>
</event>
<event>
 5    1  0.1111501E+001  0.2746883E+03  0.7818608E-02  0.1098626E+00
          2   -1    0    0  501    0  0.00000000000E+00  0.00000000000E+00  0.66149845806E+03  0.66149845806E+03  0.00000000000E+00 0.  1.
         -2   -1    0    0    0  501 -0.00000000000E+00 -0.00000000000E+00 -0.28516197934E+02  0.28516197934E+02  0.00000000000E+00 0.  1.
         35    2    1    2    0    0  0.00000000000E+00  0.00000000000E+00  0.63298226012E+03  0.69001465599E+03  0.27468833949E+03 0.  0.
         25    1    3    3    0    0  0.54074123053E+02 -0.16008681609E+02  0.40647275026E+03  0.42755161721E+03  0.12000000000E+03 0.  0.
         25    1    3    3    0    0 -0.54074123053E+02  0.16008681609E+02  0.22650950986E+03  0.26246303878E+03  0.12000000000E+03 0.  0.
<mgrwt>
<rscale>  0 0.27468834E+03</rscale>
<asrwt>0</asrwt>
<pdfrwt beam="1">  1        2 0.10176898E+00 0.27468834E+03</pdfrwt>
<pdfrwt beam="2">  1       -2 0.43871079E-02 0.27468834E+03</pdfrwt>
<totfact> 0.10688742E+04</totfact>
</mgrwt>
</event>
<event>
 5    1  0.1111501E+001  0.2753117E+03  0.7818608E-02  0.1098277E+00
          2   -1    0    0  501    0  0.00000000000E+00  0.00000000000E+00  0.23561455492E+03  0.23561455492E+03  0.00000000000E+00 0. -1.
         -2   -1    0    0    0  501 -0.00000000000E+00 -0.00000000000E+00 -0.80424308835E+02  0.80424308835E+02  0.00000000000E+00 0. -1.
         35    2    1    2    0    0  0.00000000000E+00  0.00000000000E+00  0.15519024608E+03  0.31603886375E+03  0.27531173408E+03 0.  0.
         25    1    3    3    0    0  0.24192342658E+02  0.44735430486E+02  0.12845001352E+03  0.18299162319E+03  0.12000000000E+03 0.  0.
         25    1    3    3    0    0 -0.24192342658E+02 -0.44735430486E+02  0.26740232562E+02  0.13304724056E+03  0.12000000000E+03 0.  0.
<mgrwt>
<rscale>  0 0.27531173E+03</rscale>
<asrwt>0</asrwt>
<pdfrwt beam="1">  1        2 0.36248393E-01 0.27531173E+03</pdfrwt>
<pdfrwt beam="2">  1       -2 0.12372971E-01 0.27531173E+03</pdfrwt>
<totfact> 0.66430564E+03</totfact>
</mgrwt>
</event>
<event>
 5    1  0.1111501E+001  0.2757133E+03  0.7818608E-02  0.1098054E+00
         -2   -1    0    0    0  501 -0.00000000000E+00  0.00000000000E+00  0.18336277669E+02  0.18336277669E+02  0.00000000000E+00 0.  1.
          2   -1    0    0  501    0  0.00000000000E+00 -0.00000000000E+00 -0.10364404022E+04  0.10364404022E+04  0.00000000000E+00 0.  1.
         35    2    1    2    0    0  0.00000000000E+00  0.00000000000E+00 -0.10181041245E+04  0.10547766799E+04  0.27571332215E+03 0.  0.
         25    1    3    3    0    0 -0.63106657140E+02 -0.21999380854E+01 -0.60409171810E+03  0.61912364983E+03  0.12000000000E+03 0.  0.
         25    1    3    3    0    0  0.63106657140E+02  0.21999380854E+01 -0.41401240643E+03  0.43565303004E+03  0.12000000000E+03 0.  0.
<mgrwt>
<rscale>  0 0.27571332E+03</rscale>
<asrwt>0</asrwt>
<pdfrwt beam="1">  1        2 0.15945237E+00 0.27571332E+03</pdfrwt>
<pdfrwt beam="2">  1       -2 0.28209657E-02 0.27571332E+03</pdfrwt>
<totfact> 0.11555317E+04</totfact>
</mgrwt>
</event>
<event>
 5    1  0.1111501E+001  0.2750900E+03  0.7818608E-02  0.1098401E+00
          1   -1    0    0  501    0  0.00000000000E+00  0.00000000000E+00  0.41468139010E+03  0.41468139010E+03  0.00000000000E+00 0. -1.
         -1   -1    0    0    0  501 -0.00000000000E+00 -0.00000000000E+00 -0.45622075044E+02  0.45622075044E+02  0.00000000000E+00 0. -1.
         35    2    1    2    0    0  0.00000000000E+00  0.00000000000E+00  0.36905931506E+03  0.46030346515E+03  0.27508998890E+03 0.  0.
         25    1    3    3    0    0  0.56366122034E+02  0.34640880274E+02  0.16462565992E+03  0.21419322633E+03  0.12000000000E+03 0.  0.
         25    1    3    3    0    0 -0.56366122034E+02 -0.34640880274E+02  0.20443365514E+03  0.24611023882E+03  0.12000000000E+03 0.  0.
<mgrwt>
<rscale>  0 0.27508999E+03</rscale>
<asrwt>0</asrwt>
<pdfrwt beam="1">  1        1 0.63797134E-01 0.27508999E+03</pdfrwt>
<pdfrwt beam="2">  1       -1 0.70187811E-02 0.27508999E+03</pdfrwt>
<totfact> 0.60498142E+03</totfact>
</mgrwt>
</event>
<event>
 5    1  0.1111501E+001  0.2755601E+03  0.7818608E-02  0.1098139E+00
          3   -1    0    0  501    0  0.00000000000E+00  0.00000000000E+00  0.52196788912E+03  0.52196788912E+03  0.00000000000E+00 0. -1.
         -3   -1    0    0    0  501 -0.00000000000E+00 -0.00000000000E+00 -0.36368790870E+02  0.36368790870E+02  0.00000000000E+00 0. -1.
         35    2    1    2    0    0  0.00000000000E+00  0.00000000000E+00  0.48559909825E+03  0.55833667999E+03  0.27556009145E+03 0.  0.
         25    1    3    3    0    0  0.90837268474E+01 -0.26108052934E+01  0.10696917842E+03  0.16103333670E+03  0.12000000000E+03 0.  0.
         25    1    3    3    0    0 -0.90837268474E+01  0.26108052934E+01  0.37862991983E+03  0.39730334329E+03  0.12000000000E+03 0.  0.
<mgrwt>
<rscale>  0 0.27556009E+03</rscale>
<asrwt>0</asrwt>
<pdfrwt beam="1">  1        3 0.80302747E-01 0.27556009E+03</pdfrwt>
<pdfrwt beam="2">  1       -3 0.55951990E-02 0.27556009E+03</pdfrwt>
<totfact> 0.71630426E+02</totfact>
</mgrwt>
</event>
<event>
 5    1  0.1111501E+001  0.2750777E+03  0.7818608E-02  0.1098408E+00
          1   -1    0    0  501    0  0.00000000000E+00  0.00000000000E+00  0.86037766595E+03  0.86037766595E+03  0.00000000000E+00 0.  1.
         -1   -1    0    0    0  501 -0.00000000000E+00 -0.00000000000E+00 -0.21986782801E+02  0.21986782801E+02  0.00000000000E+00 0.  1.
         35    2    1    2    0    0  0.00000000000E+00  0.00000000000E+00  0.83839088315E+03  0.88236444875E+03  0.27507771170E+03 0.  0.
         25    1    3    3    0    0  0.56112223603E+02 -0.34814429594E+02  0.45929937625E+03  0.47928753705E+03  0.12000000000E+03 0.  0.
         25    1    3    3    0    0 -0.56112223603E+02  0.34814429594E+02  0.37909150690E+03  0.40307691171E+03  0.12000000000E+03 0.  0.
<mgrwt>
<rscale>  0 0.27507771E+03</rscale>
<asrwt>0</asrwt>
<pdfrwt beam="1">  1        1 0.13236577E+00 0.27507771E+03</pdfrwt>
<pdfrwt beam="2">  1       -1 0.33825826E-02 0.27507771E+03</pdfrwt>
<totfact> 0.64758060E+03</totfact>
</mgrwt>
</event>
<event>
 5    1  0.1111501E+001  0.2748446E+03  0.7818608E-02  0.1098538E+00
         -1   -1    0    0    0  501 -0.00000000000E+00  0.00000000000E+00  0.11458471436E+03  0.11458471436E+03  0.00000000000E+00 0.  1.
          1   -1    0    0  501    0  0.00000000000E+00 -0.00000000000E+00 -0.16481160480E+03  0.16481160480E+03  0.00000000000E+00 0.  1.
         35    2    1    2    0    0  0.00000000000E+00  0.00000000000E+00 -0.50226890438E+02  0.27939631916E+03  0.27484461544E+03 0.  0.
         25    1    3    3    0    0 -0.33430528531E+02  0.27082504105E+02 -0.77284207801E+02  0.14907686287E+03  0.12000000000E+03 0.  0.
         25    1    3    3    0    0  0.33430528531E+02 -0.27082504105E+02  0.27057317363E+02  0.13031945630E+03  0.12000000000E+03 0.  0.
<mgrwt>
<rscale>  0 0.27484462E+03</rscale>
<asrwt>0</asrwt>
<pdfrwt beam="1">  1        1 0.25355631E-01 0.27484462E+03</pdfrwt>
<pdfrwt beam="2">  1       -1 0.17628418E-01 0.27484462E+03</pdfrwt>
<totfact> 0.46237950E+03</totfact>
</mgrwt>
</event>
<event>
 5    1  0.1111501E+001  0.2755560E+03  0.7818608E-02  0.1098141E+00
          2   -1    0    0  501    0  0.00000000000E+00  0.00000000000E+00  0.19367525327E+02  0.19367525327E+02  0.00000000000E+00 0.  1.
         -2   -1    0    0    0  501 -0.00000000000E+00 -0.00000000000E+00 -0.98013453965E+03  0.98013453965E+03  0.00000000000E+00 0.  1.
         35    2    1    2    0    0  0.00000000000E+00  0.00000000000E+00 -0.96076701433E+03  0.99950206498E+03  0.27555602349E+03 0.  0.
         25    1    3    3    0    0 -0.67993732202E+00  0.25423873274E+02 -0.25282226780E+03  0.28100878055E+03  0.12000000000E+03 0.  0.
         25    1    3    3    0    0  0.67993732202E+00 -0.25423873274E+02 -0.70794474652E+03  0.71849328443E+03  0.12000000000E+03 0.  0.
<mgrwt>
<rscale>  0 0.27555602E+03</rscale>
<asrwt>0</asrwt>
<pdfrwt beam="1">  1        2 0.29796194E-02 0.27555602E+03</pdfrwt>
<pdfrwt beam="2">  1       -2 0.15078992E+00 0.27555602E+03</pdfrwt>
<totfact> 0.98948966E+02</totfact>
</mgrwt>
</event>
<event>
 5    1  0.1111501E+001  0.2698901E+03  0.7818608E-02  0.1101343E+00
          1   -1    0    0  501    0  0.00000000000E+00  0.00000000000E+00  0.13132814295E+04  0.13132814295E+04  0.00000000000E+00 0. -1.
         -1   -1    0    0    0  501 -0.00000000000E+00 -0.00000000000E+00 -0.13866154186E+02  0.13866154186E+02  0.00000000000E+00 0. -1.
         35    2    1    2    0    0  0.00000000000E+00  0.00000000000E+00  0.12994152753E+04  0.13271475837E+04  0.26989007236E+03 0.  0.
         25    1    3    3    0    0  0.23334796574E+02 -0.37568946108E+02  0.43796249790E+03  0.45625331562E+03  0.12000000000E+03 0.  0.
         25    1    3    3    0    0 -0.23334796574E+02  0.37568946108E+02  0.86145277738E+03  0.87089426804E+03  0.12000000000E+03 0.  0.
<mgrwt>
<rscale>  0 0.26989007E+03</rscale>
<asrwt>0</asrwt>
<pdfrwt beam="1">  1        1 0.20204320E+00 0.26989007E+03</pdfrwt>
<pdfrwt beam="2">  1       -1 0.21332555E-02 0.26989007E+03</pdfrwt>
<totfact> 0.59584314E+03</totfact>
</mgrwt>
</event>
<event>
 5    1  0.1111501E+001  0.2735049E+03  0.7818608E-02  0.1099290E+00
         -1   -1    0    0    0  501 -0.00000000000E+00  0.00000000000E+00  0.70036897240E+02  0.70036897240E+02  0.00000000000E+00 0.  1.
          1   -1    0    0  501    0  0.00000000000E+00 -0.00000000000E+00 -0.26701962887E+03  0.26701962887E+03  0.00000000000E+00 0.  1.
         35    2    1    2    0    0  0.00000000000E+00  0.00000000000E+00 -0.19698273163E+03  0.33705652611E+03  0.27350485413E+03 0.  0.
         25    1    3    3    0    0 -0.17373342203E+02  0.12340290840E+02 -0.17492861209E+03  0.21319975405E+03  0.12000000000E+03 0.  0.
         25    1    3    3    0    0  0.17373342203E+02 -0.12340290840E+02 -0.22054119539E+02  0.12385677206E+03  0.12000000000E+03 0.  0.
<mgrwt>
<rscale>  0 0.27350485E+03</rscale>
<asrwt>0</asrwt>
<pdfrwt beam="1">  1        1 0.41079942E-01 0.27350485E+03</pdfrwt>
<pdfrwt beam="2">  1       -1 0.10774907E-01 0.27350485E+03</pdfrwt>
<totfact> 0.54717069E+03</totfact>
</mgrwt>
</event>
<event>
 5    1  0.1111501E+001  0.2731345E+03  0.7818608E-02  0.1099499E+00
          1   -1    0    0  501    0  0.00000000000E+00  0.00000000000E+00  0.17774074725E+04  0.17774074725E+04  0.00000000000E+00 0. -1.
         -1   -1    0    0    0  501 -0.00000000000E+00 -0.00000000000E+00 -0.10493153934E+02  0.10493153934E+02  0.00000000000E+00 0. -1.
         35    2    1    2    0    0  0.00000000000E+00  0.00000000000E+00  0.17669143186E+04  0.17879006264E+04  0.27313447393E+03 0.  0.
         25    1    3    3    0    0 -0.32340356513E+02  0.30964658546E+02  0.57324257752E+03  0.58737701812E+03  0.12000000000E+03 0.  0.
         25    1    3    3    0    0  0.32340356513E+02 -0.30964658546E+02  0.11936717410E+04  0.12005236083E+04  0.12000000000E+03 0.  0.
<mgrwt>
<rscale>  0 0.27313447E+03</rscale>
<asrwt>0</asrwt>
<pdfrwt beam="1">  1        1 0.27344707E+00 0.27313447E+03</pdfrwt>
<pdfrwt beam="2">  1       -1 0.16143328E-02 0.27313447E+03</pdfrwt>
<totfact> 0.44137221E+03</totfact>
</mgrwt>
</event>
<event>
 5    1  0.1111501E+001  0.2755966E+03  0.7818608E-02  0.1098119E+00
          3   -1    0    0  501    0  0.00000000000E+00  0.00000000000E+00  0.44462252531E+02  0.44462252531E+02  0.00000000000E+00 0.  1.
         -3   -1    0    0    0  501 -0.00000000000E+00 -0.00000000000E+00 -0.42706712080E+03  0.42706712080E+03  0.00000000000E+00 0.  1.
         35    2    1    2    0    0  0.00000000000E+00  0.00000000000E+00 -0.38260486827E+03  0.47152937333E+03  0.27559656146E+03 0.  0.
         25    1    3    3    0    0  0.66108876575E+02 -0.12888471895E+02 -0.17898010868E+03  0.22576619670E+03  0.12000000000E+03 0.  0.
         25    1    3    3    0    0 -0.66108876575E+02  0.12888471895E+02 -0.20362475959E+03  0.24576317663E+03  0.12000000000E+03 0.  0.
<mgrwt>
<rscale>  0 0.27559656E+03</rscale>
<asrwt>0</asrwt>
<pdfrwt beam="1">  1        3 0.68403465E-02 0.27559656E+03</pdfrwt>
<pdfrwt beam="2">  1       -3 0.65702634E-01 0.27559656E+03</pdfrwt>
<totfact> 0.79669652E+02</totfact>
</mgrwt>
</event>
<event>
 5    1  0.1111501E+001  0.2752427E+03  0.7818608E-02  0.1098316E+00
          1   -1    0    0  501    0  0.00000000000E+00  0.00000000000E+00  0.22357332726E+04  0.22357332726E+04  0.00000000000E+00 0. -1.
         -1   -1    0    0    0  501 -0.00000000000E+00 -0.00000000000E+00 -0.84713328917E+01  0.84713328917E+01  0.00000000000E+00 0. -1.
         35    2    1    2    0    0  0.00000000000E+00  0.00000000000E+00  0.22272619397E+04  0.22442046055E+04  0.27524273512E+03 0.  0.
         25    1    3    3    0    0  0.22108473482E+02  0.63033168534E+02  0.10417705650E+04  0.10507844094E+04  0.12000000000E+03 0.  0.
         25    1    3    3    0    0 -0.22108473482E+02 -0.63033168534E+02  0.11854913747E+04  0.11934201961E+04  0.12000000000E+03 0.  0.
<mgrwt>
<rscale>  0 0.27524274E+03</rscale>
<asrwt>0</asrwt>
<pdfrwt beam="1">  1        1 0.34395849E+00 0.27524274E+03</pdfrwt>
<pdfrwt beam="2">  1       -1 0.13032838E-02 0.27524274E+03</pdfrwt>
<totfact> 0.30335826E+03</totfact>
</mgrwt>
</event>
<event>
 5    1  0.1111501E+001  0.2747235E+03  0.7818608E-02  0.1098606E+00
          2   -1    0    0  501    0  0.00000000000E+00  0.00000000000E+00  0.86077687099E+03  0.86077687099E+03  0.00000000000E+00 0.  1.
         -2   -1    0    0    0  501 -0.00000000000E+00 -0.00000000000E+00 -0.21920024031E+02  0.21920024031E+02  0.00000000000E+00 0.  1.
         35    2    1    2    0    0  0.00000000000E+00  0.00000000000E+00  0.83885684696E+03  0.88269689502E+03  0.27472349515E+03 0.  0.
         25    1    3    3    0    0 -0.13918082577E+02  0.61220619221E+02  0.49315853065E+03  0.51141667317E+03  0.12000000000E+03 0.  0.
         25    1    3    3    0    0  0.13918082577E+02 -0.61220619221E+02  0.34569831630E+03  0.37128022185E+03  0.12000000000E+03 0.  0.
<mgrwt>
<rscale>  0 0.27472350E+03</rscale>
<asrwt>0</asrwt>
<pdfrwt beam="1">  1        2 0.13242718E+00 0.27472350E+03</pdfrwt>
<pdfrwt beam="2">  1       -2 0.33723121E-02 0.27472350E+03</pdfrwt>
<totfact> 0.11425254E+04</totfact>
</mgrwt>
</event>
<event>
 5    1  0.1111501E+001  0.2763943E+03  0.7818608E-02  0.1097675E+00
          1   -1    0    0  501    0  0.00000000000E+00  0.00000000000E+00  0.24904816252E+03  0.24904816252E+03  0.00000000000E+00 0.  1.
         -1   -1    0    0    0  501 -0.00000000000E+00 -0.00000000000E+00 -0.76685765915E+02  0.76685765915E+02  0.00000000000E+00 0.  1.
         35    2    1    2    0    0  0.00000000000E+00  0.00000000000E+00  0.17236239660E+03  0.32573392843E+03  0.27639427702E+03 0.  0.
         25    1    3    3    0    0  0.19837317583E+02  0.98055745338E+01  0.16263729033E+03  0.20332377300E+03  0.12000000000E+03 0.  0.
         25    1    3    3    0    0 -0.19837317583E+02 -0.98055745338E+01  0.97251062701E+01  0.12241015543E+03  0.12000000000E+03 0.  0.
<mgrwt>
<rscale>  0 0.27639428E+03</rscale>
<asrwt>0</asrwt>
<pdfrwt beam="1">  1        1 0.38315102E-01 0.27639428E+03</pdfrwt>
<pdfrwt beam="2">  1       -1 0.11797810E-01 0.27639428E+03</pdfrwt>
<totfact> 0.51873753E+03</totfact>
</mgrwt>
</event>
<event>
 5    1  0.1111501E+001  0.2753529E+03  0.7818608E-02  0.1098254E+00
         -1   -1    0    0    0  501 -0.00000000000E+00  0.00000000000E+00  0.92937126441E+01  0.92937126441E+01  0.00000000000E+00 0. -1.
          1   -1    0    0  501    0  0.00000000000E+00 -0.00000000000E+00 -0.20395306311E+04  0.20395306311E+04  0.00000000000E+00 0. -1.
         35    2    1    2    0    0  0.00000000000E+00  0.00000000000E+00 -0.20302369185E+04  0.20488243438E+04  0.27535294888E+03 0.  0.
         25    1    3    3    0    0 -0.12663071722E+02 -0.18865471095E+02 -0.14879733069E+04  0.14929771671E+04  0.12000000000E+03 0.  0.
         25    1    3    3    0    0  0.12663071722E+02  0.18865471095E+02 -0.54226361159E+03  0.55584717669E+03  0.12000000000E+03 0.  0.
<mgrwt>
<rscale>  0 0.27535295E+03</rscale>
<asrwt>0</asrwt>
<pdfrwt beam="1">  1        1 0.31377362E+00 0.27535295E+03</pdfrwt>
<pdfrwt beam="2">  1       -1 0.14298034E-02 0.27535295E+03</pdfrwt>
<totfact> 0.35589923E+03</totfact>
</mgrwt>
</event>
<event>
 5    1  0.1111501E+001  0.2763961E+03  0.7818608E-02  0.1097674E+00
          1   -1    0    0  501    0  0.00000000000E+00  0.00000000000E+00  0.71625708384E+03  0.71625708384E+03  0.00000000000E+00 0. -1.
         -1   -1    0    0    0  501 -0.00000000000E+00 -0.00000000000E+00 -0.26664596542E+02  0.26664596542E+02  0.00000000000E+00 0. -1.
         35    2    1    2    0    0  0.00000000000E+00  0.00000000000E+00  0.68959248730E+03  0.74292168038E+03  0.27639613717E+03 0.  0.
         25    1    3    3    0    0 -0.31770375450E+02 -0.44771379345E+02  0.23446598200E+03  0.26905042256E+03  0.12000000000E+03 0.  0.
         25    1    3    3    0    0  0.31770375450E+02  0.44771379345E+02  0.45512650530E+03  0.47387125782E+03  0.12000000000E+03 0.  0.
<mgrwt>
<rscale>  0 0.27639614E+03</rscale>
<asrwt>0</asrwt>
<pdfrwt beam="1">  1        1 0.11019338E+00 0.27639614E+03</pdfrwt>
<pdfrwt beam="2">  1       -1 0.41022462E-02 0.27639614E+03</pdfrwt>
<totfact> 0.64377519E+03</totfact>
</mgrwt>
</event>
<event>
 5    1  0.1111501E+001  0.2753340E+03  0.7818608E-02  0.1098265E+00
          1   -1    0    0  501    0  0.00000000000E+00  0.00000000000E+00  0.42360105620E+03  0.42360105620E+03  0.00000000000E+00 0.  1.
         -1   -1    0    0    0  501 -0.00000000000E+00 -0.00000000000E+00 -0.44740679087E+02  0.44740679087E+02  0.00000000000E+00 0.  1.
         35    2    1    2    0    0  0.00000000000E+00  0.00000000000E+00  0.37886037712E+03  0.46834173529E+03  0.27533397114E+03 0.  0.
         25    1    3    3    0    0  0.26364907658E+02  0.53241164249E+02  0.13503905189E+03  0.19017169995E+03  0.12000000000E+03 0.  0.
         25    1    3    3    0    0 -0.26364907658E+02 -0.53241164249E+02  0.24382132523E+03  0.27817003534E+03  0.12000000000E+03 0.  0.
<mgrwt>
<rscale>  0 0.27533397E+03</rscale>
<asrwt>0</asrwt>
<pdfrwt beam="1">  1        1 0.65169390E-01 0.27533397E+03</pdfrwt>
<pdfrwt beam="2">  1       -1 0.68831817E-02 0.27533397E+03</pdfrwt>
<totfact> 0.60629996E+03</totfact>
</mgrwt>
</event>
<event>
 5    1  0.1111501E+001  0.2611201E+03  0.7818608E-02  0.1106472E+00
          2   -1    0    0  501    0  0.00000000000E+00  0.00000000000E+00  0.41565655943E+04  0.41565655943E+04  0.00000000000E+00 0.  1.
         -2   -1    0    0    0  501 -0.00000000000E+00 -0.00000000000E+00 -0.41009655835E+01  0.41009655835E+01  0.00000000000E+00 0.  1.
         35    2    1    2    0    0  0.00000000000E+00  0.00000000000E+00  0.41524646287E+04  0.41606665599E+04  0.26112014436E+03 0.  0.
         25    1    3    3    0    0 -0.41469350395E+02 -0.19839445682E+02  0.17084998158E+04  0.17133256933E+04  0.12000000000E+03 0.  0.
         25    1    3    3    0    0  0.41469350395E+02  0.19839445682E+02  0.24439648129E+04  0.24473408666E+04  0.12000000000E+03 0.  0.
<mgrwt>
<rscale>  0 0.26112014E+03</rscale>
<asrwt>0</asrwt>
<pdfrwt beam="1">  1        2 0.63946826E+00 0.26112014E+03</pdfrwt>
<pdfrwt beam="2">  1       -2 0.63092111E-03 0.26112014E+03</pdfrwt>
<totfact> 0.14033182E+03</totfact>
</mgrwt>
</event>
<event>
 5    1  0.1111501E+001  0.2744548E+03  0.7818608E-02  0.1098757E+00
         -1   -1    0    0    0  501 -0.00000000000E+00  0.00000000000E+00  0.27964799047E+03  0.27964799047E+03  0.00000000000E+00 0.  1.
          1   -1    0    0  501    0  0.00000000000E+00 -0.00000000000E+00 -0.67339489429E+02  0.67339489429E+02  0.00000000000E+00 0.  1.
         35    2    1    2    0    0  0.00000000000E+00  0.00000000000E+00  0.21230850104E+03  0.34698747990E+03  0.27445475327E+03 0.  0.
         25    1    3    3    0    0 -0.31776049482E+02  0.57656713626E+02  0.93680806599E+02  0.16586171189E+03  0.12000000000E+03 0.  0.
         25    1    3    3    0    0  0.31776049482E+02 -0.57656713626E+02  0.11862769444E+03  0.18112576800E+03  0.12000000000E+03 0.  0.
<mgrwt>
<rscale>  0 0.27445475E+03</rscale>
<asrwt>0</asrwt>
<pdfrwt beam="1">  1        1 0.10359922E-01 0.27445475E+03</pdfrwt>
<pdfrwt beam="2">  1       -1 0.43022767E-01 0.27445475E+03</pdfrwt>
<totfact> 0.32971047E+03</totfact>
</mgrwt>
</event>
<event>
 5    1  0.1111501E+001  0.2726544E+03  0.7818608E-02  0.1099770E+00
         -2   -1    0    0    0  501 -0.00000000000E+00  0.00000000000E+00  0.26565805798E+03  0.26565805798E+03  0.00000000000E+00 0.  1.
          2   -1    0    0  501    0  0.00000000000E+00 -0.00000000000E+00 -0.69958747199E+02  0.69958747199E+02  0.00000000000E+00 0.  1.
         35    2    1    2    0    0  0.00000000000E+00  0.00000000000E+00  0.19569931078E+03  0.33561680518E+03  0.27265439604E+03 0.  0.
         25    1    3    3    0    0  0.56232590572E+02  0.24572577557E+02  0.12305172404E+03  0.18250381530E+03  0.12000000000E+03 0.  0.
         25    1    3    3    0    0 -0.56232590572E+02 -0.24572577557E+02  0.72647586745E+02  0.15311298988E+03  0.12000000000E+03 0.  0.
<mgrwt>
<rscale>  0 0.27265440E+03</rscale>
<asrwt>0</asrwt>
<pdfrwt beam="1">  1        2 0.10762884E-01 0.27265440E+03</pdfrwt>
<pdfrwt beam="2">  1       -2 0.40870470E-01 0.27265440E+03</pdfrwt>
<totfact> 0.33249140E+03</totfact>
</mgrwt>
</event>
<event>
 5    1  0.1111501E+001  0.2754472E+03  0.7818608E-02  0.1098202E+00
          1   -1    0    0  501    0  0.00000000000E+00  0.00000000000E+00  0.28346124465E+02  0.28346124465E+02  0.00000000000E+00 0. -1.
         -1   -1    0    0    0  501 -0.00000000000E+00 -0.00000000000E+00 -0.66914949698E+03  0.66914949698E+03  0.00000000000E+00 0. -1.
         35    2    1    2    0    0  0.00000000000E+00  0.00000000000E+00 -0.64080337251E+03  0.69749562144E+03  0.27544723580E+03 0.  0.
         25    1    3    3    0    0 -0.33402106645E+02 -0.58259634314E+02 -0.30113190074E+03  0.33104426798E+03  0.12000000000E+03 0.  0.
         25    1    3    3    0    0  0.33402106645E+02  0.58259634314E+02 -0.33967147177E+03  0.36645135346E+03  0.12000000000E+03 0.  0.
<mgrwt>
<rscale>  0 0.27544724E+03</rscale>
<asrwt>0</asrwt>
<pdfrwt beam="1">  1        1 0.43609428E-02 0.27544724E+03</pdfrwt>
<pdfrwt beam="2">  1       -1 0.10294606E+00 0.27544724E+03</pdfrwt>
<totfact> 0.19004389E+03</totfact>
</mgrwt>
</event>
<event>
 5    1  0.1111501E+001  0.2809367E+03  0.7818608E-02  0.1095178E+00
          2   -1    0    0  501    0  0.00000000000E+00  0.00000000000E+00  0.98101420712E+03  0.98101420712E+03  0.00000000000E+00 0. -1.
         -2   -1    0    0    0  501 -0.00000000000E+00 -0.00000000000E+00 -0.20113228287E+02  0.20113228287E+02  0.00000000000E+00 0. -1.
         35    2    1    2    0    0  0.00000000000E+00  0.00000000000E+00  0.96090097883E+03  0.10011274354E+04  0.28093673808E+03 0.  0.
         25    1    3    3    0    0 -0.62490735772E+02  0.35941869035E+02  0.43912998820E+03  0.46090352194E+03  0.12000000000E+03 0.  0.
         25    1    3    3    0    0  0.62490735772E+02 -0.35941869035E+02  0.52177099064E+03  0.54022391346E+03  0.12000000000E+03 0.  0.
<mgrwt>
<rscale>  0 0.28093674E+03</rscale>
<asrwt>0</asrwt>
<pdfrwt beam="1">  1        2 0.15092523E+00 0.28093674E+03</pdfrwt>
<pdfrwt beam="2">  1       -2 0.30943436E-02 0.28093674E+03</pdfrwt>
<totfact> 0.10891625E+04</totfact>
</mgrwt>
</event>
<event>
 5    1  0.1111501E+001  0.2680492E+03  0.7818608E-02  0.1102401E+00
         -4   -1    0    0    0  501 -0.00000000000E+00  0.00000000000E+00  0.56459965381E+02  0.56459965381E+02  0.00000000000E+00 0. -1.
          4   -1    0    0  501    0  0.00000000000E+00 -0.00000000000E+00 -0.31814746231E+03  0.31814746231E+03  0.00000000000E+00 0. -1.
         35    2    1    2    0    0  0.00000000000E+00  0.00000000000E+00 -0.26168749693E+03  0.37460742769E+03  0.26804920972E+03 0.  0.
         25    1    3    3    0    0  0.39641743830E+02 -0.40226339268E+02 -0.15783343995E+03  0.20615775754E+03  0.12000000000E+03 0.  0.
         25    1    3    3    0    0 -0.39641743830E+02  0.40226339268E+02 -0.10385405697E+03  0.16844967015E+03  0.12000000000E+03 0.  0.
<mgrwt>
<rscale>  0 0.26804921E+03</rscale>
<asrwt>0</asrwt>
<pdfrwt beam="1">  1        4 0.48945765E-01 0.26804921E+03</pdfrwt>
<pdfrwt beam="2">  1       -4 0.86861483E-02 0.26804921E+03</pdfrwt>
<totfact> 0.72839871E+02</totfact>
</mgrwt>
</event>
<event>
 5    1  0.1111501E+001  0.2749832E+03  0.7818608E-02  0.1098461E+00
         -2   -1    0    0    0  501 -0.00000000000E+00  0.00000000000E+00  0.41137049324E+03  0.41137049324E+03  0.00000000000E+00 0.  1.
          2   -1    0    0  501    0  0.00000000000E+00 -0.00000000000E+00 -0.45953575494E+02  0.45953575494E+02  0.00000000000E+00 0.  1.
         35    2    1    2    0    0  0.00000000000E+00  0.00000000000E+00  0.36541691775E+03  0.45732406874E+03  0.27498323598E+03 0.  0.
         25    1    3    3    0    0  0.20773208129E+01 -0.11365089029E+02  0.29265501720E+03  0.31651293749E+03  0.12000000000E+03 0.  0.
         25    1    3    3    0    0 -0.20773208129E+01  0.11365089029E+02  0.72761900553E+02  0.14081113124E+03  0.12000000000E+03 0.  0.
<mgrwt>
<rscale>  0 0.27498324E+03</rscale>
<asrwt>0</asrwt>
<pdfrwt beam="1">  1        2 0.70697811E-02 0.27498324E+03</pdfrwt>
<pdfrwt beam="2">  1       -2 0.63287766E-01 0.27498324E+03</pdfrwt>
<totfact> 0.23518463E+03</totfact>
</mgrwt>
</event>
<event>
 5    1  0.1111501E+001  0.2749053E+03  0.7818608E-02  0.1098505E+00
         -2   -1    0    0    0  501 -0.00000000000E+00  0.00000000000E+00  0.11736048090E+02  0.11736048090E+02  0.00000000000E+00 0.  1.
          2   -1    0    0  501    0  0.00000000000E+00 -0.00000000000E+00 -0.16098455700E+04  0.16098455700E+04  0.00000000000E+00 0.  1.
         35    2    1    2    0    0  0.00000000000E+00  0.00000000000E+00 -0.15981095219E+04  0.16215816181E+04  0.27490525660E+03 0.  0.
         25    1    3    3    0    0  0.43109381561E+02 -0.93129001384E+01 -0.10968117532E+04  0.11042378235E+04  0.12000000000E+03 0.  0.
         25    1    3    3    0    0 -0.43109381561E+02  0.93129001384E+01 -0.50129776869E+03  0.51734379458E+03  0.12000000000E+03 0.  0.
<mgrwt>
<rscale>  0 0.27490526E+03</rscale>
<asrwt>0</asrwt>
<pdfrwt beam="1">  1        2 0.24766847E+00 0.27490526E+03</pdfrwt>
<pdfrwt beam="2">  1       -2 0.18055465E-02 0.27490526E+03</pdfrwt>
<totfact> 0.10715215E+04</totfact>
</mgrwt>
</event>
<event>
 5    1  0.1111501E+001  0.2756418E+03  0.7818608E-02  0.1098093E+00
          2   -1    0    0  501    0  0.00000000000E+00  0.00000000000E+00  0.66894584311E+03  0.66894584311E+03  0.00000000000E+00 0. -1.
         -2   -1    0    0    0  501 -0.00000000000E+00 -0.00000000000E+00 -0.28394828863E+02  0.28394828863E+02  0.00000000000E+00 0. -1.
         35    2    1    2    0    0  0.00000000000E+00  0.00000000000E+00  0.64055101425E+03  0.69734067197E+03  0.27564181637E+03 0.  0.
         25    1    3    3    0    0  0.59390742416E+02  0.18049892849E+02  0.38916742923E+03  0.41195187448E+03  0.12000000000E+03 0.  0.
         25    1    3    3    0    0 -0.59390742416E+02 -0.18049892849E+02  0.25138358502E+03  0.28538879749E+03  0.12000000000E+03 0.  0.
<mgrwt>
<rscale>  0 0.27564182E+03</rscale>
<asrwt>0</asrwt>
<pdfrwt beam="1">  1        2 0.10291473E+00 0.27564182E+03</pdfrwt>
<pdfrwt beam="2">  1       -2 0.43684357E-02 0.27564182E+03</pdfrwt>
<totfact> 0.10616250E+04</totfact>
</mgrwt>
</event>
<event>
 5    1  0.1111501E+001  0.2751510E+03  0.7818608E-02  0.1098367E+00
          2   -1    0    0  501    0  0.00000000000E+00  0.00000000000E+00  0.32097838126E+04  0.32097838126E+04  0.00000000000E+00 0.  1.
         -2   -1    0    0    0  501 -0.00000000000E+00 -0.00000000000E+00 -0.58966636596E+01  0.58966636596E+01  0.00000000000E+00 0.  1.
         35    2    1    2    0    0  0.00000000000E+00  0.00000000000E+00  0.32038871489E+04  0.32156804762E+04  0.27515098083E+03 0.  0.
         25    1    3    3    0    0  0.48763261583E+02 -0.42146003151E+02  0.13762687831E+04  0.13829930963E+04  0.12000000000E+03 0.  0.
         25    1    3    3    0    0 -0.48763261583E+02  0.42146003151E+02  0.18276183659E+04  0.18326873799E+04  0.12000000000E+03 0.  0.
<mgrwt>
<rscale>  0 0.27515098E+03</rscale>
<asrwt>0</asrwt>
<pdfrwt beam="1">  1        2 0.49381150E+00 0.27515098E+03</pdfrwt>
<pdfrwt beam="2">  1       -2 0.90718159E-03 0.27515098E+03</pdfrwt>
<totfact> 0.38198213E+03</totfact>
</mgrwt>
</event>
<event>
 5    1  0.1111501E+001  0.2746217E+03  0.7818608E-02  0.1098663E+00
          2   -1    0    0  501    0  0.00000000000E+00  0.00000000000E+00  0.10293513240E+04  0.10293513240E+04  0.00000000000E+00 0. -1.
         -2   -1    0    0    0  501 -0.00000000000E+00 -0.00000000000E+00 -0.18316648351E+02  0.18316648351E+02  0.00000000000E+00 0. -1.
         35    2    1    2    0    0  0.00000000000E+00  0.00000000000E+00  0.10110346756E+04  0.10476679724E+04  0.27462167600E+03 0.  0.
         25    1    3    3    0    0  0.61471667038E+01 -0.41405223720E+02  0.30721015740E+03  0.33246091653E+03  0.12000000000E+03 0.  0.
         25    1    3    3    0    0 -0.61471667038E+01  0.41405223720E+02  0.70382451824E+03  0.71520705582E+03  0.12000000000E+03 0.  0.
<mgrwt>
<rscale>  0 0.27462168E+03</rscale>
<asrwt>0</asrwt>
<pdfrwt beam="1">  1        2 0.15836170E+00 0.27462168E+03</pdfrwt>
<pdfrwt beam="2">  1       -2 0.28179467E-02 0.27462168E+03</pdfrwt>
<totfact> 0.11686857E+04</totfact>
</mgrwt>
</event>
<event>
 5    1  0.1111501E+001  0.2746420E+03  0.7818608E-02  0.1098652E+00
          2   -1    0    0  501    0  0.00000000000E+00  0.00000000000E+00  0.17807488281E+03  0.17807488281E+03  0.00000000000E+00 0.  1.
         -2   -1    0    0    0  501 -0.00000000000E+00 -0.00000000000E+00 -0.10589394450E+03  0.10589394450E+03  0.00000000000E+00 0.  1.
         35    2    1    2    0    0  0.00000000000E+00  0.00000000000E+00  0.72180938309E+02  0.28396882732E+03  0.27464196153E+03 0.  0.
         25    1    3    3    0    0 -0.16084648464E+02 -0.27527176957E+02 -0.24558058281E+02  0.12656839895E+03  0.12000000000E+03 0.  0.
         25    1    3    3    0    0  0.16084648464E+02  0.27527176957E+02  0.96738996590E+02  0.15740042836E+03  0.12000000000E+03 0.  0.
<mgrwt>
<rscale>  0 0.27464196E+03</rscale>
<asrwt>0</asrwt>
<pdfrwt beam="1">  1        2 0.27396136E-01 0.27464196E+03</pdfrwt>
<pdfrwt beam="2">  1       -2 0.16291376E-01 0.27464196E+03</pdfrwt>
<totfact> 0.57419993E+03</totfact>
</mgrwt>
</event>
<event>
 5    1  0.1111501E+001  0.2751569E+03  0.7818608E-02  0.1098364E+00
          2   -1    0    0  501    0  0.00000000000E+00  0.00000000000E+00  0.21294068254E+04  0.21294068254E+04  0.00000000000E+00 0. -1.
         -2   -1    0    0    0  501 -0.00000000000E+00 -0.00000000000E+00 -0.88887832569E+01  0.88887832569E+01  0.00000000000E+00 0. -1.
         35    2    1    2    0    0  0.00000000000E+00  0.00000000000E+00  0.21205180422E+04  0.21382956087E+04  0.27515694240E+03 0.  0.
         25    1    3    3    0    0  0.87115757789E+01 -0.66176936431E+02  0.99406363286E+03  0.10035027577E+04  0.12000000000E+03 0.  0.
         25    1    3    3    0    0 -0.87115757789E+01  0.66176936431E+02  0.11264544093E+04  0.11347928510E+04  0.12000000000E+03 0.  0.
<mgrwt>
<rscale>  0 0.27515694E+03</rscale>
<asrwt>0</asrwt>
<pdfrwt beam="1">  1        2 0.32760064E+00 0.27515694E+03</pdfrwt>
<pdfrwt beam="2">  1       -2 0.13675068E-02 0.27515694E+03</pdfrwt>
<totfact> 0.85745619E+03</totfact>
</mgrwt>
</event>
<event>
 5    1  0.1111501E+001  0.2748641E+03  0.7818608E-02  0.1098528E+00
          2   -1    0    0  501    0  0.00000000000E+00  0.00000000000E+00  0.17907481322E+03  0.17907481322E+03  0.00000000000E+00 0.  1.
         -2   -1    0    0    0  501 -0.00000000000E+00 -0.00000000000E+00 -0.10547307169E+03  0.10547307169E+03  0.00000000000E+00 0.  1.
         35    2    1    2    0    0  0.00000000000E+00  0.00000000000E+00  0.73601741533E+02  0.28454788491E+03  0.27486411634E+03 0.  0.
         25    1    3    3    0    0 -0.27003448436E+02 -0.59738107921E+02  0.51060887091E+02  0.14596246763E+03  0.12000000000E+03 0.  0.
         25    1    3    3    0    0  0.27003448436E+02  0.59738107921E+02  0.22540854442E+02  0.13858541729E+03  0.12000000000E+03 0.  0.
<mgrwt>
<rscale>  0 0.27486412E+03</rscale>
<asrwt>0</asrwt>
<pdfrwt beam="1">  1        2 0.27549971E-01 0.27486412E+03</pdfrwt>
<pdfrwt beam="2">  1       -2 0.16226627E-01 0.27486412E+03</pdfrwt>
<totfact> 0.57447248E+03</totfact>
</mgrwt>
</event>
<event>
 5    1  0.1111501E+001  0.2747173E+03  0.7818608E-02  0.1098610E+00
         -1   -1    0    0    0  501 -0.00000000000E+00  0.00000000000E+00  0.21082350218E+02  0.21082350218E+02  0.00000000000E+00 0. -1.
          1   -1    0    0  501    0  0.00000000000E+00 -0.00000000000E+00 -0.89493816806E+03  0.89493816806E+03  0.00000000000E+00 0. -1.
         35    2    1    2    0    0  0.00000000000E+00  0.00000000000E+00 -0.87385581784E+03  0.91602051828E+03  0.27471730839E+03 0.  0.
         25    1    3    3    0    0  0.65923693575E+02  0.20006470209E+01 -0.40078930067E+03  0.42353512191E+03  0.12000000000E+03 0.  0.
         25    1    3    3    0    0 -0.65923693575E+02 -0.20006470209E+01 -0.47306651717E+03  0.49248539636E+03  0.12000000000E+03 0.  0.
<mgrwt>
<rscale>  0 0.27471731E+03</rscale>
<asrwt>0</asrwt>
<pdfrwt beam="1">  1        1 0.13768281E+00 0.27471731E+03</pdfrwt>
<pdfrwt beam="2">  1       -1 0.32434382E-02 0.27471731E+03</pdfrwt>
<totfact> 0.64680430E+03</totfact>
</mgrwt>
</event>
<event>
 4    1  0.1111501E+001  0.2909679E+03  0.7818608E-02  0.1089845E+00
          1   -1    0    0  501    0  0.00000000000E+00  0.00000000000E+00  0.32227723783E+02  0.32227723783E+02  0.00000000000E+00 0.  1.
         -1   -1    0    0    0  501 -0.00000000000E+00 -0.00000000000E+00 -0.65675061187E+03  0.65675061187E+03  0.00000000000E+00 0.  1.
         25    1    1    2    0    0 -0.68493301519E+02 -0.68815160434E+01 -0.20565693641E+03  0.24785774773E+03  0.12000000000E+03 0.  0.
         25    1    1    2    0    0  0.68493301519E+02  0.68815160434E+01 -0.41886595167E+03  0.44112058792E+03  0.12000000000E+03 0.  0.
<mgrwt>
<rscale>  0 0.29096788E+03</rscale>
<asrwt>0</asrwt>
<pdfrwt beam="1">  1        1 0.49581117E-02 0.29096788E+03</pdfrwt>
<pdfrwt beam="2">  1       -1 0.10103855E+00 0.29096788E+03</pdfrwt>
<totfact> 0.16596494E+03</totfact>
</mgrwt>
</event>
<event>
 5    1  0.1111501E+001  0.2764765E+03  0.7818608E-02  0.1097629E+00
         -2   -1    0    0    0  501 -0.00000000000E+00  0.00000000000E+00  0.25430471156E+02  0.25430471156E+02  0.00000000000E+00 0.  1.
          2   -1    0    0  501    0  0.00000000000E+00 -0.00000000000E+00 -0.75145313367E+03  0.75145313367E+03  0.00000000000E+00 0.  1.
         35    2    1    2    0    0  0.00000000000E+00  0.00000000000E+00 -0.72602266252E+03  0.77688360483E+03  0.27647645282E+03 0.  0.
         25    1    3    3    0    0  0.66962141958E+02  0.12366000319E+02 -0.33900959469E+03  0.36601140927E+03  0.12000000000E+03 0.  0.
         25    1    3    3    0    0 -0.66962141958E+02 -0.12366000319E+02 -0.38701306782E+03  0.41087219556E+03  0.12000000000E+03 0.  0.
<mgrwt>
<rscale>  0 0.27647645E+03</rscale>
<asrwt>0</asrwt>
<pdfrwt beam="1">  1        2 0.11560819E+00 0.27647645E+03</pdfrwt>
<pdfrwt beam="2">  1       -2 0.39123797E-02 0.27647645E+03</pdfrwt>
<totfact> 0.10878683E+04</totfact>
</mgrwt>
</event>
<event>
 5    1  0.1111501E+001  0.2737141E+03  0.7818608E-02  0.1099173E+00
         -2   -1    0    0    0  501 -0.00000000000E+00  0.00000000000E+00  0.23717720184E+03  0.23717720184E+03  0.00000000000E+00 0.  1.
          2   -1    0    0  501    0  0.00000000000E+00 -0.00000000000E+00 -0.78969860183E+02  0.78969860183E+02  0.00000000000E+00 0.  1.
         35    2    1    2    0    0  0.00000000000E+00  0.00000000000E+00  0.15820734166E+03  0.31614706203E+03  0.27371408782E+03 0.  0.
         25    1    3    3    0    0  0.37573405476E+01  0.23484528084E+02  0.82391409915E+01  0.12261127237E+03  0.12000000000E+03 0.  0.
         25    1    3    3    0    0 -0.37573405476E+01 -0.23484528084E+02  0.14996820067E+03  0.19353578966E+03  0.12000000000E+03 0.  0.
<mgrwt>
<rscale>  0 0.27371409E+03</rscale>
<asrwt>0</asrwt>
<pdfrwt beam="1">  1        2 0.12149209E-01 0.27371409E+03</pdfrwt>
<pdfrwt beam="2">  1       -2 0.36488800E-01 0.27371409E+03</pdfrwt>
<totfact> 0.35553621E+03</totfact>
</mgrwt>
</event>
<event>
 5    1  0.1111501E+001  0.2748591E+03  0.7818608E-02  0.1098530E+00
         -2   -1    0    0    0  501 -0.00000000000E+00  0.00000000000E+00  0.13034994040E+03  0.13034994040E+03  0.00000000000E+00 0. -1.
          2   -1    0    0  501    0  0.00000000000E+00 -0.00000000000E+00 -0.14489362955E+03  0.14489362955E+03  0.00000000000E+00 0. -1.
         35    2    1    2    0    0  0.00000000000E+00  0.00000000000E+00 -0.14543689153E+02  0.27524356995E+03  0.27485906189E+03 0.  0.
         25    1    3    3    0    0  0.12799027562E+02 -0.64075734600E+02 -0.22035640694E+02  0.13840189425E+03  0.12000000000E+03 0.  0.
         25    1    3    3    0    0 -0.12799027562E+02  0.64075734600E+02  0.74919515410E+01  0.13684167570E+03  0.12000000000E+03 0.  0.
<mgrwt>
<rscale>  0 0.27485906E+03</rscale>
<asrwt>0</asrwt>
<pdfrwt beam="1">  1        2 0.22291327E-01 0.27485906E+03</pdfrwt>
<pdfrwt beam="2">  1       -2 0.20053837E-01 0.27485906E+03</pdfrwt>
<totfact> 0.50922517E+03</totfact>
</mgrwt>
</event>
<event>
 5    1  0.1111501E+001  0.2746032E+03  0.7818608E-02  0.1098674E+00
          1   -1    0    0  501    0  0.00000000000E+00  0.00000000000E+00  0.49168567497E+03  0.49168567497E+03  0.00000000000E+00 0. -1.
         -1   -1    0    0    0  501 -0.00000000000E+00 -0.00000000000E+00 -0.38341005759E+02  0.38341005759E+02  0.00000000000E+00 0. -1.
         35    2    1    2    0    0  0.00000000000E+00  0.00000000000E+00  0.45334466921E+03  0.53002668073E+03  0.27460315581E+03 0.  0.
         25    1    3    3    0    0 -0.19239626712E+02  0.54917187974E+02  0.28968125736E+03  0.31890639949E+03  0.12000000000E+03 0.  0.
         25    1    3    3    0    0  0.19239626712E+02 -0.54917187974E+02  0.16366341185E+03  0.21112028124E+03  0.12000000000E+03 0.  0.
<mgrwt>
<rscale>  0 0.27460316E+03</rscale>
<asrwt>0</asrwt>
<pdfrwt beam="1">  1        1 0.75643945E-01 0.27460316E+03</pdfrwt>
<pdfrwt beam="2">  1       -1 0.58986166E-02 0.27460316E+03</pdfrwt>
<totfact> 0.63010285E+03</totfact>
</mgrwt>
</event>
<event>
 5    1  0.1111501E+001  0.2751152E+03  0.7818608E-02  0.1098387E+00
         -2   -1    0    0    0  501 -0.00000000000E+00  0.00000000000E+00  0.49926431141E+02  0.49926431141E+02  0.00000000000E+00 0.  1.
          2   -1    0    0  501    0  0.00000000000E+00 -0.00000000000E+00 -0.37899959796E+03  0.37899959796E+03  0.00000000000E+00 0.  1.
         35    2    1    2    0    0  0.00000000000E+00  0.00000000000E+00 -0.32907316681E+03  0.42892602910E+03  0.27511522917E+03 0.  0.
         25    1    3    3    0    0  0.15401985968E+02  0.51615039532E+02 -0.10177012255E+03  0.16630842228E+03  0.12000000000E+03 0.  0.
         25    1    3    3    0    0 -0.15401985968E+02 -0.51615039532E+02 -0.22730304426E+03  0.26261760681E+03  0.12000000000E+03 0.  0.
<mgrwt>
<rscale>  0 0.27511523E+03</rscale>
<asrwt>0</asrwt>
<pdfrwt beam="1">  1        2 0.58307631E-01 0.27511523E+03</pdfrwt>
<pdfrwt beam="2">  1       -2 0.76809894E-02 0.27511523E+03</pdfrwt>
<totfact> 0.84790342E+03</totfact>
</mgrwt>
</event>
<event>
 5    1  0.1111501E+001  0.2744028E+03  0.7818608E-02  0.1098786E+00
          1   -1    0    0  501    0  0.00000000000E+00  0.00000000000E+00  0.50752832969E+03  0.50752832969E+03  0.00000000000E+00 0.  1.
         -1   -1    0    0    0  501 -0.00000000000E+00 -0.00000000000E+00 -0.37090009363E+02  0.37090009363E+02  0.00000000000E+00 0.  1.
         35    2    1    2    0    0  0.00000000000E+00  0.00000000000E+00  0.47043832033E+03  0.54461833905E+03  0.27440284619E+03 0.  0.
         25    1    3    3    0    0  0.39070552155E+02 -0.15896871076E+02  0.13314461147E+03  0.18413773682E+03  0.12000000000E+03 0.  0.
         25    1    3    3    0    0 -0.39070552155E+02  0.15896871076E+02  0.33729370885E+03  0.36048060223E+03  0.12000000000E+03 0.  0.
<mgrwt>
<rscale>  0 0.27440285E+03</rscale>
<asrwt>0</asrwt>
<pdfrwt beam="1">  1        1 0.78081277E-01 0.27440285E+03</pdfrwt>
<pdfrwt beam="2">  1       -1 0.57061557E-02 0.27440285E+03</pdfrwt>
<totfact> 0.63504749E+03</totfact>
</mgrwt>
</event>
<event>
 5    1  0.1111501E+001  0.2751017E+03  0.7818608E-02  0.1098395E+00
          2   -1    0    0  501    0  0.00000000000E+00  0.00000000000E+00  0.23130206938E+03  0.23130206938E+03  0.00000000000E+00 0. -1.
         -2   -1    0    0    0  501 -0.00000000000E+00 -0.00000000000E+00 -0.81798834701E+02  0.81798834701E+02  0.00000000000E+00 0. -1.
         35    2    1    2    0    0  0.00000000000E+00  0.00000000000E+00  0.14950323468E+03  0.31310090408E+03  0.27510172474E+03 0.  0.
         25    1    3    3    0    0  0.52396026649E+02 -0.18594478156E+02  0.11777738481E+03  0.17709491974E+03  0.12000000000E+03 0.  0.
         25    1    3    3    0    0 -0.52396026649E+02  0.18594478156E+02  0.31725849876E+02  0.13600598434E+03  0.12000000000E+03 0.  0.
<mgrwt>
<rscale>  0 0.27510172E+03</rscale>
<asrwt>0</asrwt>
<pdfrwt beam="1">  1        2 0.35584933E-01 0.27510172E+03</pdfrwt>
<pdfrwt beam="2">  1       -2 0.12584436E-01 0.27510172E+03</pdfrwt>
<totfact> 0.65936656E+03</totfact>
</mgrwt>
</event>
<event>
 5    1  0.1111501E+001  0.2750537E+03  0.7818608E-02  0.1098422E+00
          2   -1    0    0  501    0  0.00000000000E+00  0.00000000000E+00  0.74504155979E+03  0.74504155979E+03  0.00000000000E+00 0.  1.
         -2   -1    0    0    0  501 -0.00000000000E+00 -0.00000000000E+00 -0.25386011311E+02  0.25386011311E+02  0.00000000000E+00 0.  1.
         35    2    1    2    0    0  0.00000000000E+00  0.00000000000E+00  0.71965554848E+03  0.77042757110E+03  0.27505369268E+03 0.  0.
         25    1    3    3    0    0  0.35774755125E+02  0.40809258183E+02  0.47075634535E+03  0.48883204206E+03  0.12000000000E+03 0.  0.
         25    1    3    3    0    0 -0.35774755125E+02 -0.40809258183E+02  0.24889920313E+03  0.28159552904E+03  0.12000000000E+03 0.  0.
<mgrwt>
<rscale>  0 0.27505369E+03</rscale>
<asrwt>0</asrwt>
<pdfrwt beam="1">  1        2 0.11462176E+00 0.27505369E+03</pdfrwt>
<pdfrwt beam="2">  1       -2 0.39055408E-02 0.27505369E+03</pdfrwt>
<totfact> 0.11021934E+04</totfact>
</mgrwt>
</event>
<event>
 5    1  0.1111501E+001  0.2739295E+03  0.7818608E-02  0.1099051E+00
          1   -1    0    0  501    0  0.00000000000E+00  0.00000000000E+00  0.21858601129E+03  0.21858601129E+03  0.00000000000E+00 0. -1.
         -1   -1    0    0    0  501 -0.00000000000E+00 -0.00000000000E+00 -0.85821319101E+02  0.85821319101E+02  0.00000000000E+00 0. -1.
         35    2    1    2    0    0  0.00000000000E+00  0.00000000000E+00  0.13276469219E+03  0.30440733039E+03  0.27392947870E+03 0.  0.
         25    1    3    3    0    0 -0.10648674963E+02 -0.12054989287E+02  0.13754321549E+03  0.18323987878E+03  0.12000000000E+03 0.  0.
         25    1    3    3    0    0  0.10648674963E+02  0.12054989287E+02 -0.47785233079E+01  0.12116745161E+03  0.12000000000E+03 0.  0.
<mgrwt>
<rscale>  0 0.27392948E+03</rscale>
<asrwt>0</asrwt>
<pdfrwt beam="1">  1        1 0.33628617E-01 0.27392948E+03</pdfrwt>
<pdfrwt beam="2">  1       -1 0.13203280E-01 0.27392948E+03</pdfrwt>
<totfact> 0.51221610E+03</totfact>
</mgrwt>
</event>
<event>
 5    1  0.1111501E+001  0.2752732E+03  0.7818608E-02  0.1098299E+00
         -2   -1    0    0    0  501 -0.00000000000E+00  0.00000000000E+00  0.34973350496E+02  0.34973350496E+02  0.00000000000E+00 0. -1.
          2   -1    0    0  501    0  0.00000000000E+00 -0.00000000000E+00 -0.54166487353E+03  0.54166487353E+03  0.00000000000E+00 0. -1.
         35    2    1    2    0    0  0.00000000000E+00  0.00000000000E+00 -0.50669152303E+03  0.57663822402E+03  0.27527321318E+03 0.  0.
         25    1    3    3    0    0  0.55310829362E+02  0.25257387438E+02 -0.31429688108E+03  0.34187680957E+03  0.12000000000E+03 0.  0.
         25    1    3    3    0    0 -0.55310829362E+02 -0.25257387438E+02 -0.19239464195E+03  0.23476141445E+03  0.12000000000E+03 0.  0.
<mgrwt>
<rscale>  0 0.27527321E+03</rscale>
<asrwt>0</asrwt>
<pdfrwt beam="1">  1        2 0.83333052E-01 0.27527321E+03</pdfrwt>
<pdfrwt beam="2">  1       -2 0.53805158E-02 0.27527321E+03</pdfrwt>
<totfact> 0.98917933E+03</totfact>
</mgrwt>
</event>
<event>
 5    1  0.1111501E+001  0.2749493E+03  0.7818608E-02  0.1098480E+00
         -1   -1    0    0    0  501 -0.00000000000E+00  0.00000000000E+00  0.14651650488E+03  0.14651650488E+03  0.00000000000E+00 0.  1.
          1   -1    0    0  501    0  0.00000000000E+00 -0.00000000000E+00 -0.12899078034E+03  0.12899078034E+03  0.00000000000E+00 0.  1.
         35    2    1    2    0    0  0.00000000000E+00  0.00000000000E+00  0.17525724540E+02  0.27550728523E+03  0.27494929204E+03 0.  0.
         25    1    3    3    0    0  0.23485476264E+02  0.58937944429E+02 -0.13053539595E+02  0.13636584538E+03  0.12000000000E+03 0.  0.
         25    1    3    3    0    0 -0.23485476264E+02 -0.58937944429E+02  0.30579264135E+02  0.13914143985E+03  0.12000000000E+03 0.  0.
<mgrwt>
<rscale>  0 0.27494929E+03</rscale>
<asrwt>0</asrwt>
<pdfrwt beam="1">  1        1 0.19844735E-01 0.27494929E+03</pdfrwt>
<pdfrwt beam="2">  1       -1 0.22541001E-01 0.27494929E+03</pdfrwt>
<totfact> 0.42434639E+03</totfact>
</mgrwt>
</event>
<event>
 5    1  0.1111501E+001  0.2748659E+03  0.7818608E-02  0.1098527E+00
         -2   -1    0    0    0  501 -0.00000000000E+00  0.00000000000E+00  0.11838707247E+02  0.11838707247E+02  0.00000000000E+00 0.  1.
          2   -1    0    0  501    0  0.00000000000E+00 -0.00000000000E+00 -0.15954287464E+04  0.15954287464E+04  0.00000000000E+00 0.  1.
         35    2    1    2    0    0  0.00000000000E+00  0.00000000000E+00 -0.15835900392E+04  0.16072674537E+04  0.27486588630E+03 0.  0.
         25    1    3    3    0    0 -0.41262016846E+02 -0.31973517936E+02 -0.54627449941E+03  0.56173008518E+03  0.12000000000E+03 0.  0.
         25    1    3    3    0    0  0.41262016846E+02  0.31973517936E+02 -0.10373155398E+04  0.10455373685E+04  0.12000000000E+03 0.  0.
<mgrwt>
<rscale>  0 0.27486589E+03</rscale>
<asrwt>0</asrwt>
<pdfrwt beam="1">  1        2 0.24545052E+00 0.27486589E+03</pdfrwt>
<pdfrwt beam="2">  1       -2 0.18213400E-02 0.27486589E+03</pdfrwt>
<totfact> 0.10766776E+04</totfact>
</mgrwt>
</event>
<event>
 5    1  0.1111501E+001  0.2745306E+03  0.7818608E-02  0.1098714E+00
         -1   -1    0    0    0  501 -0.00000000000E+00  0.00000000000E+00  0.99714498415E+02  0.99714498415E+02  0.00000000000E+00 0. -1.
          1   -1    0    0  501    0  0.00000000000E+00 -0.00000000000E+00 -0.18895709765E+03  0.18895709765E+03  0.00000000000E+00 0. -1.
         35    2    1    2    0    0  0.00000000000E+00  0.00000000000E+00 -0.89242599234E+02  0.28867159606E+03  0.27453059730E+03 0.  0.
         25    1    3    3    0    0 -0.34625509988E+02  0.15718196630E+02 -0.10217428592E+03  0.16212825895E+03  0.12000000000E+03 0.  0.
         25    1    3    3    0    0  0.34625509988E+02 -0.15718196630E+02  0.12931686685E+02  0.12654333711E+03  0.12000000000E+03 0.  0.
<mgrwt>
<rscale>  0 0.27453060E+03</rscale>
<asrwt>0</asrwt>
<pdfrwt beam="1">  1        1 0.29070322E-01 0.27453060E+03</pdfrwt>
<pdfrwt beam="2">  1       -1 0.15340692E-01 0.27453060E+03</pdfrwt>
<totfact> 0.48551355E+03</totfact>
</mgrwt>
</event>
<event>
 5    1  0.1111501E+001  0.2776878E+03  0.7818608E-02  0.1096959E+00
         -2   -1    0    0    0  501 -0.00000000000E+00  0.00000000000E+00  0.45037830735E+02  0.45037830735E+02  0.00000000000E+00 0. -1.
          2   -1    0    0  501    0  0.00000000000E+00 -0.00000000000E+00 -0.42803176366E+03  0.42803176366E+03  0.00000000000E+00 0. -1.
         35    2    1    2    0    0  0.00000000000E+00  0.00000000000E+00 -0.38299393292E+03  0.47306959439E+03  0.27768775357E+03 0.  0.
         25    1    3    3    0    0 -0.15577362624E+02 -0.66147344457E+02 -0.21894013427E+03  0.25875259960E+03  0.12000000000E+03 0.  0.
         25    1    3    3    0    0  0.15577362624E+02  0.66147344457E+02 -0.16405379865E+03  0.21431699479E+03  0.12000000000E+03 0.  0.
<mgrwt>
<rscale>  0 0.27768775E+03</rscale>
<asrwt>0</asrwt>
<pdfrwt beam="1">  1        2 0.65851039E-01 0.27768775E+03</pdfrwt>
<pdfrwt beam="2">  1       -2 0.69288972E-02 0.27768775E+03</pdfrwt>
<totfact> 0.87197954E+03</totfact>
</mgrwt>
</event>
<event>
 5    1  0.1111501E+001  0.2749099E+03  0.7818608E-02  0.1098502E+00
         -3   -1    0    0    0  501 -0.00000000000E+00  0.00000000000E+00  0.10714711933E+03  0.10714711933E+03  0.00000000000E+00 0.  1.
          3   -1    0    0  501    0  0.00000000000E+00 -0.00000000000E+00 -0.17633568310E+03  0.17633568310E+03  0.00000000000E+00 0.  1.
         35    2    1    2    0    0  0.00000000000E+00  0.00000000000E+00 -0.69188563768E+02  0.28348280243E+03  0.27490987963E+03 0.  0.
         25    1    3    3    0    0  0.50716692512E+02  0.33460210831E+02 -0.53898725220E+01  0.13461359268E+03  0.12000000000E+03 0.  0.
         25    1    3    3    0    0 -0.50716692512E+02 -0.33460210831E+02 -0.63798691246E+02  0.14886920975E+03  0.12000000000E+03 0.  0.
<mgrwt>
<rscale>  0 0.27490988E+03</rscale>
<asrwt>0</asrwt>
<pdfrwt beam="1">  1        3 0.27128567E-01 0.27490988E+03</pdfrwt>
<pdfrwt beam="2">  1       -3 0.16484172E-01 0.27490988E+03</pdfrwt>
<totfact> 0.10371302E+03</totfact>
</mgrwt>
</event>
<event>
 5    1  0.1111501E+001  0.2748482E+03  0.7818608E-02  0.1098536E+00
          2   -1    0    0  501    0  0.00000000000E+00  0.00000000000E+00  0.40779778747E+03  0.40779778747E+03  0.00000000000E+00 0. -1.
         -2   -1    0    0    0  501 -0.00000000000E+00 -0.00000000000E+00 -0.46310665829E+02  0.46310665829E+02  0.00000000000E+00 0. -1.
         35    2    1    2    0    0  0.00000000000E+00  0.00000000000E+00  0.36148712164E+03  0.45410845330E+03  0.27484822766E+03 0.  0.
         25    1    3    3    0    0  0.49530207937E+02  0.10334247865E+01  0.25520473897E+03  0.28632807801E+03  0.12000000000E+03 0.  0.
         25    1    3    3    0    0 -0.49530207937E+02 -0.10334247865E+01  0.10628238267E+03  0.16778037528E+03  0.12000000000E+03 0.  0.
<mgrwt>
<rscale>  0 0.27484823E+03</rscale>
<asrwt>0</asrwt>
<pdfrwt beam="1">  1        2 0.62738119E-01 0.27484823E+03</pdfrwt>
<pdfrwt beam="2">  1       -2 0.71247181E-02 0.27484823E+03</pdfrwt>
<totfact> 0.88012807E+03</totfact>
</mgrwt>
</event>
<event>
 5    1  0.1111501E+001  0.2781882E+03  0.7818608E-02  0.1096683E+00
          2   -1    0    0  501    0  0.00000000000E+00  0.00000000000E+00  0.52497976290E+03  0.52497976290E+03  0.00000000000E+00 0. -1.
         -2   -1    0    0    0  501 -0.00000000000E+00 -0.00000000000E+00 -0.36853162770E+02  0.36853162770E+02  0.00000000000E+00 0. -1.
         35    2    1    2    0    0  0.00000000000E+00  0.00000000000E+00  0.48812660013E+03  0.56183292567E+03  0.27818817123E+03 0.  0.
         25    1    3    3    0    0 -0.25374945859E+02  0.35325902026E+02  0.13242851550E+03  0.18392693916E+03  0.12000000000E+03 0.  0.
         25    1    3    3    0    0  0.25374945859E+02 -0.35325902026E+02  0.35569808463E+03  0.37790598651E+03  0.12000000000E+03 0.  0.
<mgrwt>
<rscale>  0 0.27818817E+03</rscale>
<asrwt>0</asrwt>
<pdfrwt beam="1">  1        2 0.80766112E-01 0.27818817E+03</pdfrwt>
<pdfrwt beam="2">  1       -2 0.56697177E-02 0.27818817E+03</pdfrwt>
<totfact> 0.94645918E+03</totfact>
</mgrwt>
</event>
<event>
 5    1  0.1111501E+001  0.2749249E+03  0.7818608E-02  0.1098494E+00
         -3   -1    0    0    0  501 -0.00000000000E+00  0.00000000000E+00  0.44034018830E+03  0.44034018830E+03  0.00000000000E+00 0. -1.
          3   -1    0    0  501    0  0.00000000000E+00 -0.00000000000E+00 -0.42912119852E+02  0.42912119852E+02  0.00000000000E+00 0. -1.
         35    2    1    2    0    0  0.00000000000E+00  0.00000000000E+00  0.39742806845E+03  0.48325230815E+03  0.27492494202E+03 0.  0.
         25    1    3    3    0    0 -0.68523331202E+01 -0.66471815528E+02  0.20841748041E+03  0.24960629573E+03  0.12000000000E+03 0.  0.
         25    1    3    3    0    0  0.68523331202E+01  0.66471815528E+02  0.18901058803E+03  0.23364601242E+03  0.12000000000E+03 0.  0.
<mgrwt>
<rscale>  0 0.27492494E+03</rscale>
<asrwt>0</asrwt>
<pdfrwt beam="1">  1        3 0.66018649E-02 0.27492494E+03</pdfrwt>
<pdfrwt beam="2">  1       -3 0.67744641E-01 0.27492494E+03</pdfrwt>
<totfact> 0.79071950E+02</totfact>
</mgrwt>
</event>
<event>
 5    1  0.1111501E+001  0.2762257E+03  0.7818608E-02  0.1097768E+00
          1   -1    0    0  501    0  0.00000000000E+00  0.00000000000E+00  0.36271389630E+03  0.36271389630E+03  0.00000000000E+00 0.  1.
         -1   -1    0    0    0  501 -0.00000000000E+00 -0.00000000000E+00 -0.52590082434E+02  0.52590082434E+02  0.00000000000E+00 0.  1.
         35    2    1    2    0    0  0.00000000000E+00  0.00000000000E+00  0.31012381386E+03  0.41530397873E+03  0.27622565924E+03 0.  0.
         25    1    3    3    0    0 -0.69580168713E+01  0.49541959608E+02  0.22513727175E+03  0.25998002017E+03  0.12000000000E+03 0.  0.
         25    1    3    3    0    0  0.69580168713E+01 -0.49541959608E+02  0.84986542115E+02  0.15532395856E+03  0.12000000000E+03 0.  0.
<mgrwt>
<rscale>  0 0.27622566E+03</rscale>
<asrwt>0</asrwt>
<pdfrwt beam="1">  1        1 0.55802136E-01 0.27622566E+03</pdfrwt>
<pdfrwt beam="2">  1       -1 0.80907822E-02 0.27622566E+03</pdfrwt>
<totfact> 0.57829621E+03</totfact>
</mgrwt>
</event>
<event>
 5    1  0.1111501E+001  0.2746236E+03  0.7818608E-02  0.1098662E+00
         -2   -1    0    0    0  501 -0.00000000000E+00  0.00000000000E+00  0.87669085220E+02  0.87669085220E+02  0.00000000000E+00 0. -1.
          2   -1    0    0  501    0  0.00000000000E+00 -0.00000000000E+00 -0.21506475408E+03  0.21506475408E+03  0.00000000000E+00 0. -1.
         35    2    1    2    0    0  0.00000000000E+00  0.00000000000E+00 -0.12739566886E+03  0.30273383930E+03  0.27462359879E+03 0.  0.
         25    1    3    3    0    0 -0.63202359399E+02  0.21306028886E+02 -0.66408193045E+02  0.15250748573E+03  0.12000000000E+03 0.  0.
         25    1    3    3    0    0  0.63202359399E+02 -0.21306028886E+02 -0.60987475816E+02  0.15022635357E+03  0.12000000000E+03 0.  0.
<mgrwt>
<rscale>  0 0.27462360E+03</rscale>
<asrwt>0</asrwt>
<pdfrwt beam="1">  1        2 0.33086885E-01 0.27462360E+03</pdfrwt>
<pdfrwt beam="2">  1       -2 0.13487552E-01 0.27462360E+03</pdfrwt>
<totfact> 0.63747642E+03</totfact>
</mgrwt>
</event>
<event>
 5    1  0.1111501E+001  0.2722501E+03  0.7818608E-02  0.1099999E+00
          1   -1    0    0  501    0  0.00000000000E+00  0.00000000000E+00  0.21687475038E+04  0.21687475038E+04  0.00000000000E+00 0. -1.
         -1   -1    0    0    0  501 -0.00000000000E+00 -0.00000000000E+00 -0.85441145026E+01  0.85441145026E+01  0.00000000000E+00 0. -1.
         35    2    1    2    0    0  0.00000000000E+00  0.00000000000E+00  0.21602033893E+04  0.21772916183E+04  0.27225008356E+03 0.  0.
         25    1    3    3    0    0 -0.54237361731E+02 -0.31655583622E+02  0.11892477218E+04  0.11969352159E+04  0.12000000000E+03 0.  0.
         25    1    3    3    0    0  0.54237361731E+02  0.31655583622E+02  0.97095566750E+03  0.98035640235E+03  0.12000000000E+03 0.  0.
<mgrwt>
<rscale>  0 0.27225008E+03</rscale>
<asrwt>0</asrwt>
<pdfrwt beam="1">  1        1 0.33365302E+00 0.27225008E+03</pdfrwt>
<pdfrwt beam="2">  1       -1 0.13144809E-02 0.27225008E+03</pdfrwt>
<totfact> 0.33139628E+03</totfact>
</mgrwt>
</event>
<event>
 5    1  0.1111501E+001  0.2757677E+03  0.7818608E-02  0.1098023E+00
         -3   -1    0    0    0  501 -0.00000000000E+00  0.00000000000E+00  0.37160531568E+02  0.37160531568E+02  0.00000000000E+00 0. -1.
          3   -1    0    0  501    0  0.00000000000E+00 -0.00000000000E+00 -0.51161673079E+03  0.51161673079E+03  0.00000000000E+00 0. -1.
         35    2    1    2    0    0  0.00000000000E+00  0.00000000000E+00 -0.47445619922E+03  0.54877726235E+03  0.27576765347E+03 0.  0.
         25    1    3    3    0    0  0.72864243234E+01  0.37965337999E+02 -0.34833866968E+03  0.37045146466E+03  0.12000000000E+03 0.  0.
         25    1    3    3    0    0 -0.72864243234E+01 -0.37965337999E+02 -0.12611752954E+03  0.17832579770E+03  0.12000000000E+03 0.  0.
<mgrwt>
<rscale>  0 0.27576765E+03</rscale>
<asrwt>0</asrwt>
<pdfrwt beam="1">  1        3 0.78710262E-01 0.27576765E+03</pdfrwt>
<pdfrwt beam="2">  1       -3 0.57170052E-02 0.27576765E+03</pdfrwt>
<totfact> 0.72301002E+02</totfact>
</mgrwt>
</event>
<event>
 5    1  0.1111501E+001  0.2734511E+03  0.7818608E-02  0.1099321E+00
          2   -1    0    0  501    0  0.00000000000E+00  0.00000000000E+00  0.59396974186E+02  0.59396974186E+02  0.00000000000E+00 0.  1.
         -2   -1    0    0    0  501 -0.00000000000E+00 -0.00000000000E+00 -0.31472774881E+03  0.31472774881E+03  0.00000000000E+00 0.  1.
         35    2    1    2    0    0  0.00000000000E+00  0.00000000000E+00 -0.25533077463E+03  0.37412472300E+03  0.27345109963E+03 0.  0.
         25    1    3    3    0    0 -0.57875319023E+00 -0.64928984925E+02 -0.11560011821E+03  0.17882811683E+03  0.12000000000E+03 0.  0.
         25    1    3    3    0    0  0.57875319023E+00  0.64928984925E+02 -0.13973065642E+03  0.19529660617E+03  0.12000000000E+03 0.  0.
<mgrwt>
<rscale>  0 0.27345110E+03</rscale>
<asrwt>0</asrwt>
<pdfrwt beam="1">  1        2 0.91379963E-02 0.27345110E+03</pdfrwt>
<pdfrwt beam="2">  1       -2 0.48419652E-01 0.27345110E+03</pdfrwt>
<totfact> 0.29288471E+03</totfact>
</mgrwt>
</event>
<event>
 5    1  0.1111501E+001  0.2748856E+03  0.7818608E-02  0.1098516E+00
         -2   -1    0    0    0  501 -0.00000000000E+00  0.00000000000E+00  0.80728429807E+03  0.80728429807E+03  0.00000000000E+00 0.  1.
          2   -1    0    0  501    0  0.00000000000E+00 -0.00000000000E+00 -0.23400084313E+02  0.23400084313E+02  0.00000000000E+00 0.  1.
         35    2    1    2    0    0  0.00000000000E+00  0.00000000000E+00  0.78388421376E+03  0.83068438239E+03  0.27488558085E+03 0.  0.
         25    1    3    3    0    0 -0.48536981259E+02  0.45452356072E+02  0.36688279580E+03  0.39169470392E+03  0.12000000000E+03 0.  0.
         25    1    3    3    0    0  0.48536981259E+02 -0.45452356072E+02  0.41700141796E+03  0.43898967847E+03  0.12000000000E+03 0.  0.
<mgrwt>
<rscale>  0 0.27488558E+03</rscale>
<asrwt>0</asrwt>
<pdfrwt beam="1">  1        2 0.36000136E-02 0.27488558E+03</pdfrwt>
<pdfrwt beam="2">  1       -2 0.12419756E+00 0.27488558E+03</pdfrwt>
<totfact> 0.12474391E+03</totfact>
</mgrwt>
</event>
<event>
 5    1  0.1111501E+001  0.2758080E+03  0.7818608E-02  0.1098001E+00
          2   -1    0    0  501    0  0.00000000000E+00  0.00000000000E+00  0.37340784908E+03  0.37340784908E+03  0.00000000000E+00 0. -1.
         -2   -1    0    0    0  501 -0.00000000000E+00 -0.00000000000E+00 -0.50929596760E+02  0.50929596760E+02  0.00000000000E+00 0. -1.
         35    2    1    2    0    0  0.00000000000E+00  0.00000000000E+00  0.32247825232E+03  0.42433744584E+03  0.27580798524E+03 0.  0.
         25    1    3    3    0    0  0.57450534402E+02  0.34191826719E+02  0.17994763060E+03  0.22638638359E+03  0.12000000000E+03 0.  0.
         25    1    3    3    0    0 -0.57450534402E+02 -0.34191826719E+02  0.14253062172E+03  0.19795106225E+03  0.12000000000E+03 0.  0.
<mgrwt>
<rscale>  0 0.27580799E+03</rscale>
<asrwt>0</asrwt>
<pdfrwt beam="1">  1        2 0.57447360E-01 0.27580799E+03</pdfrwt>
<pdfrwt beam="2">  1       -2 0.78353228E-02 0.27580799E+03</pdfrwt>
<totfact> 0.83541592E+03</totfact>
</mgrwt>
</event>
<event>
 5    1  0.1111501E+001  0.2749894E+03  0.7818608E-02  0.1098458E+00
         -2   -1    0    0    0  501 -0.00000000000E+00  0.00000000000E+00  0.34789139115E+02  0.34789139115E+02  0.00000000000E+00 0.  1.
          2   -1    0    0  501    0  0.00000000000E+00 -0.00000000000E+00 -0.54341076862E+03  0.54341076862E+03  0.00000000000E+00 0.  1.
         35    2    1    2    0    0  0.00000000000E+00  0.00000000000E+00 -0.50862162951E+03  0.57819990774E+03  0.27498940217E+03 0.  0.
         25    1    3    3    0    0 -0.35593929460E+02 -0.14379281049E+02 -0.37007181902E+03  0.39093073909E+03  0.12000000000E+03 0.  0.
         25    1    3    3    0    0  0.35593929460E+02  0.14379281049E+02 -0.13854981049E+03  0.18726916864E+03  0.12000000000E+03 0.  0.
<mgrwt>
<rscale>  0 0.27498940E+03</rscale>
<asrwt>0</asrwt>
<pdfrwt beam="1">  1        2 0.83601654E-01 0.27498940E+03</pdfrwt>
<pdfrwt beam="2">  1       -2 0.53521755E-02 0.27498940E+03</pdfrwt>
<totfact> 0.99350238E+03</totfact>
</mgrwt>
</event>
<event>
 5    1  0.1111501E+001  0.2748997E+03  0.7818608E-02  0.1098508E+00
          2   -1    0    0  501    0  0.00000000000E+00  0.00000000000E+00  0.43052246894E+02  0.43052246894E+02  0.00000000000E+00 0. -1.
         -2   -1    0    0    0  501 -0.00000000000E+00 -0.00000000000E+00 -0.43882644769E+03  0.43882644769E+03  0.00000000000E+00 0. -1.
         35    2    1    2    0    0  0.00000000000E+00  0.00000000000E+00 -0.39577420079E+03  0.48187869458E+03  0.27489972404E+03 0.  0.
         25    1    3    3    0    0  0.57260375089E+02 -0.28513501973E+02 -0.16279818374E+03  0.21212029365E+03  0.12000000000E+03 0.  0.
         25    1    3    3    0    0 -0.57260375089E+02  0.28513501973E+02 -0.23297601705E+03  0.26975840093E+03  0.12000000000E+03 0.  0.
<mgrwt>
<rscale>  0 0.27489972E+03</rscale>
<asrwt>0</asrwt>
<pdfrwt beam="1">  1        2 0.66234231E-02 0.27489972E+03</pdfrwt>
<pdfrwt beam="2">  1       -2 0.67511756E-01 0.27489972E+03</pdfrwt>
<totfact> 0.22322342E+03</totfact>
</mgrwt>
</event>
<event>
 5    1  0.1111501E+001  0.2751511E+03  0.7818608E-02  0.1098367E+00
          1   -1    0    0  501    0  0.00000000000E+00  0.00000000000E+00  0.38849366290E+03  0.38849366290E+03  0.00000000000E+00 0.  1.
         -1   -1    0    0    0  501 -0.00000000000E+00 -0.00000000000E+00 -0.48719018559E+02  0.48719018559E+02  0.00000000000E+00 0.  1.
         35    2    1    2    0    0  0.00000000000E+00  0.00000000000E+00  0.33977464434E+03  0.43721268146E+03  0.27515108557E+03 0.  0.
         25    1    3    3    0    0  0.16867493968E+02 -0.11305816336E+02  0.27181459494E+03  0.29781791058E+03  0.12000000000E+03 0.  0.
         25    1    3    3    0    0 -0.16867493968E+02  0.11305816336E+02  0.67960049401E+02  0.13939477089E+03  0.12000000000E+03 0.  0.
<mgrwt>
<rscale>  0 0.27515109E+03</rscale>
<asrwt>0</asrwt>
<pdfrwt beam="1">  1        1 0.59768254E-01 0.27515109E+03</pdfrwt>
<pdfrwt beam="2">  1       -1 0.74952339E-02 0.27515109E+03</pdfrwt>
<totfact> 0.59529728E+03</totfact>
</mgrwt>
</event>
<event>
 5    1  0.1111501E+001  0.2765907E+03  0.7818608E-02  0.1097566E+00
         -2   -1    0    0    0  501 -0.00000000000E+00  0.00000000000E+00  0.28015482310E+02  0.28015482310E+02  0.00000000000E+00 0. -1.
          2   -1    0    0  501    0  0.00000000000E+00 -0.00000000000E+00 -0.68267993589E+03  0.68267993589E+03  0.00000000000E+00 0. -1.
         35    2    1    2    0    0  0.00000000000E+00  0.00000000000E+00 -0.65466445358E+03  0.71069541820E+03  0.27659072773E+03 0.  0.
         25    1    3    3    0    0 -0.15811131440E+02  0.55817585002E+02 -0.23257389040E+03  0.26806008499E+03  0.12000000000E+03 0.  0.
         25    1    3    3    0    0  0.15811131440E+02 -0.55817585002E+02 -0.42209056318E+03  0.44263533320E+03  0.12000000000E+03 0.  0.
<mgrwt>
<rscale>  0 0.27659073E+03</rscale>
<asrwt>0</asrwt>
<pdfrwt beam="1">  1        2 0.10502768E+00 0.27659073E+03</pdfrwt>
<pdfrwt beam="2">  1       -2 0.43100741E-02 0.27659073E+03</pdfrwt>
<totfact> 0.10574243E+04</totfact>
</mgrwt>
</event>
<event>
 5    1  0.1111501E+001  0.2749762E+03  0.7818608E-02  0.1098465E+00
          2   -1    0    0  501    0  0.00000000000E+00  0.00000000000E+00  0.47695779700E+03  0.47695779700E+03  0.00000000000E+00 0. -1.
         -2   -1    0    0    0  501 -0.00000000000E+00 -0.00000000000E+00 -0.39632382307E+02  0.39632382307E+02  0.00000000000E+00 0. -1.
         35    2    1    2    0    0  0.00000000000E+00  0.00000000000E+00  0.43732541469E+03  0.51659017931E+03  0.27497617173E+03 0.  0.
         25    1    3    3    0    0 -0.15695742918E+02 -0.78587664610E+01  0.34034003838E+03  0.36130244710E+03  0.12000000000E+03 0.  0.
         25    1    3    3    0    0  0.15695742918E+02  0.78587664610E+01  0.96985376318E+02  0.15528773221E+03  0.12000000000E+03 0.  0.
<mgrwt>
<rscale>  0 0.27497617E+03</rscale>
<asrwt>0</asrwt>
<pdfrwt beam="1">  1        2 0.73378118E-01 0.27497617E+03</pdfrwt>
<pdfrwt beam="2">  1       -2 0.60972899E-02 0.27497617E+03</pdfrwt>
<totfact> 0.94221884E+03</totfact>
</mgrwt>
</event>
<event>
 5    1  0.1111501E+001  0.2756244E+03  0.7818608E-02  0.1098103E+00
         -2   -1    0    0    0  501 -0.00000000000E+00  0.00000000000E+00  0.45685011117E+02  0.45685011117E+02  0.00000000000E+00 0.  1.
          2   -1    0    0  501    0  0.00000000000E+00 -0.00000000000E+00 -0.41572063763E+03  0.41572063763E+03  0.00000000000E+00 0.  1.
         35    2    1    2    0    0  0.00000000000E+00  0.00000000000E+00 -0.37003562651E+03  0.46140564875E+03  0.27562439625E+03 0.  0.
         25    1    3    3    0    0 -0.37324842281E+02 -0.55783445133E+02 -0.16937963468E+03  0.21816140183E+03  0.12000000000E+03 0.  0.
         25    1    3    3    0    0  0.37324842281E+02  0.55783445133E+02 -0.20065599183E+03  0.24324424692E+03  0.12000000000E+03 0.  0.
<mgrwt>
<rscale>  0 0.27562440E+03</rscale>
<asrwt>0</asrwt>
<pdfrwt beam="1">  1        2 0.63957021E-01 0.27562440E+03</pdfrwt>
<pdfrwt beam="2">  1       -2 0.70284633E-02 0.27562440E+03</pdfrwt>
<totfact> 0.88031698E+03</totfact>
</mgrwt>
</event>
<event>
 5    1  0.1111501E+001  0.2748438E+03  0.7818608E-02  0.1098539E+00
         -2   -1    0    0    0  501 -0.00000000000E+00  0.00000000000E+00  0.63998156392E+01  0.63998156392E+01  0.00000000000E+00 0.  1.
          2   -1    0    0  501    0  0.00000000000E+00 -0.00000000000E+00 -0.29508326581E+04  0.29508326581E+04  0.00000000000E+00 0.  1.
         35    2    1    2    0    0  0.00000000000E+00  0.00000000000E+00 -0.29444328425E+04  0.29572324737E+04  0.27484384653E+03 0.  0.
         25    1    3    3    0    0  0.12351208633E+02 -0.62720489753E+02 -0.12574609238E+04  0.12647902542E+04  0.12000000000E+03 0.  0.
         25    1    3    3    0    0 -0.12351208633E+02  0.62720489753E+02 -0.16869719187E+04  0.16924422196E+04  0.12000000000E+03 0.  0.
<mgrwt>
<rscale>  0 0.27484385E+03</rscale>
<asrwt>0</asrwt>
<pdfrwt beam="1">  1        2 0.45397590E+00 0.27484385E+03</pdfrwt>
<pdfrwt beam="2">  1       -2 0.98458346E-03 0.27484385E+03</pdfrwt>
<totfact> 0.48578808E+03</totfact>
</mgrwt>
</event>
<event>
 5    1  0.1111501E+001  0.2748112E+03  0.7818608E-02  0.1098557E+00
          2   -1    0    0  501    0  0.00000000000E+00  0.00000000000E+00  0.49207195265E+03  0.49207195265E+03  0.00000000000E+00 0. -1.
         -2   -1    0    0    0  501 -0.00000000000E+00 -0.00000000000E+00 -0.38368967365E+02  0.38368967365E+02  0.00000000000E+00 0. -1.
         35    2    1    2    0    0  0.00000000000E+00  0.00000000000E+00  0.45370298529E+03  0.53044092002E+03  0.27481115474E+03 0.  0.
         25    1    3    3    0    0 -0.34907125707E+02 -0.56886464232E+02  0.21706336185E+03  0.25684836050E+03  0.12000000000E+03 0.  0.
         25    1    3    3    0    0  0.34907125707E+02  0.56886464232E+02  0.23663962344E+03  0.27359255951E+03  0.12000000000E+03 0.  0.
<mgrwt>
<rscale>  0 0.27481115E+03</rscale>
<asrwt>0</asrwt>
<pdfrwt beam="1">  1        2 0.75703373E-01 0.27481115E+03</pdfrwt>
<pdfrwt beam="2">  1       -2 0.59029184E-02 0.27481115E+03</pdfrwt>
<totfact> 0.95641588E+03</totfact>
</mgrwt>
</event>
<event>
 5    1  0.1111501E+001  0.2748544E+03  0.7818608E-02  0.1098533E+00
         -2   -1    0    0    0  501 -0.00000000000E+00  0.00000000000E+00  0.15879056054E+04  0.15879056054E+04  0.00000000000E+00 0. -1.
          2   -1    0    0  501    0  0.00000000000E+00 -0.00000000000E+00 -0.11893805078E+02  0.11893805078E+02  0.00000000000E+00 0. -1.
         35    2    1    2    0    0  0.00000000000E+00  0.00000000000E+00  0.15760118003E+04  0.15997994104E+04  0.27485443240E+03 0.  0.
         25    1    3    3    0    0 -0.36551073246E+02  0.51319217126E+02  0.92029943548E+03  0.93022615204E+03  0.12000000000E+03 0.  0.
         25    1    3    3    0    0  0.36551073246E+02 -0.51319217126E+02  0.65571236480E+03  0.66957325839E+03  0.12000000000E+03 0.  0.
<mgrwt>
<rscale>  0 0.27485443E+03</rscale>
<asrwt>0</asrwt>
<pdfrwt beam="1">  1        2 0.18298174E-02 0.27485443E+03</pdfrwt>
<pdfrwt beam="2">  1       -2 0.24429300E+00 0.27485443E+03</pdfrwt>
<totfact> 0.48024942E+02</totfact>
</mgrwt>
</event>
<event>
 5    1  0.1111501E+001  0.2794455E+03  0.7818608E-02  0.1095992E+00
         -2   -1    0    0    0  501 -0.00000000000E+00  0.00000000000E+00  0.10477207573E+02  0.10477207573E+02  0.00000000000E+00 0.  1.
          2   -1    0    0  501    0  0.00000000000E+00 -0.00000000000E+00 -0.18633255654E+04  0.18633255654E+04  0.00000000000E+00 0.  1.
         35    2    1    2    0    0  0.00000000000E+00  0.00000000000E+00 -0.18528483578E+04  0.18738027730E+04  0.27944551329E+03 0.  0.
         25    1    3    3    0    0  0.47846519434E+02  0.30306972493E+02 -0.63301677928E+03  0.64677511150E+03  0.12000000000E+03 0.  0.
         25    1    3    3    0    0 -0.47846519434E+02 -0.30306972493E+02 -0.12198315785E+04  0.12270276615E+04  0.12000000000E+03 0.  0.
<mgrwt>
<rscale>  0 0.27944551E+03</rscale>
<asrwt>0</asrwt>
<pdfrwt beam="1">  1        2 0.28666527E+00 0.27944551E+03</pdfrwt>
<pdfrwt beam="2">  1       -2 0.16118792E-02 0.27944551E+03</pdfrwt>
<totfact> 0.93095160E+03</totfact>
</mgrwt>
</event>
<event>
 5    1  0.1111501E+001  0.2742098E+03  0.7818608E-02  0.1098894E+00
         -2   -1    0    0    0  501 -0.00000000000E+00  0.00000000000E+00  0.13726993794E+02  0.13726993794E+02  0.00000000000E+00 0. -1.
          2   -1    0    0  501    0  0.00000000000E+00 -0.00000000000E+00 -0.13694004649E+04  0.13694004649E+04  0.00000000000E+00 0. -1.
         35    2    1    2    0    0  0.00000000000E+00  0.00000000000E+00 -0.13556734711E+04  0.13831274587E+04  0.27420978599E+03 0.  0.
         25    1    3    3    0    0 -0.21969157708E+02 -0.61094954832E+02 -0.60969272546E+03  0.62477232403E+03  0.12000000000E+03 0.  0.
         25    1    3    3    0    0  0.21969157708E+02  0.61094954832E+02 -0.74598074566E+03  0.75835513468E+03  0.12000000000E+03 0.  0.
<mgrwt>
<rscale>  0 0.27420979E+03</rscale>
<asrwt>0</asrwt>
<pdfrwt beam="1">  1        2 0.21067696E+00 0.27420979E+03</pdfrwt>
<pdfrwt beam="2">  1       -2 0.21118456E-02 0.27420979E+03</pdfrwt>
<totfact> 0.11452966E+04</totfact>
</mgrwt>
</event>
<event>
 5    1  0.1111501E+001  0.2750954E+03  0.7818608E-02  0.1098398E+00
         -1   -1    0    0    0  501 -0.00000000000E+00  0.00000000000E+00  0.13745571837E+03  0.13745571837E+03  0.00000000000E+00 0.  1.
          1   -1    0    0  501    0  0.00000000000E+00 -0.00000000000E+00 -0.13763971372E+03  0.13763971372E+03  0.00000000000E+00 0.  1.
         35    2    1    2    0    0  0.00000000000E+00  0.00000000000E+00 -0.18399534961E+00  0.27509543208E+03  0.27509537055E+03 0.  0.
         25    1    3    3    0    0 -0.25256556426E+02  0.14702320081E+02 -0.60633846888E+02  0.13758820897E+03  0.12000000000E+03 0.  0.
         25    1    3    3    0    0  0.25256556426E+02 -0.14702320081E+02  0.60449851539E+02  0.13750722312E+03  0.12000000000E+03 0.  0.
<mgrwt>
<rscale>  0 0.27509537E+03</rscale>
<asrwt>0</asrwt>
<pdfrwt beam="1">  1        1 0.21175341E-01 0.27509537E+03</pdfrwt>
<pdfrwt beam="2">  1       -1 0.21147033E-01 0.27509537E+03</pdfrwt>
<totfact> 0.43343068E+03</totfact>
</mgrwt>
</event>
<event>
 5    1  0.1111501E+001  0.2757586E+03  0.7818608E-02  0.1098028E+00
         -4   -1    0    0    0  501 -0.00000000000E+00  0.00000000000E+00  0.17355772744E+03  0.17355772744E+03  0.00000000000E+00 0. -1.
          4   -1    0    0  501    0  0.00000000000E+00 -0.00000000000E+00 -0.10953530654E+03  0.10953530654E+03  0.00000000000E+00 0. -1.
         35    2    1    2    0    0  0.00000000000E+00  0.00000000000E+00  0.64022420893E+02  0.28309303398E+03  0.27575858193E+03 0.  0.
         25    1    3    3    0    0 -0.23951208122E+01  0.25946704144E+02  0.96382474012E+02  0.15610429000E+03  0.12000000000E+03 0.  0.
         25    1    3    3    0    0  0.23951208122E+01 -0.25946704144E+02 -0.32360053119E+02  0.12698874398E+03  0.12000000000E+03 0.  0.
<mgrwt>
<rscale>  0 0.27575858E+03</rscale>
<asrwt>0</asrwt>
<pdfrwt beam="1">  1        4 0.16851586E-01 0.27575858E+03</pdfrwt>
<pdfrwt beam="2">  1       -4 0.26701189E-01 0.27575858E+03</pdfrwt>
<totfact> 0.76264985E+02</totfact>
</mgrwt>
</event>
<event>
 5    1  0.1111501E+001  0.2754236E+03  0.7818608E-02  0.1098215E+00
          3   -1    0    0  501    0  0.00000000000E+00  0.00000000000E+00  0.73256822869E+02  0.73256822869E+02  0.00000000000E+00 0. -1.
         -3   -1    0    0    0  501 -0.00000000000E+00 -0.00000000000E+00 -0.25887740067E+03  0.25887740067E+03  0.00000000000E+00 0. -1.
         35    2    1    2    0    0  0.00000000000E+00  0.00000000000E+00 -0.18562057780E+03  0.33213422354E+03  0.27542357115E+03 0.  0.
         25    1    3    3    0    0 -0.53430771522E+01 -0.64603273516E+02 -0.69853597726E+02  0.15323725571E+03  0.12000000000E+03 0.  0.
         25    1    3    3    0    0  0.53430771522E+01  0.64603273516E+02 -0.11576698008E+03  0.17889696783E+03  0.12000000000E+03 0.  0.
<mgrwt>
<rscale>  0 0.27542357E+03</rscale>
<asrwt>0</asrwt>
<pdfrwt beam="1">  1        3 0.11270280E-01 0.27542357E+03</pdfrwt>
<pdfrwt beam="2">  1       -3 0.39827293E-01 0.27542357E+03</pdfrwt>
<totfact> 0.96188461E+02</totfact>
</mgrwt>
</event>
<event>
 5    1  0.1111501E+001  0.2768812E+03  0.7818608E-02  0.1097405E+00
         -2   -1    0    0    0  501 -0.00000000000E+00  0.00000000000E+00  0.28115106943E+02  0.28115106943E+02  0.00000000000E+00 0.  1.
          2   -1    0    0  501    0  0.00000000000E+00 -0.00000000000E+00 -0.68169061252E+03  0.68169061252E+03  0.00000000000E+00 0.  1.
         35    2    1    2    0    0  0.00000000000E+00  0.00000000000E+00 -0.65357550557E+03  0.70980571946E+03  0.27688123427E+03 0.  0.
         25    1    3    3    0    0  0.14187292212E+02  0.22546235751E+02 -0.49005732289E+03  0.50523835140E+03  0.12000000000E+03 0.  0.
         25    1    3    3    0    0 -0.14187292212E+02 -0.22546235751E+02 -0.16351818269E+03  0.20456736806E+03  0.12000000000E+03 0.  0.
<mgrwt>
<rscale>  0 0.27688123E+03</rscale>
<asrwt>0</asrwt>
<pdfrwt beam="1">  1        2 0.10487548E+00 0.27688123E+03</pdfrwt>
<pdfrwt beam="2">  1       -2 0.43254011E-02 0.27688123E+03</pdfrwt>
<totfact> 0.10536513E+04</totfact>
</mgrwt>
</event>
<event>
 5    1  0.1111501E+001  0.2740830E+03  0.7818608E-02  0.1098965E+00
         -2   -1    0    0    0  501 -0.00000000000E+00  0.00000000000E+00  0.51401698500E+01  0.51401698500E+01  0.00000000000E+00 0.  1.
          2   -1    0    0  501    0  0.00000000000E+00 -0.00000000000E+00 -0.36536495739E+04  0.36536495739E+04  0.00000000000E+00 0.  1.
         35    2    1    2    0    0  0.00000000000E+00  0.00000000000E+00 -0.36485094040E+04  0.36587897437E+04  0.27408304860E+03 0.  0.
         25    1    3    3    0    0 -0.14515703181E+02 -0.16148172682E+01 -0.96252617165E+03  0.97008759625E+03  0.12000000000E+03 0.  0.
         25    1    3    3    0    0  0.14515703181E+02  0.16148172682E+01 -0.26859832324E+04  0.26887021475E+04  0.12000000000E+03 0.  0.
<mgrwt>
<rscale>  0 0.27408305E+03</rscale>
<asrwt>0</asrwt>
<pdfrwt beam="1">  1        2 0.56210213E+00 0.27408305E+03</pdfrwt>
<pdfrwt beam="2">  1       -2 0.79079227E-03 0.27408305E+03</pdfrwt>
<totfact> 0.23932203E+03</totfact>
</mgrwt>
</event>
<event>
 5    1  0.1111501E+001  0.2761398E+03  0.7818608E-02  0.1097816E+00
         -1   -1    0    0    0  501 -0.00000000000E+00  0.00000000000E+00  0.93006391516E+03  0.93006391516E+03  0.00000000000E+00 0. -1.
          1   -1    0    0  501    0  0.00000000000E+00 -0.00000000000E+00 -0.20496758137E+02  0.20496758137E+02  0.00000000000E+00 0. -1.
         35    2    1    2    0    0  0.00000000000E+00  0.00000000000E+00  0.90956715703E+03  0.95056067330E+03  0.27613978432E+03 0.  0.
         25    1    3    3    0    0  0.30066401868E+02  0.42676093480E+02  0.30324116258E+03  0.33027328103E+03  0.12000000000E+03 0.  0.
         25    1    3    3    0    0 -0.30066401868E+02 -0.42676093480E+02  0.60632599444E+03  0.62028739227E+03  0.12000000000E+03 0.  0.
<mgrwt>
<rscale>  0 0.27613978E+03</rscale>
<asrwt>0</asrwt>
<pdfrwt beam="1">  1        1 0.31533481E-02 0.27613978E+03</pdfrwt>
<pdfrwt beam="2">  1       -1 0.14308672E+00 0.27613978E+03</pdfrwt>
<totfact> 0.13577616E+03</totfact>
</mgrwt>
</event>
<event>
 4    1  0.1111501E+001  0.2919599E+03  0.7818608E-02  0.1089330E+00
         -1   -1    0    0    0  501 -0.00000000000E+00  0.00000000000E+00  0.10719048688E+02  0.10719048688E+02  0.00000000000E+00 0.  1.
          1   -1    0    0  501    0  0.00000000000E+00 -0.00000000000E+00 -0.19880627903E+04  0.19880627903E+04  0.00000000000E+00 0.  1.
         25    1    1    2    0    0  0.56747149950E+02 -0.60734236550E+02 -0.99634231802E+03  0.10069790967E+04  0.12000000000E+03 0.  0.
         25    1    1    2    0    0 -0.56747149950E+02  0.60734236550E+02 -0.98100142358E+03  0.99180274227E+03  0.12000000000E+03 0.  0.
<mgrwt>
<rscale>  0 0.29195987E+03</rscale>
<asrwt>0</asrwt>
<pdfrwt beam="1">  1        1 0.30585565E+00 0.29195987E+03</pdfrwt>
<pdfrwt beam="2">  1       -1 0.16490853E-02 0.29195987E+03</pdfrwt>
<totfact> 0.31212843E+03</totfact>
</mgrwt>
</event>
<event>
 5    1  0.1111501E+001  0.2764869E+03  0.7818608E-02  0.1097623E+00
         -1   -1    0    0    0  501 -0.00000000000E+00  0.00000000000E+00  0.10013996506E+02  0.10013996506E+02  0.00000000000E+00 0. -1.
          1   -1    0    0  501    0  0.00000000000E+00 -0.00000000000E+00 -0.19084544386E+04  0.19084544386E+04  0.00000000000E+00 0. -1.
         35    2    1    2    0    0  0.00000000000E+00  0.00000000000E+00 -0.18984404421E+04  0.19184684351E+04  0.27648693335E+03 0.  0.
         25    1    3    3    0    0 -0.32350646739E+02  0.60191587034E+02 -0.90443202451E+03  0.91491359071E+03  0.12000000000E+03 0.  0.
         25    1    3    3    0    0  0.32350646739E+02 -0.60191587034E+02 -0.99400841755E+03  0.10035548444E+04  0.12000000000E+03 0.  0.
<mgrwt>
<rscale>  0 0.27648693E+03</rscale>
<asrwt>0</asrwt>
<pdfrwt beam="1">  1        1 0.29360823E+00 0.27648693E+03</pdfrwt>
<pdfrwt beam="2">  1       -1 0.15406156E-02 0.27648693E+03</pdfrwt>
<totfact> 0.38837107E+03</totfact>
</mgrwt>
</event>
<event>
 5    1  0.1111501E+001  0.2773498E+03  0.7818608E-02  0.1097145E+00
          1   -1    0    0  501    0  0.00000000000E+00  0.00000000000E+00  0.30460376039E+04  0.30460376039E+04  0.00000000000E+00 0.  1.
         -1   -1    0    0    0  501 -0.00000000000E+00 -0.00000000000E+00 -0.63133579775E+01  0.63133579775E+01  0.00000000000E+00 0.  1.
         35    2    1    2    0    0  0.00000000000E+00  0.00000000000E+00  0.30397242459E+04  0.30523509619E+04  0.27734978497E+03 0.  0.
         25    1    3    3    0    0 -0.60649603571E+02  0.29364368789E+02  0.17073052191E+04  0.17128431778E+04  0.12000000000E+03 0.  0.
         25    1    3    3    0    0  0.60649603571E+02 -0.29364368789E+02  0.13324190269E+04  0.13395077841E+04  0.12000000000E+03 0.  0.
<mgrwt>
<rscale>  0 0.27734978E+03</rscale>
<asrwt>0</asrwt>
<pdfrwt beam="1">  1        1 0.46862000E+00 0.27734978E+03</pdfrwt>
<pdfrwt beam="2">  1       -1 0.97128828E-03 0.27734978E+03</pdfrwt>
<totfact> 0.13178377E+03</totfact>
</mgrwt>
</event>
<event>
 5    1  0.1111501E+001  0.2750684E+03  0.7818608E-02  0.1098413E+00
         -2   -1    0    0    0  501 -0.00000000000E+00  0.00000000000E+00  0.25976943445E+02  0.25976943445E+02  0.00000000000E+00 0. -1.
          2   -1    0    0  501    0  0.00000000000E+00 -0.00000000000E+00 -0.72817099853E+03  0.72817099853E+03  0.00000000000E+00 0. -1.
         35    2    1    2    0    0  0.00000000000E+00  0.00000000000E+00 -0.70219405508E+03  0.75414794197E+03  0.27506840493E+03 0.  0.
         25    1    3    3    0    0 -0.13078901124E+01 -0.83357237639E+01 -0.53387566641E+03  0.54726083548E+03  0.12000000000E+03 0.  0.
         25    1    3    3    0    0  0.13078901124E+01  0.83357237639E+01 -0.16831838867E+03  0.20688710649E+03  0.12000000000E+03 0.  0.
<mgrwt>
<rscale>  0 0.27506840E+03</rscale>
<asrwt>0</asrwt>
<pdfrwt beam="1">  1        2 0.11202632E+00 0.27506840E+03</pdfrwt>
<pdfrwt beam="2">  1       -2 0.39964523E-02 0.27506840E+03</pdfrwt>
<totfact> 0.10952472E+04</totfact>
</mgrwt>
</event>
<event>
 5    1  0.1111501E+001  0.2753301E+03  0.7818608E-02  0.1098267E+00
         -2   -1    0    0    0  501 -0.00000000000E+00  0.00000000000E+00  0.83983790799E+02  0.83983790799E+02  0.00000000000E+00 0. -1.
          2   -1    0    0  501    0  0.00000000000E+00 -0.00000000000E+00 -0.22565855547E+03  0.22565855547E+03  0.00000000000E+00 0. -1.
         35    2    1    2    0    0  0.00000000000E+00  0.00000000000E+00 -0.14167476467E+03  0.30964234627E+03  0.27533006312E+03 0.  0.
         25    1    3    3    0    0  0.25366937950E+02 -0.58738195196E+02 -0.94905451738E+02  0.16583335577E+03  0.12000000000E+03 0.  0.
         25    1    3    3    0    0 -0.25366937950E+02  0.58738195196E+02 -0.46769312928E+02  0.14380899050E+03  0.12000000000E+03 0.  0.
<mgrwt>
<rscale>  0 0.27533006E+03</rscale>
<asrwt>0</asrwt>
<pdfrwt beam="1">  1        2 0.34716701E-01 0.27533006E+03</pdfrwt>
<pdfrwt beam="2">  1       -2 0.12920583E-01 0.27533006E+03</pdfrwt>
<totfact> 0.64892315E+03</totfact>
</mgrwt>
</event>
<event>
 5    1  0.1111501E+001  0.2757558E+03  0.7818608E-02  0.1098030E+00
         -2   -1    0    0    0  501 -0.00000000000E+00  0.00000000000E+00  0.11461920611E+02  0.11461920611E+02  0.00000000000E+00 0. -1.
          2   -1    0    0  501    0  0.00000000000E+00 -0.00000000000E+00 -0.16585631972E+04  0.16585631972E+04  0.00000000000E+00 0. -1.
         35    2    1    2    0    0  0.00000000000E+00  0.00000000000E+00 -0.16471012766E+04  0.16700251179E+04  0.27575583181E+03 0.  0.
         25    1    3    3    0    0 -0.58182143569E+02 -0.12040579885E+02 -0.62450767644E+03  0.63870178904E+03  0.12000000000E+03 0.  0.
         25    1    3    3    0    0  0.58182143569E+02  0.12040579885E+02 -0.10225936002E+04  0.10313233288E+04  0.12000000000E+03 0.  0.
<mgrwt>
<rscale>  0 0.27575583E+03</rscale>
<asrwt>0</asrwt>
<pdfrwt beam="1">  1        2 0.25516347E+00 0.27575583E+03</pdfrwt>
<pdfrwt beam="2">  1       -2 0.17633731E-02 0.27575583E+03</pdfrwt>
<totfact> 0.10455264E+04</totfact>
</mgrwt>
</event>
<event>
 5    1  0.1111501E+001  0.2746199E+03  0.7818608E-02  0.1098664E+00
          3   -1    0    0  501    0  0.00000000000E+00  0.00000000000E+00  0.12396316084E+03  0.12396316084E+03  0.00000000000E+00 0.  1.
         -3   -1    0    0    0  501 -0.00000000000E+00 -0.00000000000E+00 -0.15209370359E+03  0.15209370359E+03  0.00000000000E+00 0.  1.
         35    2    1    2    0    0  0.00000000000E+00  0.00000000000E+00 -0.28130542757E+02  0.27605686443E+03  0.27461985537E+03 0.  0.
         25    1    3    3    0    0 -0.10449906158E+02  0.65873746736E+02 -0.11715263238E+02  0.13778896342E+03  0.12000000000E+03 0.  0.
         25    1    3    3    0    0  0.10449906158E+02 -0.65873746736E+02 -0.16415279519E+02  0.13826790101E+03  0.12000000000E+03 0.  0.
<mgrwt>
<rscale>  0 0.27461986E+03</rscale>
<asrwt>0</asrwt>
<pdfrwt beam="1">  1        3 0.19071256E-01 0.27461986E+03</pdfrwt>
<pdfrwt beam="2">  1       -3 0.23399031E-01 0.27461986E+03</pdfrwt>
<totfact> 0.10517312E+03</totfact>
</mgrwt>
</event>
<event>
 5    1  0.1111501E+001  0.2731112E+03  0.7818608E-02  0.1099512E+00
         -2   -1    0    0    0  501 -0.00000000000E+00  0.00000000000E+00  0.20711569914E+03  0.20711569914E+03  0.00000000000E+00 0.  1.
          2   -1    0    0  501    0  0.00000000000E+00 -0.00000000000E+00 -0.90033886495E+02  0.90033886495E+02  0.00000000000E+00 0.  1.
         35    2    1    2    0    0  0.00000000000E+00  0.00000000000E+00  0.11708181265E+03  0.29714958564E+03  0.27311119602E+03 0.  0.
         25    1    3    3    0    0  0.12071509994E+02 -0.60992504687E+01 -0.10823979699E+02  0.12124388952E+03  0.12000000000E+03 0.  0.
         25    1    3    3    0    0 -0.12071509994E+02  0.60992504687E+01  0.12790579235E+03  0.17590569611E+03  0.12000000000E+03 0.  0.
<mgrwt>
<rscale>  0 0.27311120E+03</rscale>
<asrwt>0</asrwt>
<pdfrwt beam="1">  1        2 0.13851367E-01 0.27311120E+03</pdfrwt>
<pdfrwt beam="2">  1       -2 0.31863954E-01 0.27311120E+03</pdfrwt>
<totfact> 0.39030615E+03</totfact>
</mgrwt>
</event>
<event>
 5    1  0.1111501E+001  0.2759473E+03  0.7818608E-02  0.1097923E+00
          1   -1    0    0  501    0  0.00000000000E+00  0.00000000000E+00  0.71833009362E+03  0.71833009362E+03  0.00000000000E+00 0. -1.
         -1   -1    0    0    0  501 -0.00000000000E+00 -0.00000000000E+00 -0.26501373358E+02  0.26501373358E+02  0.00000000000E+00 0. -1.
         35    2    1    2    0    0  0.00000000000E+00  0.00000000000E+00  0.69182872026E+03  0.74483146698E+03  0.27594734284E+03 0.  0.
         25    1    3    3    0    0 -0.17926422330E+01  0.68068227624E+02  0.34460080829E+03  0.37119565495E+03  0.12000000000E+03 0.  0.
         25    1    3    3    0    0  0.17926422330E+01 -0.68068227624E+02  0.34722791197E+03  0.37363581203E+03  0.12000000000E+03 0.  0.
<mgrwt>
<rscale>  0 0.27594734E+03</rscale>
<asrwt>0</asrwt>
<pdfrwt beam="1">  1        1 0.11051231E+00 0.27594734E+03</pdfrwt>
<pdfrwt beam="2">  1       -1 0.40771349E-02 0.27594734E+03</pdfrwt>
<totfact> 0.64689785E+03</totfact>
</mgrwt>
</event>
<event>
 5    1  0.1111501E+001  0.2757827E+03  0.7818608E-02  0.1098015E+00
         -1   -1    0    0    0  501 -0.00000000000E+00  0.00000000000E+00  0.16199353255E+03  0.16199353255E+03  0.00000000000E+00 0. -1.
          1   -1    0    0  501    0  0.00000000000E+00 -0.00000000000E+00 -0.11737521007E+03  0.11737521007E+03  0.00000000000E+00 0. -1.
         35    2    1    2    0    0  0.00000000000E+00  0.00000000000E+00  0.44618322474E+02  0.27936874262E+03  0.27578270369E+03 0.  0.
         25    1    3    3    0    0 -0.62448633306E+02  0.21789427926E+02  0.66349568006E+01  0.13718102501E+03  0.12000000000E+03 0.  0.
         25    1    3    3    0    0  0.62448633306E+02 -0.21789427926E+02  0.37983365673E+02  0.14218771761E+03  0.12000000000E+03 0.  0.
<mgrwt>
<rscale>  0 0.27578270E+03</rscale>
<asrwt>0</asrwt>
<pdfrwt beam="1">  1        1 0.18057725E-01 0.27578270E+03</pdfrwt>
<pdfrwt beam="2">  1       -1 0.24922082E-01 0.27578270E+03</pdfrwt>
<totfact> 0.40609954E+03</totfact>
</mgrwt>
</event>
<event>
 5    1  0.1111501E+001  0.2740172E+03  0.7818608E-02  0.1099002E+00
          2   -1    0    0  501    0  0.00000000000E+00  0.00000000000E+00  0.49306670600E+03  0.49306670600E+03  0.00000000000E+00 0. -1.
         -2   -1    0    0    0  501 -0.00000000000E+00 -0.00000000000E+00 -0.38070630825E+02  0.38070630825E+02  0.00000000000E+00 0. -1.
         35    2    1    2    0    0  0.00000000000E+00  0.00000000000E+00  0.45499607518E+03  0.53113733683E+03  0.27401722965E+03 0.  0.
         25    1    3    3    0    0  0.57374870844E+02  0.24676960103E+02  0.26954394352E+03  0.30158707806E+03  0.12000000000E+03 0.  0.
         25    1    3    3    0    0 -0.57374870844E+02 -0.24676960103E+02  0.18545213166E+03  0.22955025877E+03  0.12000000000E+03 0.  0.
<mgrwt>
<rscale>  0 0.27401723E+03</rscale>
<asrwt>0</asrwt>
<pdfrwt beam="1">  1        2 0.75856412E-01 0.27401723E+03</pdfrwt>
<pdfrwt beam="2">  1       -2 0.58570205E-02 0.27401723E+03</pdfrwt>
<totfact> 0.96563724E+03</totfact>
</mgrwt>
</event>
<event>
 5    1  0.1111501E+001  0.2755195E+03  0.7818608E-02  0.1098162E+00
         -2   -1    0    0    0  501 -0.00000000000E+00  0.00000000000E+00  0.45922235768E+03  0.45922235768E+03  0.00000000000E+00 0. -1.
          2   -1    0    0  501    0  0.00000000000E+00 -0.00000000000E+00 -0.41325833833E+02  0.41325833833E+02  0.00000000000E+00 0. -1.
         35    2    1    2    0    0  0.00000000000E+00  0.00000000000E+00  0.41789652385E+03  0.50054819151E+03  0.27551948640E+03 0.  0.
         25    1    3    3    0    0 -0.52040537812E+02  0.14360502632E+02  0.13485485691E+03  0.18841516405E+03  0.12000000000E+03 0.  0.
         25    1    3    3    0    0  0.52040537812E+02 -0.14360502632E+02  0.28304166693E+03  0.31213302746E+03  0.12000000000E+03 0.  0.
<mgrwt>
<rscale>  0 0.27551949E+03</rscale>
<asrwt>0</asrwt>
<pdfrwt beam="1">  1        2 0.63578209E-02 0.27551949E+03</pdfrwt>
<pdfrwt beam="2">  1       -2 0.70649590E-01 0.27551949E+03</pdfrwt>
<totfact> 0.21363332E+03</totfact>
</mgrwt>
</event>
<event>
 5    1  0.1111501E+001  0.2756279E+03  0.7818608E-02  0.1098101E+00
          2   -1    0    0  501    0  0.00000000000E+00  0.00000000000E+00  0.80195400816E+03  0.80195400816E+03  0.00000000000E+00 0. -1.
         -2   -1    0    0    0  501 -0.00000000000E+00 -0.00000000000E+00 -0.23683003246E+02  0.23683003246E+02  0.00000000000E+00 0. -1.
         35    2    1    2    0    0  0.00000000000E+00  0.00000000000E+00  0.77827100491E+03  0.82563701140E+03  0.27562786055E+03 0.  0.
         25    1    3    3    0    0  0.14842890229E+02 -0.12095296665E+02  0.58386622444E+03  0.59637771222E+03  0.12000000000E+03 0.  0.
         25    1    3    3    0    0 -0.14842890229E+02  0.12095296665E+02  0.19440478047E+03  0.22925929918E+03  0.12000000000E+03 0.  0.
<mgrwt>
<rscale>  0 0.27562786E+03</rscale>
<asrwt>0</asrwt>
<pdfrwt beam="1">  1        2 0.12337752E+00 0.27562786E+03</pdfrwt>
<pdfrwt beam="2">  1       -2 0.36435396E-02 0.27562786E+03</pdfrwt>
<totfact> 0.11152742E+04</totfact>
</mgrwt>
</event>
<event>
 5    1  0.1111501E+001  0.2759960E+03  0.7818608E-02  0.1097896E+00
         -2   -1    0    0    0  501 -0.00000000000E+00  0.00000000000E+00  0.22796636383E+02  0.22796636383E+02  0.00000000000E+00 0. -1.
          2   -1    0    0  501    0  0.00000000000E+00 -0.00000000000E+00 -0.83536225837E+03  0.83536225837E+03  0.00000000000E+00 0. -1.
         35    2    1    2    0    0  0.00000000000E+00  0.00000000000E+00 -0.81256562198E+03  0.85815889475E+03  0.27599601194E+03 0.  0.
         25    1    3    3    0    0 -0.60546145688E+02  0.31253988350E+02 -0.40906752766E+03  0.43171621435E+03  0.12000000000E+03 0.  0.
         25    1    3    3    0    0  0.60546145688E+02 -0.31253988350E+02 -0.40349809432E+03  0.42644268040E+03  0.12000000000E+03 0.  0.
<mgrwt>
<rscale>  0 0.27599601E+03</rscale>
<asrwt>0</asrwt>
<pdfrwt beam="1">  1        2 0.12851728E+00 0.27599601E+03</pdfrwt>
<pdfrwt beam="2">  1       -2 0.35071746E-02 0.27599601E+03</pdfrwt>
<totfact> 0.11205659E+04</totfact>
</mgrwt>
</event>
<event>
 5    1  0.1111501E+001  0.2747365E+03  0.7818608E-02  0.1098599E+00
         -1   -1    0    0    0  501 -0.00000000000E+00  0.00000000000E+00  0.21499509281E+03  0.21499509281E+03  0.00000000000E+00 0. -1.
          1   -1    0    0  501    0  0.00000000000E+00 -0.00000000000E+00 -0.87769634039E+02  0.87769634039E+02  0.00000000000E+00 0. -1.
         35    2    1    2    0    0  0.00000000000E+00  0.00000000000E+00  0.12722545877E+03  0.30276472685E+03  0.27473653282E+03 0.  0.
         25    1    3    3    0    0 -0.51796787030E+02 -0.87887073750E+01  0.18043339321E+02  0.13223354574E+03  0.12000000000E+03 0.  0.
         25    1    3    3    0    0  0.51796787030E+02  0.87887073750E+01  0.10918211945E+03  0.17053118111E+03  0.12000000000E+03 0.  0.
<mgrwt>
<rscale>  0 0.27473653E+03</rscale>
<asrwt>0</asrwt>
<pdfrwt beam="1">  1        1 0.13503021E-01 0.27473653E+03</pdfrwt>
<pdfrwt beam="2">  1       -1 0.33076168E-01 0.27473653E+03</pdfrwt>
<totfact> 0.36795807E+03</totfact>
</mgrwt>
</event>
<event>
 5    1  0.1111501E+001  0.2736120E+03  0.7818608E-02  0.1099230E+00
          1   -1    0    0  501    0  0.00000000000E+00  0.00000000000E+00  0.37988209589E+03  0.37988209589E+03  0.00000000000E+00 0. -1.
         -1   -1    0    0    0  501 -0.00000000000E+00 -0.00000000000E+00 -0.49267598137E+02  0.49267598137E+02  0.00000000000E+00 0. -1.
         35    2    1    2    0    0  0.00000000000E+00  0.00000000000E+00  0.33061449775E+03  0.42914969402E+03  0.27361197663E+03 0.  0.
         25    1    3    3    0    0 -0.16085855513E+02 -0.57888618023E+02  0.20698322416E+03  0.24668178273E+03  0.12000000000E+03 0.  0.
         25    1    3    3    0    0  0.16085855513E+02  0.57888618023E+02  0.12363127359E+03  0.18246791130E+03  0.12000000000E+03 0.  0.
<mgrwt>
<rscale>  0 0.27361198E+03</rscale>
<asrwt>0</asrwt>
<pdfrwt beam="1">  1        1 0.58443397E-01 0.27361198E+03</pdfrwt>
<pdfrwt beam="2">  1       -1 0.75796307E-02 0.27361198E+03</pdfrwt>
<totfact> 0.60211864E+03</totfact>
</mgrwt>
</event>
<event>
 5    1  0.1111501E+001  0.2745105E+03  0.7818608E-02  0.1098726E+00
         -2   -1    0    0    0  501 -0.00000000000E+00  0.00000000000E+00  0.43408803953E+02  0.43408803953E+02  0.00000000000E+00 0. -1.
          2   -1    0    0  501    0  0.00000000000E+00 -0.00000000000E+00 -0.43399051201E+03  0.43399051201E+03  0.00000000000E+00 0. -1.
         35    2    1    2    0    0  0.00000000000E+00  0.00000000000E+00 -0.39058170806E+03  0.47739931597E+03  0.27451053935E+03 0.  0.
         25    1    3    3    0    0 -0.44708139274E+02  0.20480552253E+02 -0.27346763925E+03  0.30265957850E+03  0.12000000000E+03 0.  0.
         25    1    3    3    0    0  0.44708139274E+02 -0.20480552253E+02 -0.11711406880E+03  0.17473973747E+03  0.12000000000E+03 0.  0.
<mgrwt>
<rscale>  0 0.27451054E+03</rscale>
<asrwt>0</asrwt>
<pdfrwt beam="1">  1        2 0.66767770E-01 0.27451054E+03</pdfrwt>
<pdfrwt beam="2">  1       -2 0.66782776E-02 0.27451054E+03</pdfrwt>
<totfact> 0.90880878E+03</totfact>
</mgrwt>
</event>
<event>
 5    1  0.1111501E+001  0.2744943E+03  0.7818608E-02  0.1098735E+00
         -2   -1    0    0    0  501 -0.00000000000E+00  0.00000000000E+00  0.16720751536E+02  0.16720751536E+02  0.00000000000E+00 0.  1.
          2   -1    0    0  501    0  0.00000000000E+00 -0.00000000000E+00 -0.11265511429E+04  0.11265511429E+04  0.00000000000E+00 0.  1.
         35    2    1    2    0    0  0.00000000000E+00  0.00000000000E+00 -0.11098303913E+04  0.11432718944E+04  0.27449431143E+03 0.  0.
         25    1    3    3    0    0  0.34173455518E+02 -0.44734537120E+02 -0.70321403883E+03  0.71559694541E+03  0.12000000000E+03 0.  0.
         25    1    3    3    0    0 -0.34173455518E+02  0.44734537120E+02 -0.40661635250E+03  0.42767494899E+03  0.12000000000E+03 0.  0.
<mgrwt>
<rscale>  0 0.27449431E+03</rscale>
<asrwt>0</asrwt>
<pdfrwt beam="1">  1        2 0.17331549E+00 0.27449431E+03</pdfrwt>
<pdfrwt beam="2">  1       -2 0.25724243E-02 0.27449431E+03</pdfrwt>
<totfact> 0.11716762E+04</totfact>
</mgrwt>
</event>
<event>
 5    1  0.1111501E+001  0.2753340E+03  0.7818608E-02  0.1098265E+00
          1   -1    0    0  501    0  0.00000000000E+00  0.00000000000E+00  0.15007387165E+04  0.15007387165E+04  0.00000000000E+00 0.  1.
         -1   -1    0    0    0  501 -0.00000000000E+00 -0.00000000000E+00 -0.12628582810E+02  0.12628582810E+02  0.00000000000E+00 0.  1.
         35    2    1    2    0    0  0.00000000000E+00  0.00000000000E+00  0.14881101337E+04  0.15133672993E+04  0.27533400195E+03 0.  0.
         25    1    3    3    0    0  0.14666767810E+02  0.41531027455E+02  0.46312842069E+03  0.48044549573E+03  0.12000000000E+03 0.  0.
         25    1    3    3    0    0 -0.14666767810E+02 -0.41531027455E+02  0.10249817130E+04  0.10329218036E+04  0.12000000000E+03 0.  0.
<mgrwt>
<rscale>  0 0.27533400E+03</rscale>
<asrwt>0</asrwt>
<pdfrwt beam="1">  1        1 0.23088274E+00 0.27533400E+03</pdfrwt>
<pdfrwt beam="2">  1       -1 0.19428601E-02 0.27533400E+03</pdfrwt>
<totfact> 0.51141125E+03</totfact>
</mgrwt>
</event>
<event>
 5    1  0.1111501E+001  0.2729237E+03  0.7818608E-02  0.1099618E+00
         -1   -1    0    0    0  501 -0.00000000000E+00  0.00000000000E+00  0.51891972992E+02  0.51891972992E+02  0.00000000000E+00 0.  1.
          1   -1    0    0  501    0  0.00000000000E+00 -0.00000000000E+00 -0.35885768006E+03  0.35885768006E+03  0.00000000000E+00 0.  1.
         35    2    1    2    0    0  0.00000000000E+00  0.00000000000E+00 -0.30696570707E+03  0.41074965305E+03  0.27292367462E+03 0.  0.
         25    1    3    3    0    0 -0.47016601763E+02 -0.24413938375E+02 -0.96865471145E+02  0.16306293487E+03  0.12000000000E+03 0.  0.
         25    1    3    3    0    0  0.47016601763E+02  0.24413938375E+02 -0.21010023592E+03  0.24768671818E+03  0.12000000000E+03 0.  0.
<mgrwt>
<rscale>  0 0.27292367E+03</rscale>
<asrwt>0</asrwt>
<pdfrwt beam="1">  1        1 0.55208873E-01 0.27292367E+03</pdfrwt>
<pdfrwt beam="2">  1       -1 0.79833806E-02 0.27292367E+03</pdfrwt>
<totfact> 0.59806445E+03</totfact>
</mgrwt>
</event>
<event>
 5    1  0.1111501E+001  0.2768808E+03  0.7818608E-02  0.1097405E+00
          1   -1    0    0  501    0  0.00000000000E+00  0.00000000000E+00  0.16807241801E+03  0.16807241801E+03  0.00000000000E+00 0. -1.
         -1   -1    0    0    0  501 -0.00000000000E+00 -0.00000000000E+00 -0.11403265810E+03  0.11403265810E+03  0.00000000000E+00 0. -1.
         35    2    1    2    0    0  0.00000000000E+00  0.00000000000E+00  0.54039759911E+02  0.28210507610E+03  0.27688080163E+03 0.  0.
         25    1    3    3    0    0  0.19235119886E+02  0.31478800910E-01  0.94571339150E+02  0.15399262650E+03  0.12000000000E+03 0.  0.
         25    1    3    3    0    0 -0.19235119886E+02 -0.31478800910E-01 -0.40531579239E+02  0.12811244960E+03  0.12000000000E+03 0.  0.
<mgrwt>
<rscale>  0 0.27688080E+03</rscale>
<asrwt>0</asrwt>
<pdfrwt beam="1">  1        1 0.25857295E-01 0.27688080E+03</pdfrwt>
<pdfrwt beam="2">  1       -1 0.17543486E-01 0.27688080E+03</pdfrwt>
<totfact> 0.45462286E+03</totfact>
</mgrwt>
</event>
<event>
 5    1  0.1111501E+001  0.2748423E+03  0.7818608E-02  0.1098540E+00
         -4   -1    0    0    0  501 -0.00000000000E+00  0.00000000000E+00  0.42076075112E+03  0.42076075112E+03  0.00000000000E+00 0. -1.
          4   -1    0    0  501    0  0.00000000000E+00 -0.00000000000E+00 -0.44881968415E+02  0.44881968415E+02  0.00000000000E+00 0. -1.
         35    2    1    2    0    0  0.00000000000E+00  0.00000000000E+00  0.37587878270E+03  0.46564271953E+03  0.27484228744E+03 0.  0.
         25    1    3    3    0    0 -0.13675604783E+02  0.62226270493E+02  0.22288465641E+03  0.26103007675E+03  0.12000000000E+03 0.  0.
         25    1    3    3    0    0  0.13675604783E+02 -0.62226270493E+02  0.15299412629E+03  0.20461264278E+03  0.12000000000E+03 0.  0.
<mgrwt>
<rscale>  0 0.27484229E+03</rscale>
<asrwt>0</asrwt>
<pdfrwt beam="1">  1        4 0.69049185E-02 0.27484229E+03</pdfrwt>
<pdfrwt beam="2">  1       -4 0.64732421E-01 0.27484229E+03</pdfrwt>
<totfact> 0.59604110E+02</totfact>
</mgrwt>
</event>
<event>
 5    1  0.1111501E+001  0.2751674E+03  0.7818608E-02  0.1098358E+00
         -3   -1    0    0    0  501 -0.00000000000E+00  0.00000000000E+00  0.77584877619E+02  0.77584877619E+02  0.00000000000E+00 0.  1.
          3   -1    0    0  501    0  0.00000000000E+00 -0.00000000000E+00 -0.24398147356E+03  0.24398147356E+03  0.00000000000E+00 0.  1.
         35    2    1    2    0    0  0.00000000000E+00  0.00000000000E+00 -0.16639659594E+03  0.32156635118E+03  0.27516738737E+03 0.  0.
         25    1    3    3    0    0 -0.66248118681E+02 -0.10605896570E+02 -0.89379241526E+02  0.16398154496E+03  0.12000000000E+03 0.  0.
         25    1    3    3    0    0  0.66248118681E+02  0.10605896570E+02 -0.77017354417E+02  0.15758480622E+03  0.12000000000E+03 0.  0.
<mgrwt>
<rscale>  0 0.27516739E+03</rscale>
<asrwt>0</asrwt>
<pdfrwt beam="1">  1        3 0.37535612E-01 0.27516739E+03</pdfrwt>
<pdfrwt beam="2">  1       -3 0.11936135E-01 0.27516739E+03</pdfrwt>
<totfact> 0.97935895E+02</totfact>
</mgrwt>
</event>
<event>
 5    1  0.1111501E+001  0.2735808E+03  0.7818608E-02  0.1099248E+00
          1   -1    0    0  501    0  0.00000000000E+00  0.00000000000E+00  0.12583621534E+04  0.12583621534E+04  0.00000000000E+00 0. -1.
         -1   -1    0    0    0  501 -0.00000000000E+00 -0.00000000000E+00 -0.14869813258E+02  0.14869813258E+02  0.00000000000E+00 0. -1.
         35    2    1    2    0    0  0.00000000000E+00  0.00000000000E+00  0.12434923402E+04  0.12732319667E+04  0.27358077588E+03 0.  0.
         25    1    3    3    0    0  0.37501671062E+02 -0.41245942517E+02  0.78323276813E+03  0.79433064412E+03  0.12000000000E+03 0.  0.
         25    1    3    3    0    0 -0.37501671062E+02  0.41245942517E+02  0.46025957203E+03  0.47890132256E+03  0.12000000000E+03 0.  0.
<mgrwt>
<rscale>  0 0.27358078E+03</rscale>
<asrwt>0</asrwt>
<pdfrwt beam="1">  1        1 0.19359409E+00 0.27358078E+03</pdfrwt>
<pdfrwt beam="2">  1       -1 0.22876646E-02 0.27358078E+03</pdfrwt>
<totfact> 0.58669146E+03</totfact>
</mgrwt>
</event>
<event>
 5    1  0.1111501E+001  0.2765790E+03  0.7818608E-02  0.1097572E+00
         -2   -1    0    0    0  501 -0.00000000000E+00  0.00000000000E+00  0.94396726623E+01  0.94396726623E+01  0.00000000000E+00 0. -1.
          2   -1    0    0  501    0  0.00000000000E+00 -0.00000000000E+00 -0.20259165080E+04  0.20259165080E+04  0.00000000000E+00 0. -1.
         35    2    1    2    0    0  0.00000000000E+00  0.00000000000E+00 -0.20164768353E+04  0.20353561806E+04  0.27657902073E+03 0.  0.
         25    1    3    3    0    0  0.22244873619E+02  0.36816308680E+02 -0.14027347175E+04  0.14085151624E+04  0.12000000000E+03 0.  0.
         25    1    3    3    0    0 -0.22244873619E+02 -0.36816308680E+02 -0.61374211782E+03  0.62684101826E+03  0.12000000000E+03 0.  0.
<mgrwt>
<rscale>  0 0.27657902E+03</rscale>
<asrwt>0</asrwt>
<pdfrwt beam="1">  1        2 0.31167951E+00 0.27657902E+03</pdfrwt>
<pdfrwt beam="2">  1       -2 0.14522571E-02 0.27657902E+03</pdfrwt>
<totfact> 0.89065093E+03</totfact>
</mgrwt>
</event>
<event>
 5    1  0.1111501E+001  0.2734416E+03  0.7818608E-02  0.1099326E+00
          2   -1    0    0  501    0  0.00000000000E+00  0.00000000000E+00  0.32117643292E+02  0.32117643292E+02  0.00000000000E+00 0. -1.
         -2   -1    0    0    0  501 -0.00000000000E+00 -0.00000000000E+00 -0.58200335057E+03  0.58200335057E+03  0.00000000000E+00 0. -1.
         35    2    1    2    0    0  0.00000000000E+00  0.00000000000E+00 -0.54988570727E+03  0.61412099386E+03  0.27344159163E+03 0.  0.
         25    1    3    3    0    0  0.33721303197E+02  0.50558485728E+02 -0.21996248964E+03  0.25783092060E+03  0.12000000000E+03 0.  0.
         25    1    3    3    0    0 -0.33721303197E+02 -0.50558485728E+02 -0.32992321763E+03  0.35629007326E+03  0.12000000000E+03 0.  0.
<mgrwt>
<rscale>  0 0.27344159E+03</rscale>
<asrwt>0</asrwt>
<pdfrwt beam="1">  1        2 0.49411764E-02 0.27344159E+03</pdfrwt>
<pdfrwt beam="2">  1       -2 0.89538969E-01 0.27344159E+03</pdfrwt>
<totfact> 0.17636396E+03</totfact>
</mgrwt>
</event>
<event>
 5    1  0.1111501E+001  0.2711311E+03  0.7818608E-02  0.1100634E+00
          1   -1    0    0  501    0  0.00000000000E+00  0.00000000000E+00  0.74490990053E+02  0.74490990053E+02  0.00000000000E+00 0. -1.
         -1   -1    0    0    0  501 -0.00000000000E+00 -0.00000000000E+00 -0.24671471802E+03  0.24671471802E+03  0.00000000000E+00 0. -1.
         35    2    1    2    0    0  0.00000000000E+00  0.00000000000E+00 -0.17222372797E+03  0.32120570807E+03  0.27113113880E+03 0.  0.
         25    1    3    3    0    0  0.48174900171E+02 -0.37934995798E+02 -0.10360913062E+03  0.16998451947E+03  0.12000000000E+03 0.  0.
         25    1    3    3    0    0 -0.48174900171E+02  0.37934995798E+02 -0.68614597346E+02  0.15122118860E+03  0.12000000000E+03 0.  0.
<mgrwt>
<rscale>  0 0.27113114E+03</rscale>
<asrwt>0</asrwt>
<pdfrwt beam="1">  1        1 0.11460153E-01 0.27113114E+03</pdfrwt>
<pdfrwt beam="2">  1       -1 0.37956110E-01 0.27113114E+03</pdfrwt>
<totfact> 0.35985205E+03</totfact>
</mgrwt>
</event>
<event>
 5    1  0.1111501E+001  0.2758736E+03  0.7818608E-02  0.1097964E+00
          2   -1    0    0  501    0  0.00000000000E+00  0.00000000000E+00  0.21644828416E+04  0.21644828416E+04  0.00000000000E+00 0. -1.
         -2   -1    0    0    0  501 -0.00000000000E+00 -0.00000000000E+00 -0.87903472005E+01  0.87903472005E+01  0.00000000000E+00 0. -1.
         35    2    1    2    0    0  0.00000000000E+00  0.00000000000E+00  0.21556924944E+04  0.21732731888E+04  0.27587356297E+03 0.  0.
         25    1    3    3    0    0 -0.74611854687E+01 -0.14294149837E+02  0.55728223946E+03  0.57028368943E+03  0.12000000000E+03 0.  0.
         25    1    3    3    0    0  0.74611854687E+01  0.14294149837E+02  0.15984102549E+04  0.16029894994E+04  0.12000000000E+03 0.  0.
<mgrwt>
<rscale>  0 0.27587356E+03</rscale>
<asrwt>0</asrwt>
<pdfrwt beam="1">  1        2 0.33299694E+00 0.27587356E+03</pdfrwt>
<pdfrwt beam="2">  1       -2 0.13523628E-02 0.27587356E+03</pdfrwt>
<totfact> 0.83500262E+03</totfact>
</mgrwt>
</event>
<event>
 5    1  0.1111501E+001  0.2757979E+03  0.7818608E-02  0.1098006E+00
          4   -1    0    0  501    0  0.00000000000E+00  0.00000000000E+00  0.32773683113E+03  0.32773683113E+03  0.00000000000E+00 0.  1.
         -4   -1    0    0    0  501 -0.00000000000E+00 -0.00000000000E+00 -0.58022515191E+02  0.58022515191E+02  0.00000000000E+00 0.  1.
         35    2    1    2    0    0  0.00000000000E+00  0.00000000000E+00  0.26971431594E+03  0.38575934632E+03  0.27579786267E+03 0.  0.
         25    1    3    3    0    0  0.77459038545E+01  0.80119444440E+01  0.41113518967E+02  0.12733621528E+03  0.12000000000E+03 0.  0.
         25    1    3    3    0    0 -0.77459038545E+01 -0.80119444440E+01  0.22860079698E+03  0.25842313104E+03  0.12000000000E+03 0.  0.
<mgrwt>
<rscale>  0 0.27579786E+03</rscale>
<asrwt>0</asrwt>
<pdfrwt beam="1">  1        4 0.50421050E-01 0.27579786E+03</pdfrwt>
<pdfrwt beam="2">  1       -4 0.89265410E-02 0.27579786E+03</pdfrwt>
<totfact> 0.65711529E+02</totfact>
</mgrwt>
</event>
<event>
 5    1  0.1111501E+001  0.2762359E+03  0.7818608E-02  0.1097763E+00
         -1   -1    0    0    0  501 -0.00000000000E+00  0.00000000000E+00  0.54685165696E+02  0.54685165696E+02  0.00000000000E+00 0.  1.
          1   -1    0    0  501    0  0.00000000000E+00 -0.00000000000E+00 -0.34884347052E+03  0.34884347052E+03  0.00000000000E+00 0.  1.
         35    2    1    2    0    0  0.00000000000E+00  0.00000000000E+00 -0.29415830483E+03  0.40352863622E+03  0.27623586290E+03 0.  0.
         25    1    3    3    0    0 -0.52836160738E+02 -0.39713217013E+02 -0.17270645254E+03  0.22044572628E+03  0.12000000000E+03 0.  0.
         25    1    3    3    0    0  0.52836160738E+02  0.39713217013E+02 -0.12145185228E+03  0.18308290994E+03  0.12000000000E+03 0.  0.
<mgrwt>
<rscale>  0 0.27623586E+03</rscale>
<asrwt>0</asrwt>
<pdfrwt beam="1">  1        1 0.53668226E-01 0.27623586E+03</pdfrwt>
<pdfrwt beam="2">  1       -1 0.84131025E-02 0.27623586E+03</pdfrwt>
<totfact> 0.57240045E+03</totfact>
</mgrwt>
</event>
<event>
 5    1  0.1111501E+001  0.2743220E+03  0.7818608E-02  0.1098831E+00
         -2   -1    0    0    0  501 -0.00000000000E+00  0.00000000000E+00  0.31325842685E+02  0.31325842685E+02  0.00000000000E+00 0.  1.
          2   -1    0    0  501    0  0.00000000000E+00 -0.00000000000E+00 -0.60056308368E+03  0.60056308368E+03  0.00000000000E+00 0.  1.
         35    2    1    2    0    0  0.00000000000E+00  0.00000000000E+00 -0.56923724100E+03  0.63188892637E+03  0.27432203471E+03 0.  0.
         25    1    3    3    0    0  0.52247616549E+02 -0.15220275252E+02 -0.37238226923E+03  0.39500636026E+03  0.12000000000E+03 0.  0.
         25    1    3    3    0    0 -0.52247616549E+02  0.15220275252E+02 -0.19685497177E+03  0.23688256611E+03  0.12000000000E+03 0.  0.
<mgrwt>
<rscale>  0 0.27432203E+03</rscale>
<asrwt>0</asrwt>
<pdfrwt beam="1">  1        2 0.92394324E-01 0.27432203E+03</pdfrwt>
<pdfrwt beam="2">  1       -2 0.48193602E-02 0.27432203E+03</pdfrwt>
<totfact> 0.10387683E+04</totfact>
</mgrwt>
</event>
<event>
 5    1  0.1111501E+001  0.2719463E+03  0.7818608E-02  0.1100171E+00
         -2   -1    0    0    0  501 -0.00000000000E+00  0.00000000000E+00  0.79269755184E+03  0.79269755184E+03  0.00000000000E+00 0. -1.
          2   -1    0    0  501    0  0.00000000000E+00 -0.00000000000E+00 -0.23323773122E+02  0.23323773122E+02  0.00000000000E+00 0. -1.
         35    2    1    2    0    0  0.00000000000E+00  0.00000000000E+00  0.76937377872E+03  0.81602132496E+03  0.27194630244E+03 0.  0.
         25    1    3    3    0    0 -0.60409815634E+02 -0.62098760965E+01  0.32461427956E+03  0.35137208039E+03  0.12000000000E+03 0.  0.
         25    1    3    3    0    0  0.60409815634E+02  0.62098760965E+01  0.44475949916E+03  0.46464924457E+03  0.12000000000E+03 0.  0.
<mgrwt>
<rscale>  0 0.27194630E+03</rscale>
<asrwt>0</asrwt>
<pdfrwt beam="1">  1        2 0.35882734E-02 0.27194630E+03</pdfrwt>
<pdfrwt beam="2">  1       -2 0.12195345E+00 0.27194630E+03</pdfrwt>
<totfact> 0.13097545E+03</totfact>
</mgrwt>
</event>
<event>
 5    1  0.1111501E+001  0.2752876E+03  0.7818608E-02  0.1098291E+00
          2   -1    0    0  501    0  0.00000000000E+00  0.00000000000E+00  0.18108814835E+03  0.18108814835E+03  0.00000000000E+00 0. -1.
         -2   -1    0    0    0  501 -0.00000000000E+00 -0.00000000000E+00 -0.10462207595E+03  0.10462207595E+03  0.00000000000E+00 0. -1.
         35    2    1    2    0    0  0.00000000000E+00  0.00000000000E+00  0.76466072393E+02  0.28571022430E+03  0.27528761694E+03 0.  0.
         25    1    3    3    0    0 -0.61317915715E+02  0.26210907683E+02  0.48555423562E+02  0.14561774489E+03  0.12000000000E+03 0.  0.
         25    1    3    3    0    0  0.61317915715E+02 -0.26210907683E+02  0.27910648831E+02  0.14009247941E+03  0.12000000000E+03 0.  0.
<mgrwt>
<rscale>  0 0.27528762E+03</rscale>
<asrwt>0</asrwt>
<pdfrwt beam="1">  1        2 0.27859715E-01 0.27528762E+03</pdfrwt>
<pdfrwt beam="2">  1       -2 0.16095704E-01 0.27528762E+03</pdfrwt>
<totfact> 0.57515912E+03</totfact>
</mgrwt>
</event>
<event>
 5    1  0.1111501E+001  0.2750390E+03  0.7818608E-02  0.1098430E+00
         -1   -1    0    0    0  501 -0.00000000000E+00  0.00000000000E+00  0.79921582175E+03  0.79921582175E+03  0.00000000000E+00 0.  1.
          1   -1    0    0  501    0  0.00000000000E+00 -0.00000000000E+00 -0.23662712411E+02  0.23662712411E+02  0.00000000000E+00 0.  1.
         35    2    1    2    0    0  0.00000000000E+00  0.00000000000E+00  0.77555310934E+03  0.82287853416E+03  0.27503900919E+03 0.  0.
         25    1    3    3    0    0  0.41572141986E+02 -0.41762951010E+02  0.29132779087E+03  0.32053746864E+03  0.12000000000E+03 0.  0.
         25    1    3    3    0    0 -0.41572141986E+02  0.41762951010E+02  0.48422531847E+03  0.50234106552E+03  0.12000000000E+03 0.  0.
<mgrwt>
<rscale>  0 0.27503901E+03</rscale>
<asrwt>0</asrwt>
<pdfrwt beam="1">  1        1 0.36404179E-02 0.27503901E+03</pdfrwt>
<pdfrwt beam="2">  1       -1 0.12295626E+00 0.27503901E+03</pdfrwt>
<totfact> 0.16178913E+03</totfact>
</mgrwt>
</event>
<event>
 5    1  0.1111501E+001  0.2746440E+03  0.7818608E-02  0.1098651E+00
          2   -1    0    0  501    0  0.00000000000E+00  0.00000000000E+00  0.24498235868E+04  0.24498235868E+04  0.00000000000E+00 0.  1.
         -2   -1    0    0    0  501 -0.00000000000E+00 -0.00000000000E+00 -0.76974260972E+01  0.76974260972E+01  0.00000000000E+00 0.  1.
         35    2    1    2    0    0  0.00000000000E+00  0.00000000000E+00  0.24421261607E+04  0.24575210129E+04  0.27464403151E+03 0.  0.
         25    1    3    3    0    0  0.40688183523E+02  0.45572919970E+01  0.74918413494E+03  0.75983759135E+03  0.12000000000E+03 0.  0.
         25    1    3    3    0    0 -0.40688183523E+02 -0.45572919970E+01  0.16929420257E+04  0.16976834215E+04  0.12000000000E+03 0.  0.
<mgrwt>
<rscale>  0 0.27464403E+03</rscale>
<asrwt>0</asrwt>
<pdfrwt beam="1">  1        2 0.37689531E+00 0.27464403E+03</pdfrwt>
<pdfrwt beam="2">  1       -2 0.11842214E-02 0.27464403E+03</pdfrwt>
<totfact> 0.71206983E+03</totfact>
</mgrwt>
</event>
<event>
 5    1  0.1111501E+001  0.2778865E+03  0.7818608E-02  0.1096849E+00
         -2   -1    0    0    0  501 -0.00000000000E+00  0.00000000000E+00  0.48851889059E+01  0.48851889059E+01  0.00000000000E+00 0.  1.
          2   -1    0    0  501    0  0.00000000000E+00 -0.00000000000E+00 -0.39517865733E+04  0.39517865733E+04  0.00000000000E+00 0.  1.
         35    2    1    2    0    0  0.00000000000E+00  0.00000000000E+00 -0.39469013844E+04  0.39566717622E+04  0.27788647989E+03 0.  0.
         25    1    3    3    0    0 -0.94800663515E+01 -0.37001700927E+02 -0.28093125511E+04  0.28121337107E+04  0.12000000000E+03 0.  0.
         25    1    3    3    0    0  0.94800663515E+01  0.37001700927E+02 -0.11375888333E+04  0.11445380514E+04  0.12000000000E+03 0.  0.
<mgrwt>
<rscale>  0 0.27788648E+03</rscale>
<asrwt>0</asrwt>
<pdfrwt beam="1">  1        2 0.60796414E+00 0.27788648E+03</pdfrwt>
<pdfrwt beam="2">  1       -2 0.75157126E-03 0.27788648E+03</pdfrwt>
<totfact> 0.15691472E+03</totfact>
</mgrwt>
</event>
<event>
 5    1  0.1111501E+001  0.2727733E+03  0.7818608E-02  0.1099703E+00
          1   -1    0    0  501    0  0.00000000000E+00  0.00000000000E+00  0.13229856336E+04  0.13229856336E+04  0.00000000000E+00 0. -1.
         -1   -1    0    0    0  501 -0.00000000000E+00 -0.00000000000E+00 -0.14060101595E+02  0.14060101595E+02  0.00000000000E+00 0. -1.
         35    2    1    2    0    0  0.00000000000E+00  0.00000000000E+00  0.13089255320E+04  0.13370457352E+04  0.27277325687E+03 0.  0.
         25    1    3    3    0    0  0.74706961044E+01  0.23310166493E+01  0.96985295811E+03  0.97727990120E+03  0.12000000000E+03 0.  0.
         25    1    3    3    0    0 -0.74706961044E+01 -0.23310166493E+01  0.33907257386E+03  0.35976583396E+03  0.12000000000E+03 0.  0.
<mgrwt>
<rscale>  0 0.27277326E+03</rscale>
<asrwt>0</asrwt>
<pdfrwt beam="1">  1        1 0.20353615E+00 0.27277326E+03</pdfrwt>
<pdfrwt beam="2">  1       -1 0.21630936E-02 0.27277326E+03</pdfrwt>
<totfact> 0.57511812E+03</totfact>
</mgrwt>
</event>
<event>
 5    1  0.1111501E+001  0.2748099E+03  0.7818608E-02  0.1098558E+00
          2   -1    0    0  501    0  0.00000000000E+00  0.00000000000E+00  0.21860802687E+04  0.21860802687E+04  0.00000000000E+00 0.  1.
         -2   -1    0    0    0  501 -0.00000000000E+00 -0.00000000000E+00 -0.86365145773E+01  0.86365145773E+01  0.00000000000E+00 0.  1.
         35    2    1    2    0    0  0.00000000000E+00  0.00000000000E+00  0.21774437541E+04  0.21947167833E+04  0.27480985505E+03 0.  0.
         25    1    3    3    0    0 -0.40772949262E+02  0.14082370777E+02  0.14974593007E+04  0.15028789385E+04  0.12000000000E+03 0.  0.
         25    1    3    3    0    0  0.40772949262E+02 -0.14082370777E+02  0.67998445342E+03  0.69183784476E+03  0.12000000000E+03 0.  0.
<mgrwt>
<rscale>  0 0.27480986E+03</rscale>
<asrwt>0</asrwt>
<pdfrwt beam="1">  1        2 0.33631960E+00 0.27480986E+03</pdfrwt>
<pdfrwt beam="2">  1       -2 0.13286963E-02 0.27480986E+03</pdfrwt>
<totfact> 0.83445732E+03</totfact>
</mgrwt>
</event>
<event>
 5    1  0.1111501E+001  0.2752812E+03  0.7818608E-02  0.1098294E+00
          3   -1    0    0  501    0  0.00000000000E+00  0.00000000000E+00  0.41316613442E+02  0.41316613442E+02  0.00000000000E+00 0. -1.
         -3   -1    0    0    0  501 -0.00000000000E+00 -0.00000000000E+00 -0.45853080707E+03  0.45853080707E+03  0.00000000000E+00 0. -1.
         35    2    1    2    0    0  0.00000000000E+00  0.00000000000E+00 -0.41721419363E+03  0.49984742051E+03  0.27528123879E+03 0.  0.
         25    1    3    3    0    0  0.61221798847E+02  0.13039990312E+02 -0.16314788439E+03  0.21197967399E+03  0.12000000000E+03 0.  0.
         25    1    3    3    0    0 -0.61221798847E+02 -0.13039990312E+02 -0.25406630924E+03  0.28786774653E+03  0.12000000000E+03 0.  0.
<mgrwt>
<rscale>  0 0.27528124E+03</rscale>
<asrwt>0</asrwt>
<pdfrwt beam="1">  1        3 0.63564023E-02 0.27528124E+03</pdfrwt>
<pdfrwt beam="2">  1       -3 0.70543199E-01 0.27528124E+03</pdfrwt>
<totfact> 0.77128284E+02</totfact>
</mgrwt>
</event>
<event>
 5    1  0.1111501E+001  0.2748714E+03  0.7818608E-02  0.1098523E+00
         -2   -1    0    0    0  501 -0.00000000000E+00  0.00000000000E+00  0.21457823102E+03  0.21457823102E+03  0.00000000000E+00 0.  1.
          2   -1    0    0  501    0  0.00000000000E+00 -0.00000000000E+00 -0.88026533950E+02  0.88026533950E+02  0.00000000000E+00 0.  1.
         35    2    1    2    0    0  0.00000000000E+00  0.00000000000E+00  0.12655169707E+03  0.30260476497E+03  0.27487144587E+03 0.  0.
         25    1    3    3    0    0  0.76878691074E+01 -0.65183762083E+02  0.78068533471E+02  0.15748879988E+03  0.12000000000E+03 0.  0.
         25    1    3    3    0    0 -0.76878691074E+01  0.65183762083E+02  0.48483163603E+02  0.14511596509E+03  0.12000000000E+03 0.  0.
<mgrwt>
<rscale>  0 0.27487145E+03</rscale>
<asrwt>0</asrwt>
<pdfrwt beam="1">  1        2 0.13542544E-01 0.27487145E+03</pdfrwt>
<pdfrwt beam="2">  1       -2 0.33012035E-01 0.27487145E+03</pdfrwt>
<totfact> 0.37579082E+03</totfact>
</mgrwt>
</event>
<event>
 5    1  0.1111501E+001  0.2687349E+03  0.7818608E-02  0.1102006E+00
          1   -1    0    0  501    0  0.00000000000E+00  0.00000000000E+00  0.24976777578E+03  0.24976777578E+03  0.00000000000E+00 0. -1.
         -1   -1    0    0    0  501 -0.00000000000E+00 -0.00000000000E+00 -0.72285611840E+02  0.72285611840E+02  0.00000000000E+00 0. -1.
         35    2    1    2    0    0  0.00000000000E+00  0.00000000000E+00  0.17748216394E+03  0.32205338762E+03  0.26873493625E+03 0.  0.
         25    1    3    3    0    0 -0.34692101208E+02  0.37049597314E+02  0.49386611509E+02  0.13933862330E+03  0.12000000000E+03 0.  0.
         25    1    3    3    0    0  0.34692101208E+02 -0.37049597314E+02  0.12809555243E+03  0.18271476432E+03  0.12000000000E+03 0.  0.
<mgrwt>
<rscale>  0 0.26873494E+03</rscale>
<asrwt>0</asrwt>
<pdfrwt beam="1">  1        1 0.38425811E-01 0.26873494E+03</pdfrwt>
<pdfrwt beam="2">  1       -1 0.11120864E-01 0.26873494E+03</pdfrwt>
<totfact> 0.56615472E+03</totfact>
</mgrwt>
</event>
<event>
 5    1  0.1111501E+001  0.2729734E+03  0.7818608E-02  0.1099590E+00
          2   -1    0    0  501    0  0.00000000000E+00  0.00000000000E+00  0.78220760469E+03  0.78220760469E+03  0.00000000000E+00 0.  1.
         -2   -1    0    0    0  501 -0.00000000000E+00 -0.00000000000E+00 -0.23815434761E+02  0.23815434761E+02  0.00000000000E+00 0.  1.
         35    2    1    2    0    0  0.00000000000E+00  0.00000000000E+00  0.75839216993E+03  0.80602303945E+03  0.27297336265E+03 0.  0.
         25    1    3    3    0    0  0.76123250967E+01 -0.52970240941E+02  0.27011111494E+03  0.30037278228E+03  0.12000000000E+03 0.  0.
         25    1    3    3    0    0 -0.76123250967E+01  0.52970240941E+02  0.48828105498E+03  0.50565025717E+03  0.12000000000E+03 0.  0.
<mgrwt>
<rscale>  0 0.27297336E+03</rscale>
<asrwt>0</asrwt>
<pdfrwt beam="1">  1        2 0.12033961E+00 0.27297336E+03</pdfrwt>
<pdfrwt beam="2">  1       -2 0.36639136E-02 0.27297336E+03</pdfrwt>
<totfact> 0.11411200E+04</totfact>
</mgrwt>
</event>
<event>
 5    1  0.1111501E+001  0.2749923E+03  0.7818608E-02  0.1098456E+00
         -2   -1    0    0    0  501 -0.00000000000E+00  0.00000000000E+00  0.22335508674E+03  0.22335508674E+03  0.00000000000E+00 0. -1.
          2   -1    0    0  501    0  0.00000000000E+00 -0.00000000000E+00 -0.84641839465E+02  0.84641839465E+02  0.00000000000E+00 0. -1.
         35    2    1    2    0    0  0.00000000000E+00  0.00000000000E+00  0.13871324727E+03  0.30799692620E+03  0.27499225731E+03 0.  0.
         25    1    3    3    0    0 -0.24238357466E+02  0.50435757429E+02  0.11087180340E+03  0.17269574514E+03  0.12000000000E+03 0.  0.
         25    1    3    3    0    0  0.24238357466E+02 -0.50435757429E+02  0.27841443874E+02  0.13530118106E+03  0.12000000000E+03 0.  0.
<mgrwt>
<rscale>  0 0.27499226E+03</rscale>
<asrwt>0</asrwt>
<pdfrwt beam="1">  1        2 0.13021822E-01 0.27499226E+03</pdfrwt>
<pdfrwt beam="2">  1       -2 0.34362321E-01 0.27499226E+03</pdfrwt>
<totfact> 0.36575620E+03</totfact>
</mgrwt>
</event>
<event>
 5    1  0.1111501E+001  0.2752213E+03  0.7818608E-02  0.1098328E+00
          1   -1    0    0  501    0  0.00000000000E+00  0.00000000000E+00  0.50655674648E+03  0.50655674648E+03  0.00000000000E+00 0.  1.
         -1   -1    0    0    0  501 -0.00000000000E+00 -0.00000000000E+00 -0.37383157344E+02  0.37383157344E+02  0.00000000000E+00 0.  1.
         35    2    1    2    0    0  0.00000000000E+00  0.00000000000E+00  0.46917358914E+03  0.54393990383E+03  0.27522129683E+03 0.  0.
         25    1    3    3    0    0 -0.23409654374E+02  0.20112031751E+02  0.11626518164E+03  0.16991203077E+03  0.12000000000E+03 0.  0.
         25    1    3    3    0    0  0.23409654374E+02 -0.20112031751E+02  0.35290840750E+03  0.37402787305E+03  0.12000000000E+03 0.  0.
<mgrwt>
<rscale>  0 0.27522130E+03</rscale>
<asrwt>0</asrwt>
<pdfrwt beam="1">  1        1 0.77931802E-01 0.27522130E+03</pdfrwt>
<pdfrwt beam="2">  1       -1 0.57512554E-02 0.27522130E+03</pdfrwt>
<totfact> 0.62922666E+03</totfact>
</mgrwt>
</event>
<event>
 5    1  0.1111501E+001  0.2755287E+03  0.7818608E-02  0.1098156E+00
          1   -1    0    0  501    0  0.00000000000E+00  0.00000000000E+00  0.45758293549E+03  0.45758293549E+03  0.00000000000E+00 0. -1.
         -1   -1    0    0    0  501 -0.00000000000E+00 -0.00000000000E+00 -0.41476680104E+02  0.41476680104E+02  0.00000000000E+00 0. -1.
         35    2    1    2    0    0  0.00000000000E+00  0.00000000000E+00  0.41610625538E+03  0.49905961559E+03  0.27552873561E+03 0.  0.
         25    1    3    3    0    0 -0.38142454990E+02 -0.48372393328E+02  0.25877820111E+03  0.29182339296E+03  0.12000000000E+03 0.  0.
         25    1    3    3    0    0  0.38142454990E+02  0.48372393328E+02  0.15732805428E+03  0.20723622263E+03  0.12000000000E+03 0.  0.
<mgrwt>
<rscale>  0 0.27552874E+03</rscale>
<asrwt>0</asrwt>
<pdfrwt beam="1">  1        1 0.70397371E-01 0.27552874E+03</pdfrwt>
<pdfrwt beam="2">  1       -1 0.63810280E-02 0.27552874E+03</pdfrwt>
<totfact> 0.61514856E+03</totfact>
</mgrwt>
</event>
<event>
 5    1  0.1111501E+001  0.2746210E+03  0.7818608E-02  0.1098664E+00
          1   -1    0    0  501    0  0.00000000000E+00  0.00000000000E+00  0.13311019938E+03  0.13311019938E+03  0.00000000000E+00 0.  1.
         -1   -1    0    0    0  501 -0.00000000000E+00 -0.00000000000E+00 -0.14164332713E+03  0.14164332713E+03  0.00000000000E+00 0.  1.
         35    2    1    2    0    0  0.00000000000E+00  0.00000000000E+00 -0.85331277496E+01  0.27475352650E+03  0.27462098619E+03 0.  0.
         25    1    3    3    0    0 -0.50818814978E+02 -0.40126165147E+02 -0.20445652700E+02  0.13787924354E+03  0.12000000000E+03 0.  0.
         25    1    3    3    0    0  0.50818814978E+02  0.40126165147E+02  0.11912524951E+02  0.13687428296E+03  0.12000000000E+03 0.  0.
<mgrwt>
<rscale>  0 0.27462099E+03</rscale>
<asrwt>0</asrwt>
<pdfrwt beam="1">  1        1 0.20478492E-01 0.27462099E+03</pdfrwt>
<pdfrwt beam="2">  1       -1 0.21791281E-01 0.27462099E+03</pdfrwt>
<totfact> 0.43076860E+03</totfact>
</mgrwt>
</event>
<event>
 5    1  0.1111501E+001  0.2748713E+03  0.7818608E-02  0.1098524E+00
          2   -1    0    0  501    0  0.00000000000E+00  0.00000000000E+00  0.20316931747E+03  0.20316931747E+03  0.00000000000E+00 0.  1.
         -2   -1    0    0    0  501 -0.00000000000E+00 -0.00000000000E+00 -0.92969507318E+02  0.92969507318E+02  0.00000000000E+00 0.  1.
         35    2    1    2    0    0  0.00000000000E+00  0.00000000000E+00  0.11019981015E+03  0.29613882479E+03  0.27487125239E+03 0.  0.
         25    1    3    3    0    0 -0.90589069980E+00  0.66349093354E+02  0.45136185239E+02  0.14436169175E+03  0.12000000000E+03 0.  0.
         25    1    3    3    0    0  0.90589069980E+00 -0.66349093354E+02  0.65063624915E+02  0.15177713304E+03  0.12000000000E+03 0.  0.
<mgrwt>
<rscale>  0 0.27487125E+03</rscale>
<asrwt>0</asrwt>
<pdfrwt beam="1">  1        2 0.31256818E-01 0.27487125E+03</pdfrwt>
<pdfrwt beam="2">  1       -2 0.14303001E-01 0.27487125E+03</pdfrwt>
<totfact> 0.61613876E+03</totfact>
</mgrwt>
</event>
<event>
 5    1  0.1111501E+001  0.2746877E+03  0.7818608E-02  0.1098626E+00
         -2   -1    0    0    0  501 -0.00000000000E+00  0.00000000000E+00  0.12946594389E+02  0.12946594389E+02  0.00000000000E+00 0. -1.
          2   -1    0    0  501    0  0.00000000000E+00 -0.00000000000E+00 -0.14570114165E+04  0.14570114165E+04  0.00000000000E+00 0. -1.
         35    2    1    2    0    0  0.00000000000E+00  0.00000000000E+00 -0.14440648221E+04  0.14699580109E+04  0.27468771964E+03 0.  0.
         25    1    3    3    0    0  0.23718106720E+02 -0.17215997182E+02 -0.10433111423E+04  0.10505984385E+04  0.12000000000E+03 0.  0.
         25    1    3    3    0    0 -0.23718106720E+02  0.17215997182E+02 -0.40075367975E+03  0.41935957242E+03  0.12000000000E+03 0.  0.
<mgrwt>
<rscale>  0 0.27468772E+03</rscale>
<asrwt>0</asrwt>
<pdfrwt beam="1">  1        2 0.22415549E+00 0.27468772E+03</pdfrwt>
<pdfrwt beam="2">  1       -2 0.19917847E-02 0.27468772E+03</pdfrwt>
<totfact> 0.11191277E+04</totfact>
</mgrwt>
</event>
<event>
 5    1  0.1111501E+001  0.2746227E+03  0.7818608E-02  0.1098663E+00
         -1   -1    0    0    0  501 -0.00000000000E+00  0.00000000000E+00  0.92388711723E+03  0.92388711723E+03  0.00000000000E+00 0. -1.
          1   -1    0    0  501    0  0.00000000000E+00 -0.00000000000E+00 -0.20407689982E+02  0.20407689982E+02  0.00000000000E+00 0. -1.
         35    2    1    2    0    0  0.00000000000E+00  0.00000000000E+00  0.90347942725E+03  0.94429480721E+03  0.27462266379E+03 0.  0.
         25    1    3    3    0    0 -0.20004584328E+02  0.43403102080E+02  0.29154800408E+03  0.31887968161E+03  0.12000000000E+03 0.  0.
         25    1    3    3    0    0  0.20004584328E+02 -0.43403102080E+02  0.61193142317E+03  0.62541512560E+03  0.12000000000E+03 0.  0.
<mgrwt>
<rscale>  0 0.27462266E+03</rscale>
<asrwt>0</asrwt>
<pdfrwt beam="1">  1        1 0.31396453E-02 0.27462266E+03</pdfrwt>
<pdfrwt beam="2">  1       -1 0.14213645E+00 0.27462266E+03</pdfrwt>
<totfact> 0.13895335E+03</totfact>
</mgrwt>
</event>
<event>
 5    1  0.1111501E+001  0.2736636E+03  0.7818608E-02  0.1099201E+00
          1   -1    0    0  501    0  0.00000000000E+00  0.00000000000E+00  0.53826629575E+02  0.53826629575E+02  0.00000000000E+00 0.  1.
         -1   -1    0    0    0  501 -0.00000000000E+00 -0.00000000000E+00 -0.34783776781E+03  0.34783776781E+03  0.00000000000E+00 0.  1.
         35    2    1    2    0    0  0.00000000000E+00  0.00000000000E+00 -0.29401113823E+03  0.40166439738E+03  0.27366355022E+03 0.  0.
         25    1    3    3    0    0 -0.27246334823E+01  0.54626147521E+02 -0.93448579046E+02  0.16162944208E+03  0.12000000000E+03 0.  0.
         25    1    3    3    0    0  0.27246334823E+01 -0.54626147521E+02 -0.20056255919E+03  0.24003495531E+03  0.12000000000E+03 0.  0.
<mgrwt>
<rscale>  0 0.27366355E+03</rscale>
<asrwt>0</asrwt>
<pdfrwt beam="1">  1        1 0.82810200E-02 0.27366355E+03</pdfrwt>
<pdfrwt beam="2">  1       -1 0.53513503E-01 0.27366355E+03</pdfrwt>
<totfact> 0.29887588E+03</totfact>
</mgrwt>
</event>
<event>
 5    1  0.1111501E+001  0.2757126E+03  0.7818608E-02  0.1098054E+00
          3   -1    0    0  501    0  0.00000000000E+00  0.00000000000E+00  0.16980614349E+03  0.16980614349E+03  0.00000000000E+00 0. -1.
         -3   -1    0    0    0  501 -0.00000000000E+00 -0.00000000000E+00 -0.11191794350E+03  0.11191794350E+03  0.00000000000E+00 0. -1.
         35    2    1    2    0    0  0.00000000000E+00  0.00000000000E+00  0.57888199990E+02  0.28172408698E+03  0.27571256317E+03 0.  0.
         25    1    3    3    0    0  0.37371038584E+02  0.95196552156E+01 -0.28104540670E+02  0.12913978305E+03  0.12000000000E+03 0.  0.
         25    1    3    3    0    0 -0.37371038584E+02 -0.95196552156E+01  0.85992740660E+02  0.15258430393E+03  0.12000000000E+03 0.  0.
<mgrwt>
<rscale>  0 0.27571256E+03</rscale>
<asrwt>0</asrwt>
<pdfrwt beam="1">  1        3 0.26124022E-01 0.27571256E+03</pdfrwt>
<pdfrwt beam="2">  1       -3 0.17218145E-01 0.27571256E+03</pdfrwt>
<totfact> 0.10305097E+03</totfact>
</mgrwt>
</event>
<event>
 5    1  0.1111501E+001  0.2750494E+03  0.7818608E-02  0.1098424E+00
         -3   -1    0    0    0  501 -0.00000000000E+00  0.00000000000E+00  0.69404410238E+02  0.69404410238E+02  0.00000000000E+00 0.  1.
          3   -1    0    0  501    0  0.00000000000E+00 -0.00000000000E+00 -0.27250482165E+03  0.27250482165E+03  0.00000000000E+00 0.  1.
         35    2    1    2    0    0  0.00000000000E+00  0.00000000000E+00 -0.20310041141E+03  0.34190923188E+03  0.27504935145E+03 0.  0.
         25    1    3    3    0    0  0.17103441769E+02 -0.10072934748E+02 -0.21769393284E+02  0.12356333687E+03  0.12000000000E+03 0.  0.
         25    1    3    3    0    0 -0.17103441769E+02  0.10072934748E+02 -0.18133101812E+03  0.21834589501E+03  0.12000000000E+03 0.  0.
<mgrwt>
<rscale>  0 0.27504935E+03</rscale>
<asrwt>0</asrwt>
<pdfrwt beam="1">  1        3 0.41923819E-01 0.27504935E+03</pdfrwt>
<pdfrwt beam="2">  1       -3 0.10677601E-01 0.27504935E+03</pdfrwt>
<totfact> 0.95312635E+02</totfact>
</mgrwt>
</event>
<event>
 5    1  0.1111501E+001  0.2738924E+03  0.7818608E-02  0.1099072E+00
          1   -1    0    0  501    0  0.00000000000E+00  0.00000000000E+00  0.51213602687E+02  0.51213602687E+02  0.00000000000E+00 0.  1.
         -1   -1    0    0    0  501 -0.00000000000E+00 -0.00000000000E+00 -0.36619692177E+03  0.36619692177E+03  0.00000000000E+00 0.  1.
         35    2    1    2    0    0  0.00000000000E+00  0.00000000000E+00 -0.31498331908E+03  0.41741052445E+03  0.27389241433E+03 0.  0.
         25    1    3    3    0    0  0.40631381204E+02 -0.48628251062E+02 -0.18553679013E+03  0.22986847638E+03  0.12000000000E+03 0.  0.
         25    1    3    3    0    0 -0.40631381204E+02  0.48628251062E+02 -0.12944652895E+03  0.18754204808E+03  0.12000000000E+03 0.  0.
<mgrwt>
<rscale>  0 0.27389241E+03</rscale>
<asrwt>0</asrwt>
<pdfrwt beam="1">  1        1 0.78790159E-02 0.27389241E+03</pdfrwt>
<pdfrwt beam="2">  1       -1 0.56337987E-01 0.27389241E+03</pdfrwt>
<totfact> 0.29024494E+03</totfact>
</mgrwt>
</event>
<event>
 5    1  0.1111501E+001  0.2751149E+03  0.7818608E-02  0.1098387E+00
         -2   -1    0    0    0  501 -0.00000000000E+00  0.00000000000E+00  0.17163615918E+02  0.17163615918E+02  0.00000000000E+00 0.  1.
          2   -1    0    0  501    0  0.00000000000E+00 -0.00000000000E+00 -0.11024514369E+04  0.11024514369E+04  0.00000000000E+00 0.  1.
         35    2    1    2    0    0  0.00000000000E+00  0.00000000000E+00 -0.10852878210E+04  0.11196150529E+04  0.27511490713E+03 0.  0.
         25    1    3    3    0    0 -0.42643874483E+02 -0.33473876029E+02 -0.38072324451E+03  0.40285132409E+03  0.12000000000E+03 0.  0.
         25    1    3    3    0    0  0.42643874483E+02  0.33473876029E+02 -0.70456457650E+03  0.71676372876E+03  0.12000000000E+03 0.  0.
<mgrwt>
<rscale>  0 0.27511491E+03</rscale>
<asrwt>0</asrwt>
<pdfrwt beam="1">  1        2 0.16960792E+00 0.27511491E+03</pdfrwt>
<pdfrwt beam="2">  1       -2 0.26405562E-02 0.27511491E+03</pdfrwt>
<totfact> 0.11643848E+04</totfact>
</mgrwt>
</event>
<event>
 5    1  0.1111501E+001  0.2670422E+03  0.7818608E-02  0.1102984E+00
          2   -1    0    0  501    0  0.00000000000E+00  0.00000000000E+00  0.25040527903E+04  0.25040527903E+04  0.00000000000E+00 0. -1.
         -2   -1    0    0    0  501 -0.00000000000E+00 -0.00000000000E+00 -0.71196097517E+01  0.71196097517E+01  0.00000000000E+00 0. -1.
         35    2    1    2    0    0  0.00000000000E+00  0.00000000000E+00  0.24969331805E+04  0.25111724000E+04  0.26704215895E+03 0.  0.
         25    1    3    3    0    0  0.40011670945E+02  0.22386735130E+02  0.90606777174E+03  0.91512890169E+03  0.12000000000E+03 0.  0.
         25    1    3    3    0    0 -0.40011670945E+02 -0.22386735130E+02  0.15908654088E+04  0.15960434983E+04  0.12000000000E+03 0.  0.
<mgrwt>
<rscale>  0 0.26704216E+03</rscale>
<asrwt>0</asrwt>
<pdfrwt beam="1">  1        2 0.38523819E+00 0.26704216E+03</pdfrwt>
<pdfrwt beam="2">  1       -2 0.10953266E-02 0.26704216E+03</pdfrwt>
<totfact> 0.74516478E+03</totfact>
</mgrwt>
</event>
<event>
 5    1  0.1111501E+001  0.2753570E+03  0.7818608E-02  0.1098252E+00
         -1   -1    0    0    0  501 -0.00000000000E+00  0.00000000000E+00  0.10703084976E+03  0.10703084976E+03  0.00000000000E+00 0.  1.
          1   -1    0    0  501    0  0.00000000000E+00 -0.00000000000E+00 -0.17710187642E+03  0.17710187642E+03  0.00000000000E+00 0.  1.
         35    2    1    2    0    0  0.00000000000E+00  0.00000000000E+00 -0.70071026660E+02  0.28413272618E+03  0.27535696343E+03 0.  0.
         25    1    3    3    0    0 -0.60334190711E+02  0.29807464984E+02 -0.40363882189E+02  0.14338041192E+03  0.12000000000E+03 0.  0.
         25    1    3    3    0    0  0.60334190711E+02 -0.29807464984E+02 -0.29707144471E+02  0.14075231426E+03  0.12000000000E+03 0.  0.
<mgrwt>
<rscale>  0 0.27535696E+03</rscale>
<asrwt>0</asrwt>
<pdfrwt beam="1">  1        1 0.27246442E-01 0.27535696E+03</pdfrwt>
<pdfrwt beam="2">  1       -1 0.16466285E-01 0.27535696E+03</pdfrwt>
<totfact> 0.47079296E+03</totfact>
</mgrwt>
</event>
<event>
 5    1  0.1111501E+001  0.2746192E+03  0.7818608E-02  0.1098665E+00
         -2   -1    0    0    0  501 -0.00000000000E+00  0.00000000000E+00  0.86159301037E+01  0.86159301037E+01  0.00000000000E+00 0. -1.
          2   -1    0    0  501    0  0.00000000000E+00 -0.00000000000E+00 -0.21882641138E+04  0.21882641138E+04  0.00000000000E+00 0. -1.
         35    2    1    2    0    0  0.00000000000E+00  0.00000000000E+00 -0.21796481837E+04  0.21968800439E+04  0.27461923205E+03 0.  0.
         25    1    3    3    0    0  0.18542376161E+02 -0.63820893249E+02 -0.10411606516E+04  0.10501582874E+04  0.12000000000E+03 0.  0.
         25    1    3    3    0    0 -0.18542376161E+02  0.63820893249E+02 -0.11384875321E+04  0.11467217565E+04  0.12000000000E+03 0.  0.
<mgrwt>
<rscale>  0 0.27461923E+03</rscale>
<asrwt>0</asrwt>
<pdfrwt beam="1">  1        2 0.33665640E+00 0.27461923E+03</pdfrwt>
<pdfrwt beam="2">  1       -2 0.13255262E-02 0.27461923E+03</pdfrwt>
<totfact> 0.83512872E+03</totfact>
</mgrwt>
</event>
<event>
 5    1  0.1111501E+001  0.2746535E+03  0.7818608E-02  0.1098645E+00
         -2   -1    0    0    0  501 -0.00000000000E+00  0.00000000000E+00  0.13828506671E+03  0.13828506671E+03  0.00000000000E+00 0.  1.
          2   -1    0    0  501    0  0.00000000000E+00 -0.00000000000E+00 -0.13637509698E+03  0.13637509698E+03  0.00000000000E+00 0.  1.
         35    2    1    2    0    0  0.00000000000E+00  0.00000000000E+00  0.19099697277E+01  0.27466016370E+03  0.27465352271E+03 0.  0.
         25    1    3    3    0    0 -0.58747084683E+02 -0.12390046618E+02 -0.28267394656E+02  0.13712687123E+03  0.12000000000E+03 0.  0.
         25    1    3    3    0    0  0.58747084683E+02  0.12390046618E+02  0.30177364383E+02  0.13753329246E+03  0.12000000000E+03 0.  0.
<mgrwt>
<rscale>  0 0.27465352E+03</rscale>
<asrwt>0</asrwt>
<pdfrwt beam="1">  1        2 0.20980784E-01 0.27465352E+03</pdfrwt>
<pdfrwt beam="2">  1       -2 0.21274626E-01 0.27465352E+03</pdfrwt>
<totfact> 0.49280436E+03</totfact>
</mgrwt>
</event>
<event>
 5    1  0.1111501E+001  0.2749362E+03  0.7818608E-02  0.1098487E+00
          1   -1    0    0  501    0  0.00000000000E+00  0.00000000000E+00  0.20752551214E+04  0.20752551214E+04  0.00000000000E+00 0. -1.
         -1   -1    0    0    0  501 -0.00000000000E+00 -0.00000000000E+00 -0.91060965359E+01  0.91060965359E+01  0.00000000000E+00 0. -1.
         35    2    1    2    0    0  0.00000000000E+00  0.00000000000E+00  0.20661490249E+04  0.20843612180E+04  0.27493616330E+03 0.  0.
         25    1    3    3    0    0  0.16858221660E+02  0.97640253438E+01  0.54657657973E+03  0.55993347224E+03  0.12000000000E+03 0.  0.
         25    1    3    3    0    0 -0.16858221660E+02 -0.97640253438E+01  0.15195724452E+04  0.15244277457E+04  0.12000000000E+03 0.  0.
<mgrwt>
<rscale>  0 0.27493616E+03</rscale>
<asrwt>0</asrwt>
<pdfrwt beam="1">  1        1 0.31926964E+00 0.27493616E+03</pdfrwt>
<pdfrwt beam="2">  1       -1 0.14009396E-02 0.27493616E+03</pdfrwt>
<totfact> 0.34752796E+03</totfact>
</mgrwt>
</event>
<event>
 5    1  0.1111501E+001  0.2753104E+03  0.7818608E-02  0.1098278E+00
          1   -1    0    0  501    0  0.00000000000E+00  0.00000000000E+00  0.37710655819E+03  0.37710655819E+03  0.00000000000E+00 0. -1.
         -1   -1    0    0    0  501 -0.00000000000E+00 -0.00000000000E+00 -0.50248280861E+02  0.50248280861E+02  0.00000000000E+00 0. -1.
         35    2    1    2    0    0  0.00000000000E+00  0.00000000000E+00  0.32685827733E+03  0.42735483905E+03  0.27531041572E+03 0.  0.
         25    1    3    3    0    0 -0.31369728397E+02  0.55355228489E+02  0.19816296602E+03  0.24024325648E+03  0.12000000000E+03 0.  0.
         25    1    3    3    0    0  0.31369728397E+02 -0.55355228489E+02  0.12869531131E+03  0.18711158257E+03  0.12000000000E+03 0.  0.
<mgrwt>
<rscale>  0 0.27531042E+03</rscale>
<asrwt>0</asrwt>
<pdfrwt beam="1">  1        1 0.58016392E-01 0.27531042E+03</pdfrwt>
<pdfrwt beam="2">  1       -1 0.77305050E-02 0.27531042E+03</pdfrwt>
<totfact> 0.58990661E+03</totfact>
</mgrwt>
</event>
<event>
 5    1  0.1111501E+001  0.2769417E+03  0.7818608E-02  0.1097371E+00
          2   -1    0    0  501    0  0.00000000000E+00  0.00000000000E+00  0.29858819392E+02  0.29858819392E+02  0.00000000000E+00 0. -1.
         -2   -1    0    0    0  501 -0.00000000000E+00 -0.00000000000E+00 -0.64216103826E+03  0.64216103826E+03  0.00000000000E+00 0. -1.
         35    2    1    2    0    0  0.00000000000E+00  0.00000000000E+00 -0.61230221887E+03  0.67201985765E+03  0.27694165784E+03 0.  0.
         25    1    3    3    0    0  0.27667040419E+02  0.62895379704E+02 -0.28850595892E+03  0.31993277770E+03  0.12000000000E+03 0.  0.
         25    1    3    3    0    0 -0.27667040419E+02 -0.62895379704E+02 -0.32379625995E+03  0.35208707995E+03  0.12000000000E+03 0.  0.
<mgrwt>
<rscale>  0 0.27694166E+03</rscale>
<asrwt>0</asrwt>
<pdfrwt beam="1">  1        2 0.45936646E-02 0.27694166E+03</pdfrwt>
<pdfrwt beam="2">  1       -2 0.98794005E-01 0.27694166E+03</pdfrwt>
<totfact> 0.15519354E+03</totfact>
</mgrwt>
</event>
<event>
 5    1  0.1111501E+001  0.2747690E+03  0.7818608E-02  0.1098581E+00
          1   -1    0    0  501    0  0.00000000000E+00  0.00000000000E+00  0.44332226521E+03  0.44332226521E+03  0.00000000000E+00 0. -1.
         -1   -1    0    0    0  501 -0.00000000000E+00 -0.00000000000E+00 -0.42575128633E+02  0.42575128633E+02  0.00000000000E+00 0. -1.
         35    2    1    2    0    0  0.00000000000E+00  0.00000000000E+00  0.40074713658E+03  0.48589739385E+03  0.27476901184E+03 0.  0.
         25    1    3    3    0    0 -0.33809088717E+02  0.38564973882E+02  0.27631516789E+03  0.30558204086E+03  0.12000000000E+03 0.  0.
         25    1    3    3    0    0  0.33809088717E+02 -0.38564973882E+02  0.12443196869E+03  0.18031535299E+03  0.12000000000E+03 0.  0.
<mgrwt>
<rscale>  0 0.27476901E+03</rscale>
<asrwt>0</asrwt>
<pdfrwt beam="1">  1        1 0.68203422E-01 0.27476901E+03</pdfrwt>
<pdfrwt beam="2">  1       -1 0.65500201E-02 0.27476901E+03</pdfrwt>
<totfact> 0.61616207E+03</totfact>
</mgrwt>
</event>
<event>
 5    1  0.1111501E+001  0.2746678E+03  0.7818608E-02  0.1098637E+00
          2   -1    0    0  501    0  0.00000000000E+00  0.00000000000E+00  0.31962724366E+02  0.31962724366E+02  0.00000000000E+00 0.  1.
         -2   -1    0    0    0  501 -0.00000000000E+00 -0.00000000000E+00 -0.59008097111E+03  0.59008097111E+03  0.00000000000E+00 0.  1.
         35    2    1    2    0    0  0.00000000000E+00  0.00000000000E+00 -0.55811824675E+03  0.62204369548E+03  0.27466776610E+03 0.  0.
         25    1    3    3    0    0 -0.61566335144E+02  0.20179399039E+02 -0.31578475949E+03  0.34397330725E+03  0.12000000000E+03 0.  0.
         25    1    3    3    0    0  0.61566335144E+02 -0.20179399039E+02 -0.24233348725E+03  0.27807038824E+03  0.12000000000E+03 0.  0.
<mgrwt>
<rscale>  0 0.27466777E+03</rscale>
<asrwt>0</asrwt>
<pdfrwt beam="1">  1        2 0.49173423E-02 0.27466777E+03</pdfrwt>
<pdfrwt beam="2">  1       -2 0.90781686E-01 0.27466777E+03</pdfrwt>
<totfact> 0.17206334E+03</totfact>
</mgrwt>
</event>
<event>
 5    1  0.1111501E+001  0.2779938E+03  0.7818608E-02  0.1096790E+00
         -2   -1    0    0    0  501 -0.00000000000E+00  0.00000000000E+00  0.22076240582E+02  0.22076240582E+02  0.00000000000E+00 0.  1.
          2   -1    0    0  501    0  0.00000000000E+00 -0.00000000000E+00 -0.87515504908E+03  0.87515504908E+03  0.00000000000E+00 0.  1.
         35    2    1    2    0    0  0.00000000000E+00  0.00000000000E+00 -0.85307880850E+03  0.89723128966E+03  0.27799376547E+03 0.  0.
         25    1    3    3    0    0 -0.24149325329E+02 -0.65663507790E+02 -0.44275662068E+03  0.46403481693E+03  0.12000000000E+03 0.  0.
         25    1    3    3    0    0  0.24149325329E+02  0.65663507790E+02 -0.41032218782E+03  0.43319647273E+03  0.12000000000E+03 0.  0.
<mgrwt>
<rscale>  0 0.27799377E+03</rscale>
<asrwt>0</asrwt>
<pdfrwt beam="1">  1        2 0.13463923E+00 0.27799377E+03</pdfrwt>
<pdfrwt beam="2">  1       -2 0.33963449E-02 0.27799377E+03</pdfrwt>
<totfact> 0.11065011E+04</totfact>
</mgrwt>
</event>
<event>
 5    1  0.1111501E+001  0.2740737E+03  0.7818608E-02  0.1098970E+00
         -1   -1    0    0    0  501 -0.00000000000E+00  0.00000000000E+00  0.94613410215E+02  0.94613410215E+02  0.00000000000E+00 0.  1.
          1   -1    0    0  501    0  0.00000000000E+00 -0.00000000000E+00 -0.19848247478E+03  0.19848247478E+03  0.00000000000E+00 0.  1.
         35    2    1    2    0    0  0.00000000000E+00  0.00000000000E+00 -0.10386906456E+03  0.29309588499E+03  0.27407374049E+03 0.  0.
         25    1    3    3    0    0 -0.63968362939E+02  0.16940155822E+02 -0.51476469295E+02  0.14638561141E+03  0.12000000000E+03 0.  0.
         25    1    3    3    0    0  0.63968362939E+02 -0.16940155822E+02 -0.52392595267E+02  0.14671027358E+03  0.12000000000E+03 0.  0.
<mgrwt>
<rscale>  0 0.27407374E+03</rscale>
<asrwt>0</asrwt>
<pdfrwt beam="1">  1        1 0.30535765E-01 0.27407374E+03</pdfrwt>
<pdfrwt beam="2">  1       -1 0.14555909E-01 0.27407374E+03</pdfrwt>
<totfact> 0.49590218E+03</totfact>
</mgrwt>
</event>
<event>
 5    1  0.1111501E+001  0.2755864E+03  0.7818608E-02  0.1098124E+00
         -2   -1    0    0    0  501 -0.00000000000E+00  0.00000000000E+00  0.15658441663E+02  0.15658441663E+02  0.00000000000E+00 0.  1.
          2   -1    0    0  501    0  0.00000000000E+00 -0.00000000000E+00 -0.12125702620E+04  0.12125702620E+04  0.00000000000E+00 0.  1.
         35    2    1    2    0    0  0.00000000000E+00  0.00000000000E+00 -0.11969118204E+04  0.12282287037E+04  0.27558636185E+03 0.  0.
         25    1    3    3    0    0 -0.35397065885E+02  0.47778389018E+02 -0.45395478918E+03  0.47329766253E+03  0.12000000000E+03 0.  0.
         25    1    3    3    0    0  0.35397065885E+02 -0.47778389018E+02 -0.74295703119E+03  0.75493104117E+03  0.12000000000E+03 0.  0.
<mgrwt>
<rscale>  0 0.27558636E+03</rscale>
<asrwt>0</asrwt>
<pdfrwt beam="1">  1        2 0.18654931E+00 0.27558636E+03</pdfrwt>
<pdfrwt beam="2">  1       -2 0.24089905E-02 0.27558636E+03</pdfrwt>
<totfact> 0.11526349E+04</totfact>
</mgrwt>
</event>
<event>
 5    1  0.1111501E+001  0.2752036E+03  0.7818608E-02  0.1098338E+00
          4   -1    0    0  501    0  0.00000000000E+00  0.00000000000E+00  0.10186997666E+04  0.10186997666E+04  0.00000000000E+00 0.  1.
         -4   -1    0    0    0  501 -0.00000000000E+00 -0.00000000000E+00 -0.18586681901E+02  0.18586681901E+02  0.00000000000E+00 0.  1.
         35    2    1    2    0    0  0.00000000000E+00  0.00000000000E+00  0.10001130847E+04  0.10372864485E+04  0.27520355023E+03 0.  0.
         25    1    3    3    0    0  0.17839766740E+02  0.28096388411E+02  0.27942105022E+03  0.30591467377E+03  0.12000000000E+03 0.  0.
         25    1    3    3    0    0 -0.17839766740E+02 -0.28096388411E+02  0.72069203446E+03  0.73137177471E+03  0.12000000000E+03 0.  0.
<mgrwt>
<rscale>  0 0.27520355E+03</rscale>
<asrwt>0</asrwt>
<pdfrwt beam="1">  1        4 0.15672300E+00 0.27520355E+03</pdfrwt>
<pdfrwt beam="2">  1       -4 0.28594903E-02 0.27520355E+03</pdfrwt>
<totfact> 0.30718947E+02</totfact>
</mgrwt>
</event>
<event>
 5    1  0.1111501E+001  0.2752420E+03  0.7818608E-02  0.1098316E+00
          1   -1    0    0  501    0  0.00000000000E+00  0.00000000000E+00  0.50523578353E+03  0.50523578353E+03  0.00000000000E+00 0.  1.
         -1   -1    0    0    0  501 -0.00000000000E+00 -0.00000000000E+00 -0.37486539953E+02  0.37486539953E+02  0.00000000000E+00 0.  1.
         35    2    1    2    0    0  0.00000000000E+00  0.00000000000E+00  0.46774924358E+03  0.54272232349E+03  0.27524201267E+03 0.  0.
         25    1    3    3    0    0 -0.65395826990E+02 -0.15818612341E+02  0.22684806423E+03  0.26530527120E+03  0.12000000000E+03 0.  0.
         25    1    3    3    0    0  0.65395826990E+02  0.15818612341E+02  0.24090117935E+03  0.27741705228E+03  0.12000000000E+03 0.  0.
<mgrwt>
<rscale>  0 0.27524201E+03</rscale>
<asrwt>0</asrwt>
<pdfrwt beam="1">  1        1 0.77728577E-01 0.27524201E+03</pdfrwt>
<pdfrwt beam="2">  1       -1 0.57671603E-02 0.27524201E+03</pdfrwt>
<totfact> 0.62879969E+03</totfact>
</mgrwt>
</event>
<event>
 5    1  0.1111501E+001  0.2752787E+03  0.7818608E-02  0.1098296E+00
         -1   -1    0    0    0  501 -0.00000000000E+00  0.00000000000E+00  0.50932075799E+03  0.50932075799E+03  0.00000000000E+00 0.  1.
          1   -1    0    0  501    0  0.00000000000E+00 -0.00000000000E+00 -0.37195781834E+02  0.37195781834E+02  0.00000000000E+00 0.  1.
         35    2    1    2    0    0  0.00000000000E+00  0.00000000000E+00  0.47212497616E+03  0.54651653983E+03  0.27527865008E+03 0.  0.
         25    1    3    3    0    0 -0.25630099778E+02  0.35320382670E+02  0.33807308162E+03  0.36138323144E+03  0.12000000000E+03 0.  0.
         25    1    3    3    0    0  0.25630099778E+02 -0.35320382670E+02  0.13405189454E+03  0.18513330839E+03  0.12000000000E+03 0.  0.
<mgrwt>
<rscale>  0 0.27527865E+03</rscale>
<asrwt>0</asrwt>
<pdfrwt beam="1">  1        1 0.57224284E-02 0.27527865E+03</pdfrwt>
<pdfrwt beam="2">  1       -1 0.78357034E-01 0.27527865E+03</pdfrwt>
<totfact> 0.23456091E+03</totfact>
</mgrwt>
</event>
<event>
 5    1  0.1111501E+001  0.2757298E+03  0.7818608E-02  0.1098044E+00
          2   -1    0    0  501    0  0.00000000000E+00  0.00000000000E+00  0.26979732494E+03  0.26979732494E+03  0.00000000000E+00 0.  1.
         -2   -1    0    0    0  501 -0.00000000000E+00 -0.00000000000E+00 -0.70448203197E+02  0.70448203197E+02  0.00000000000E+00 0.  1.
         35    2    1    2    0    0  0.00000000000E+00  0.00000000000E+00  0.19934912174E+03  0.34024552814E+03  0.27572984437E+03 0.  0.
         25    1    3    3    0    0  0.10902385479E+02  0.60070454181E+02  0.63080916973E+02  0.14868262696E+03  0.12000000000E+03 0.  0.
         25    1    3    3    0    0 -0.10902385479E+02 -0.60070454181E+02  0.13626820477E+03  0.19156290117E+03  0.12000000000E+03 0.  0.
<mgrwt>
<rscale>  0 0.27572984E+03</rscale>
<asrwt>0</asrwt>
<pdfrwt beam="1">  1        2 0.41507280E-01 0.27572984E+03</pdfrwt>
<pdfrwt beam="2">  1       -2 0.10838185E-01 0.27572984E+03</pdfrwt>
<totfact> 0.71027669E+03</totfact>
</mgrwt>
</event>
<event>
 5    1  0.1111501E+001  0.2773204E+03  0.7818608E-02  0.1097162E+00
         -2   -1    0    0    0  501 -0.00000000000E+00  0.00000000000E+00  0.27221084831E+02  0.27221084831E+02  0.00000000000E+00 0.  1.
          2   -1    0    0  501    0  0.00000000000E+00 -0.00000000000E+00 -0.70631485050E+03  0.70631485050E+03  0.00000000000E+00 0.  1.
         35    2    1    2    0    0  0.00000000000E+00  0.00000000000E+00 -0.67909376567E+03  0.73353593533E+03  0.27732043894E+03 0.  0.
         25    1    3    3    0    0  0.17791225242E+02 -0.13842518423E+02 -0.51336964779E+03  0.52768981256E+03  0.12000000000E+03 0.  0.
         25    1    3    3    0    0 -0.17791225242E+02  0.13842518423E+02 -0.16572411788E+03  0.20584612277E+03  0.12000000000E+03 0.  0.
<mgrwt>
<rscale>  0 0.27732044E+03</rscale>
<asrwt>0</asrwt>
<pdfrwt beam="1">  1        2 0.10866382E+00 0.27732044E+03</pdfrwt>
<pdfrwt beam="2">  1       -2 0.41878592E-02 0.27732044E+03</pdfrwt>
<totfact> 0.10598356E+04</totfact>
</mgrwt>
</event>
<event>
 5    1  0.1111501E+001  0.2757883E+03  0.7818608E-02  0.1098012E+00
          1   -1    0    0  501    0  0.00000000000E+00  0.00000000000E+00  0.10542542494E+03  0.10542542494E+03  0.00000000000E+00 0. -1.
         -1   -1    0    0    0  501 -0.00000000000E+00 -0.00000000000E+00 -0.18036253968E+03  0.18036253968E+03  0.00000000000E+00 0. -1.
         35    2    1    2    0    0  0.00000000000E+00  0.00000000000E+00 -0.74937114737E+02  0.28578796462E+03  0.27578830570E+03 0.  0.
         25    1    3    3    0    0  0.44394553933E+01  0.31813638407E+02 -0.99496923754E+02  0.15915858189E+03  0.12000000000E+03 0.  0.
         25    1    3    3    0    0 -0.44394553933E+01 -0.31813638407E+02  0.24559809017E+02  0.12662938273E+03  0.12000000000E+03 0.  0.
<mgrwt>
<rscale>  0 0.27578831E+03</rscale>
<asrwt>0</asrwt>
<pdfrwt beam="1">  1        1 0.16219296E-01 0.27578831E+03</pdfrwt>
<pdfrwt beam="2">  1       -1 0.27748083E-01 0.27578831E+03</pdfrwt>
<totfact> 0.39018188E+03</totfact>
</mgrwt>
</event>
<event>
 5    1  0.1111501E+001  0.2750576E+03  0.7818608E-02  0.1098419E+00
          2   -1    0    0  501    0  0.00000000000E+00  0.00000000000E+00  0.11591728311E+04  0.11591728311E+04  0.00000000000E+00 0. -1.
         -2   -1    0    0    0  501 -0.00000000000E+00 -0.00000000000E+00 -0.16316960290E+02  0.16316960290E+02  0.00000000000E+00 0. -1.
         35    2    1    2    0    0  0.00000000000E+00  0.00000000000E+00  0.11428558708E+04  0.11754897914E+04  0.27505764526E+03 0.  0.
         25    1    3    3    0    0 -0.23550472693E+01  0.34468300379E+02  0.32516374233E+03  0.34831748349E+03  0.12000000000E+03 0.  0.
         25    1    3    3    0    0  0.23550472693E+01 -0.34468300379E+02  0.81769212849E+03  0.82717230791E+03  0.12000000000E+03 0.  0.
<mgrwt>
<rscale>  0 0.27505765E+03</rscale>
<asrwt>0</asrwt>
<pdfrwt beam="1">  1        2 0.17833422E+00 0.27505765E+03</pdfrwt>
<pdfrwt beam="2">  1       -2 0.25103025E-02 0.27505765E+03</pdfrwt>
<totfact> 0.11632670E+04</totfact>
</mgrwt>
</event>
<event>
 5    1  0.1111501E+001  0.2750186E+03  0.7818608E-02  0.1098441E+00
          2   -1    0    0  501    0  0.00000000000E+00  0.00000000000E+00  0.18540171215E+02  0.18540171215E+02  0.00000000000E+00 0.  1.
         -2   -1    0    0    0  501 -0.00000000000E+00 -0.00000000000E+00 -0.10198827970E+04  0.10198827970E+04  0.00000000000E+00 0.  1.
         35    2    1    2    0    0  0.00000000000E+00  0.00000000000E+00 -0.10013426257E+04  0.10384229682E+04  0.27501855701E+03 0.  0.
         25    1    3    3    0    0  0.15311629579E+02 -0.54200840311E+02 -0.36262748019E+03  0.38609696512E+03  0.12000000000E+03 0.  0.
         25    1    3    3    0    0 -0.15311629579E+02  0.54200840311E+02 -0.63871514555E+03  0.65232600304E+03  0.12000000000E+03 0.  0.
<mgrwt>
<rscale>  0 0.27501856E+03</rscale>
<asrwt>0</asrwt>
<pdfrwt beam="1">  1        2 0.28523334E-02 0.27501856E+03</pdfrwt>
<pdfrwt beam="2">  1       -2 0.15690508E+00 0.27501856E+03</pdfrwt>
<totfact> 0.94677026E+02</totfact>
</mgrwt>
</event>
<event>
 5    1  0.1111501E+001  0.2753652E+03  0.7818608E-02  0.1098248E+00
         -2   -1    0    0    0  501 -0.00000000000E+00  0.00000000000E+00  0.11196881272E+02  0.11196881272E+02  0.00000000000E+00 0. -1.
          2   -1    0    0  501    0  0.00000000000E+00 -0.00000000000E+00 -0.16930156274E+04  0.16930156274E+04  0.00000000000E+00 0. -1.
         35    2    1    2    0    0  0.00000000000E+00  0.00000000000E+00 -0.16818187461E+04  0.17042125087E+04  0.27536517552E+03 0.  0.
         25    1    3    3    0    0  0.65689714560E+02 -0.36255802295E+00 -0.93703204233E+03  0.94696584859E+03  0.12000000000E+03 0.  0.
         25    1    3    3    0    0 -0.65689714560E+02  0.36255802295E+00 -0.74478670379E+03  0.75724666008E+03  0.12000000000E+03 0.  0.
<mgrwt>
<rscale>  0 0.27536518E+03</rscale>
<asrwt>0</asrwt>
<pdfrwt beam="1">  1        2 0.26046399E+00 0.27536518E+03</pdfrwt>
<pdfrwt beam="2">  1       -2 0.17225968E-02 0.27536518E+03</pdfrwt>
<totfact> 0.10376753E+04</totfact>
</mgrwt>
</event>
<event>
 5    1  0.1111501E+001  0.2747636E+03  0.7818608E-02  0.1098584E+00
          2   -1    0    0  501    0  0.00000000000E+00  0.00000000000E+00  0.51320598170E+03  0.51320598170E+03  0.00000000000E+00 0.  1.
         -2   -1    0    0    0  501 -0.00000000000E+00 -0.00000000000E+00 -0.36776189233E+02  0.36776189233E+02  0.00000000000E+00 0.  1.
         35    2    1    2    0    0  0.00000000000E+00  0.00000000000E+00  0.47642979247E+03  0.54998217094E+03  0.27476360966E+03 0.  0.
         25    1    3    3    0    0  0.16810082575E+01 -0.41412245615E+02  0.34329630489E+03  0.36601933395E+03  0.12000000000E+03 0.  0.
         25    1    3    3    0    0 -0.16810082575E+01  0.41412245615E+02  0.13313348758E+03  0.18396283698E+03  0.12000000000E+03 0.  0.
<mgrwt>
<rscale>  0 0.27476361E+03</rscale>
<asrwt>0</asrwt>
<pdfrwt beam="1">  1        2 0.78954761E-01 0.27476361E+03</pdfrwt>
<pdfrwt beam="2">  1       -2 0.56578756E-02 0.27476361E+03</pdfrwt>
<totfact> 0.97360509E+03</totfact>
</mgrwt>
</event>
<event>
 5    1  0.1111501E+001  0.2759114E+03  0.7818608E-02  0.1097943E+00
          2   -1    0    0  501    0  0.00000000000E+00  0.00000000000E+00  0.12925795015E+04  0.12925795015E+04  0.00000000000E+00 0.  1.
         -2   -1    0    0    0  501 -0.00000000000E+00 -0.00000000000E+00 -0.14723867362E+02  0.14723867362E+02  0.00000000000E+00 0.  1.
         35    2    1    2    0    0  0.00000000000E+00  0.00000000000E+00  0.12778556341E+04  0.13073033689E+04  0.27591135631E+03 0.  0.
         25    1    3    3    0    0 -0.36107110525E+02  0.45700542910E+02  0.47211433981E+03  0.49059577343E+03  0.12000000000E+03 0.  0.
         25    1    3    3    0    0  0.36107110525E+02 -0.45700542910E+02  0.80574129434E+03  0.81670759544E+03  0.12000000000E+03 0.  0.
<mgrwt>
<rscale>  0 0.27591136E+03</rscale>
<asrwt>0</asrwt>
<pdfrwt beam="1">  1        2 0.19885830E+00 0.27591136E+03</pdfrwt>
<pdfrwt beam="2">  1       -2 0.22652114E-02 0.27591136E+03</pdfrwt>
<totfact> 0.11385602E+04</totfact>
</mgrwt>
</event>
<event>
 5    1  0.1111501E+001  0.2748344E+03  0.7818608E-02  0.1098544E+00
         -1   -1    0    0    0  501 -0.00000000000E+00  0.00000000000E+00  0.10984158499E+03  0.10984158499E+03  0.00000000000E+00 0.  1.
          1   -1    0    0  501    0  0.00000000000E+00 -0.00000000000E+00 -0.17191561115E+03  0.17191561115E+03  0.00000000000E+00 0.  1.
         35    2    1    2    0    0  0.00000000000E+00  0.00000000000E+00 -0.62074026165E+02  0.28175719614E+03  0.27483437349E+03 0.  0.
         25    1    3    3    0    0  0.27686957995E+02 -0.17583753821E+02  0.28809158927E+02  0.12769386704E+03  0.12000000000E+03 0.  0.
         25    1    3    3    0    0 -0.27686957995E+02  0.17583753821E+02 -0.90883185093E+02  0.15406332910E+03  0.12000000000E+03 0.  0.
<mgrwt>
<rscale>  0 0.27483437E+03</rscale>
<asrwt>0</asrwt>
<pdfrwt beam="1">  1        1 0.26448555E-01 0.27483437E+03</pdfrwt>
<pdfrwt beam="2">  1       -1 0.16898706E-01 0.27483437E+03</pdfrwt>
<totfact> 0.46899226E+03</totfact>
</mgrwt>
</event>
<event>
 5    1  0.1111501E+001  0.2644115E+03  0.7818608E-02  0.1104521E+00
          2   -1    0    0  501    0  0.00000000000E+00  0.00000000000E+00  0.19794265928E+03  0.19794265928E+03  0.00000000000E+00 0.  1.
         -2   -1    0    0    0  501 -0.00000000000E+00 -0.00000000000E+00 -0.88300129284E+02  0.88300129284E+02  0.00000000000E+00 0.  1.
         35    2    1    2    0    0  0.00000000000E+00  0.00000000000E+00  0.10964253000E+03  0.28624278857E+03  0.26441151568E+03 0.  0.
         25    1    3    3    0    0 -0.33027871287E+02 -0.41299654677E+02  0.72996139093E+02  0.15008310391E+03  0.12000000000E+03 0.  0.
         25    1    3    3    0    0  0.33027871287E+02  0.41299654677E+02  0.36646390906E+02  0.13615968465E+03  0.12000000000E+03 0.  0.
<mgrwt>
<rscale>  0 0.26441152E+03</rscale>
<asrwt>0</asrwt>
<pdfrwt beam="1">  1        2 0.30452717E-01 0.26441152E+03</pdfrwt>
<pdfrwt beam="2">  1       -2 0.13584635E-01 0.26441152E+03</pdfrwt>
<totfact> 0.68881080E+03</totfact>
</mgrwt>
</event>
<event>
 5    1  0.1111501E+001  0.2777756E+03  0.7818608E-02  0.1096910E+00
          3   -1    0    0  501    0  0.00000000000E+00  0.00000000000E+00  0.11900368026E+04  0.11900368026E+04  0.00000000000E+00 0. -1.
         -3   -1    0    0    0  501 -0.00000000000E+00 -0.00000000000E+00 -0.16209427721E+02  0.16209427721E+02  0.00000000000E+00 0. -1.
         35    2    1    2    0    0  0.00000000000E+00  0.00000000000E+00  0.11738273748E+04  0.12062462303E+04  0.27777556074E+03 0.  0.
         25    1    3    3    0    0  0.53854247575E+02  0.19951461351E+01  0.78041454363E+03  0.79142347734E+03  0.12000000000E+03 0.  0.
         25    1    3    3    0    0 -0.53854247575E+02 -0.19951461351E+01  0.39341283121E+03  0.41482275293E+03  0.12000000000E+03 0.  0.
<mgrwt>
<rscale>  0 0.27777556E+03</rscale>
<asrwt>0</asrwt>
<pdfrwt beam="1">  1        3 0.18308252E+00 0.27777556E+03</pdfrwt>
<pdfrwt beam="2">  1       -3 0.24937590E-02 0.27777556E+03</pdfrwt>
<totfact> 0.35170518E+02</totfact>
</mgrwt>
</event>
<event>
 5    1  0.1111501E+001  0.2756433E+03  0.7818608E-02  0.1098093E+00
         -2   -1    0    0    0  501 -0.00000000000E+00  0.00000000000E+00  0.12663753578E+03  0.12663753578E+03  0.00000000000E+00 0. -1.
          2   -1    0    0  501    0  0.00000000000E+00 -0.00000000000E+00 -0.14999346704E+03  0.14999346704E+03  0.00000000000E+00 0. -1.
         35    2    1    2    0    0  0.00000000000E+00  0.00000000000E+00 -0.23355931261E+02  0.27663100282E+03  0.27564326982E+03 0.  0.
         25    1    3    3    0    0  0.32160881862E+02  0.15600516016E+02  0.46122727058E+02  0.13343539401E+03  0.12000000000E+03 0.  0.
         25    1    3    3    0    0 -0.32160881862E+02 -0.15600516016E+02 -0.69478658319E+02  0.14319560882E+03  0.12000000000E+03 0.  0.
<mgrwt>
<rscale>  0 0.27564327E+03</rscale>
<asrwt>0</asrwt>
<pdfrwt beam="1">  1        2 0.23075918E-01 0.27564327E+03</pdfrwt>
<pdfrwt beam="2">  1       -2 0.19482698E-01 0.27564327E+03</pdfrwt>
<totfact> 0.51454647E+03</totfact>
</mgrwt>
</event>
<event>
 5    1  0.1111501E+001  0.2753265E+03  0.7818608E-02  0.1098269E+00
         -1   -1    0    0    0  501 -0.00000000000E+00  0.00000000000E+00  0.35468114847E+02  0.35468114847E+02  0.00000000000E+00 0. -1.
          1   -1    0    0  501    0  0.00000000000E+00 -0.00000000000E+00 -0.53431559548E+03  0.53431559548E+03  0.00000000000E+00 0. -1.
         35    2    1    2    0    0  0.00000000000E+00  0.00000000000E+00 -0.49884748063E+03  0.56978371033E+03  0.27532647461E+03 0.  0.
         25    1    3    3    0    0  0.33644162637E+02  0.51371519633E+02 -0.19161863511E+03  0.23428329866E+03  0.12000000000E+03 0.  0.
         25    1    3    3    0    0 -0.33644162637E+02 -0.51371519633E+02 -0.30722884552E+03  0.33550041167E+03  0.12000000000E+03 0.  0.
<mgrwt>
<rscale>  0 0.27532647E+03</rscale>
<asrwt>0</asrwt>
<pdfrwt beam="1">  1        1 0.82202384E-01 0.27532647E+03</pdfrwt>
<pdfrwt beam="2">  1       -1 0.54566341E-02 0.27532647E+03</pdfrwt>
<totfact> 0.63404876E+03</totfact>
</mgrwt>
</event>
<event>
 5    1  0.1111501E+001  0.2745012E+03  0.7818608E-02  0.1098731E+00
          2   -1    0    0  501    0  0.00000000000E+00  0.00000000000E+00  0.25266358971E+04  0.25266358971E+04  0.00000000000E+00 0. -1.
         -2   -1    0    0    0  501 -0.00000000000E+00 -0.00000000000E+00 -0.74556560822E+01  0.74556560822E+01  0.00000000000E+00 0. -1.
         35    2    1    2    0    0  0.00000000000E+00  0.00000000000E+00  0.25191802411E+04  0.25340915532E+04  0.27450120797E+03 0.  0.
         25    1    3    3    0    0  0.30814731121E+02 -0.18750367254E+02  0.74256944259E+03  0.75306739472E+03  0.12000000000E+03 0.  0.
         25    1    3    3    0    0 -0.30814731121E+02  0.18750367254E+02  0.17766107985E+04  0.17810241585E+04  0.12000000000E+03 0.  0.
<mgrwt>
<rscale>  0 0.27450121E+03</rscale>
<asrwt>0</asrwt>
<pdfrwt beam="1">  1        2 0.38871253E+00 0.27450121E+03</pdfrwt>
<pdfrwt beam="2">  1       -2 0.11470260E-02 0.27450121E+03</pdfrwt>
<totfact> 0.67712697E+03</totfact>
</mgrwt>
</event>
<event>
 5    1  0.1111501E+001  0.2813614E+03  0.7818608E-02  0.1094948E+00
         -2   -1    0    0    0  501 -0.00000000000E+00  0.00000000000E+00  0.10695227106E+02  0.10695227106E+02  0.00000000000E+00 0. -1.
          2   -1    0    0  501    0  0.00000000000E+00 -0.00000000000E+00 -0.18504573864E+04  0.18504573864E+04  0.00000000000E+00 0. -1.
         35    2    1    2    0    0  0.00000000000E+00  0.00000000000E+00 -0.18397621593E+04  0.18611526135E+04  0.28136141880E+03 0.  0.
         25    1    3    3    0    0 -0.36698683942E+02  0.26809499127E+02 -0.13013394780E+04  0.13076505571E+04  0.12000000000E+03 0.  0.
         25    1    3    3    0    0  0.36698683942E+02 -0.26809499127E+02 -0.53842268137E+03  0.55350205642E+03  0.12000000000E+03 0.  0.
<mgrwt>
<rscale>  0 0.28136142E+03</rscale>
<asrwt>0</asrwt>
<pdfrwt beam="1">  1        2 0.28468579E+00 0.28136142E+03</pdfrwt>
<pdfrwt beam="2">  1       -2 0.16454193E-02 0.28136142E+03</pdfrwt>
<totfact> 0.91750218E+03</totfact>
</mgrwt>
</event>
<event>
 5    1  0.1111501E+001  0.2751143E+03  0.7818608E-02  0.1098388E+00
         -2   -1    0    0    0  501 -0.00000000000E+00  0.00000000000E+00  0.61459245363E+02  0.61459245363E+02  0.00000000000E+00 0.  1.
          2   -1    0    0  501    0  0.00000000000E+00 -0.00000000000E+00 -0.30787841105E+03  0.30787841105E+03  0.00000000000E+00 0.  1.
         35    2    1    2    0    0  0.00000000000E+00  0.00000000000E+00 -0.24641916569E+03  0.36933765642E+03  0.27511433846E+03 0.  0.
         25    1    3    3    0    0  0.55661467853E+02 -0.26855714365E+02 -0.15879301808E+03  0.20840981500E+03  0.12000000000E+03 0.  0.
         25    1    3    3    0    0 -0.55661467853E+02  0.26855714365E+02 -0.87626147609E+02  0.16092784141E+03  0.12000000000E+03 0.  0.
<mgrwt>
<rscale>  0 0.27511434E+03</rscale>
<asrwt>0</asrwt>
<pdfrwt beam="1">  1        2 0.47365909E-01 0.27511434E+03</pdfrwt>
<pdfrwt beam="2">  1       -2 0.94552686E-02 0.27511434E+03</pdfrwt>
<totfact> 0.76565963E+03</totfact>
</mgrwt>
</event>
<event>
 5    1  0.1111501E+001  0.2756477E+03  0.7818608E-02  0.1098090E+00
         -1   -1    0    0    0  501 -0.00000000000E+00  0.00000000000E+00  0.15653056591E+02  0.15653056591E+02  0.00000000000E+00 0. -1.
          1   -1    0    0  501    0  0.00000000000E+00 -0.00000000000E+00 -0.12135272246E+04  0.12135272246E+04  0.00000000000E+00 0. -1.
         35    2    1    2    0    0  0.00000000000E+00  0.00000000000E+00 -0.11978741680E+04  0.12291802812E+04  0.27564767600E+03 0.  0.
         25    1    3    3    0    0  0.26619537708E+02 -0.40076987137E+02 -0.81189321820E+03  0.82212247411E+03  0.12000000000E+03 0.  0.
         25    1    3    3    0    0 -0.26619537708E+02  0.40076987137E+02 -0.38598094982E+03  0.40705780708E+03  0.12000000000E+03 0.  0.
<mgrwt>
<rscale>  0 0.27564768E+03</rscale>
<asrwt>0</asrwt>
<pdfrwt beam="1">  1        1 0.18669652E+00 0.27564768E+03</pdfrwt>
<pdfrwt beam="2">  1       -1 0.24081622E-02 0.27564768E+03</pdfrwt>
<totfact> 0.58458122E+03</totfact>
</mgrwt>
</event>
<event>
 5    1  0.1111501E+001  0.2764448E+03  0.7818608E-02  0.1097647E+00
         -2   -1    0    0    0  501 -0.00000000000E+00  0.00000000000E+00  0.11195481882E+03  0.11195481882E+03  0.00000000000E+00 0.  1.
          2   -1    0    0  501    0  0.00000000000E+00 -0.00000000000E+00 -0.17065303038E+03  0.17065303038E+03  0.00000000000E+00 0.  1.
         35    2    1    2    0    0  0.00000000000E+00  0.00000000000E+00 -0.58698211560E+02  0.28260784920E+03  0.27644477999E+03 0.  0.
         25    1    3    3    0    0  0.13872115295E+02 -0.67161539263E+02 -0.27791605474E+02  0.14098042869E+03  0.12000000000E+03 0.  0.
         25    1    3    3    0    0 -0.13872115295E+02  0.67161539263E+02 -0.30906606085E+02  0.14162742050E+03  0.12000000000E+03 0.  0.
<mgrwt>
<rscale>  0 0.27644478E+03</rscale>
<asrwt>0</asrwt>
<pdfrwt beam="1">  1        2 0.26254312E-01 0.27644478E+03</pdfrwt>
<pdfrwt beam="2">  1       -2 0.17223818E-01 0.27644478E+03</pdfrwt>
<totfact> 0.54858805E+03</totfact>
</mgrwt>
</event>
<event>
 5    1  0.1111501E+001  0.2783899E+03  0.7818608E-02  0.1096572E+00
          2   -1    0    0  501    0  0.00000000000E+00  0.00000000000E+00  0.10552976030E+04  0.10552976030E+04  0.00000000000E+00 0. -1.
         -2   -1    0    0    0  501 -0.00000000000E+00 -0.00000000000E+00 -0.18359972793E+02  0.18359972793E+02  0.00000000000E+00 0. -1.
         35    2    1    2    0    0  0.00000000000E+00  0.00000000000E+00  0.10369376302E+04  0.10736575758E+04  0.27838990844E+03 0.  0.
         25    1    3    3    0    0  0.46751920497E+02 -0.33766207183E+01  0.72174457288E+03  0.73315235260E+03  0.12000000000E+03 0.  0.
         25    1    3    3    0    0 -0.46751920497E+02  0.33766207183E+01  0.31519305735E+03  0.34050522322E+03  0.12000000000E+03 0.  0.
<mgrwt>
<rscale>  0 0.27838991E+03</rscale>
<asrwt>0</asrwt>
<pdfrwt beam="1">  1        2 0.16235343E+00 0.27838991E+03</pdfrwt>
<pdfrwt beam="2">  1       -2 0.28246120E-02 0.27838991E+03</pdfrwt>
<totfact> 0.11239700E+04</totfact>
</mgrwt>
</event>
<event>
 5    1  0.1111501E+001  0.2753746E+03  0.7818608E-02  0.1098242E+00
         -1   -1    0    0    0  501 -0.00000000000E+00  0.00000000000E+00  0.44851010349E+02  0.44851010349E+02  0.00000000000E+00 0.  1.
          1   -1    0    0  501    0  0.00000000000E+00 -0.00000000000E+00 -0.42268388854E+03  0.42268388854E+03  0.00000000000E+00 0.  1.
         35    2    1    2    0    0  0.00000000000E+00  0.00000000000E+00 -0.37783287819E+03  0.46753489889E+03  0.27537464995E+03 0.  0.
         25    1    3    3    0    0 -0.64662954202E+02  0.54726908371E+01 -0.15731011804E+03  0.20822516954E+03  0.12000000000E+03 0.  0.
         25    1    3    3    0    0  0.64662954202E+02 -0.54726908371E+01 -0.22052276015E+03  0.25930972935E+03  0.12000000000E+03 0.  0.
<mgrwt>
<rscale>  0 0.27537465E+03</rscale>
<asrwt>0</asrwt>
<pdfrwt beam="1">  1        1 0.65028290E-01 0.27537465E+03</pdfrwt>
<pdfrwt beam="2">  1       -1 0.69001555E-02 0.27537465E+03</pdfrwt>
<totfact> 0.60573527E+03</totfact>
</mgrwt>
</event>
<event>
 5    1  0.1111501E+001  0.2753501E+03  0.7818608E-02  0.1098256E+00
         -2   -1    0    0    0  501 -0.00000000000E+00  0.00000000000E+00  0.13990119446E+03  0.13990119446E+03  0.00000000000E+00 0. -1.
          2   -1    0    0  501    0  0.00000000000E+00 -0.00000000000E+00 -0.13548431609E+03  0.13548431609E+03  0.00000000000E+00 0. -1.
         35    2    1    2    0    0  0.00000000000E+00  0.00000000000E+00  0.44168783761E+01  0.27538551055E+03  0.27535008735E+03 0.  0.
         25    1    3    3    0    0 -0.36236932394E+02 -0.56061857029E+02  0.12127908950E+02  0.13785185257E+03  0.12000000000E+03 0.  0.
         25    1    3    3    0    0  0.36236932394E+02  0.56061857029E+02 -0.77110305738E+01  0.13753365797E+03  0.12000000000E+03 0.  0.
<mgrwt>
<rscale>  0 0.27535009E+03</rscale>
<asrwt>0</asrwt>
<pdfrwt beam="1">  1        2 0.20843741E-01 0.27535009E+03</pdfrwt>
<pdfrwt beam="2">  1       -2 0.21523261E-01 0.27535009E+03</pdfrwt>
<totfact> 0.48668165E+03</totfact>
</mgrwt>
</event>
<event>
 5    1  0.1111501E+001  0.2750493E+03  0.7818608E-02  0.1098424E+00
         -1   -1    0    0    0  501 -0.00000000000E+00  0.00000000000E+00  0.14247768655E+02  0.14247768655E+02  0.00000000000E+00 0.  1.
          1   -1    0    0  501    0  0.00000000000E+00 -0.00000000000E+00 -0.13274383469E+04  0.13274383469E+04  0.00000000000E+00 0.  1.
         35    2    1    2    0    0  0.00000000000E+00  0.00000000000E+00 -0.13131905783E+04  0.13416861156E+04  0.27504933718E+03 0.  0.
         25    1    3    3    0    0 -0.33215069739E+02  0.37198800646E+02 -0.43702951911E+03  0.45594055775E+03  0.12000000000E+03 0.  0.
         25    1    3    3    0    0  0.33215069739E+02 -0.37198800646E+02 -0.87616105918E+03  0.88574555785E+03  0.12000000000E+03 0.  0.
<mgrwt>
<rscale>  0 0.27504934E+03</rscale>
<asrwt>0</asrwt>
<pdfrwt beam="1">  1        1 0.20422129E+00 0.27504934E+03</pdfrwt>
<pdfrwt beam="2">  1       -1 0.21919643E-02 0.27504934E+03</pdfrwt>
<totfact> 0.56019682E+03</totfact>
</mgrwt>
</event>
<event>
 5    1  0.1111501E+001  0.2752215E+03  0.7818608E-02  0.1098328E+00
          1   -1    0    0  501    0  0.00000000000E+00  0.00000000000E+00  0.15634374961E+03  0.15634374961E+03  0.00000000000E+00 0. -1.
         -1   -1    0    0    0  501 -0.00000000000E+00 -0.00000000000E+00 -0.12112232813E+03  0.12112232813E+03  0.00000000000E+00 0. -1.
         35    2    1    2    0    0  0.00000000000E+00  0.00000000000E+00  0.35221421476E+02  0.27746607774E+03  0.27522150310E+03 0.  0.
         25    1    3    3    0    0 -0.56069685298E+02 -0.76519036017E+01  0.54437483857E+02  0.14340781320E+03  0.12000000000E+03 0.  0.
         25    1    3    3    0    0  0.56069685298E+02  0.76519036017E+01 -0.19216062382E+02  0.13405826454E+03  0.12000000000E+03 0.  0.
<mgrwt>
<rscale>  0 0.27522150E+03</rscale>
<asrwt>0</asrwt>
<pdfrwt beam="1">  1        1 0.24052885E-01 0.27522150E+03</pdfrwt>
<pdfrwt beam="2">  1       -1 0.18634204E-01 0.27522150E+03</pdfrwt>
<totfact> 0.45224246E+03</totfact>
</mgrwt>
</event>
<event>
 5    1  0.1111501E+001  0.2759005E+03  0.7818608E-02  0.1097949E+00
         -2   -1    0    0    0  501 -0.00000000000E+00  0.00000000000E+00  0.39959433946E+02  0.39959433946E+02  0.00000000000E+00 0. -1.
          2   -1    0    0  501    0  0.00000000000E+00 -0.00000000000E+00 -0.47623962429E+03  0.47623962429E+03  0.00000000000E+00 0. -1.
         35    2    1    2    0    0  0.00000000000E+00  0.00000000000E+00 -0.43628019034E+03  0.51619905824E+03  0.27590045893E+03 0.  0.
         25    1    3    3    0    0 -0.52346527475E+02 -0.26331051359E+02 -0.28286514882E+03  0.31280373339E+03  0.12000000000E+03 0.  0.
         25    1    3    3    0    0  0.52346527475E+02  0.26331051359E+02 -0.15341504152E+03  0.20339532484E+03  0.12000000000E+03 0.  0.
<mgrwt>
<rscale>  0 0.27590046E+03</rscale>
<asrwt>0</asrwt>
<pdfrwt beam="1">  1        2 0.73267632E-01 0.27590046E+03</pdfrwt>
<pdfrwt beam="2">  1       -2 0.61476054E-02 0.27590046E+03</pdfrwt>
<totfact> 0.93207797E+03</totfact>
</mgrwt>
</event>
<event>
 5    1  0.1111501E+001  0.2745262E+03  0.7818608E-02  0.1098717E+00
          3   -1    0    0  501    0  0.00000000000E+00  0.00000000000E+00  0.12516501225E+04  0.12516501225E+04  0.00000000000E+00 0. -1.
         -3   -1    0    0    0  501 -0.00000000000E+00 -0.00000000000E+00 -0.15053059105E+02  0.15053059105E+02  0.00000000000E+00 0. -1.
         35    2    1    2    0    0  0.00000000000E+00  0.00000000000E+00  0.12365970634E+04  0.12667031816E+04  0.27452623388E+03 0.  0.
         25    1    3    3    0    0  0.34700703467E+02 -0.44571803044E+01  0.35658438175E+03  0.37785768034E+03  0.12000000000E+03 0.  0.
         25    1    3    3    0    0 -0.34700703467E+02  0.44571803044E+01  0.88001268163E+03  0.88884550126E+03  0.12000000000E+03 0.  0.
<mgrwt>
<rscale>  0 0.27452623E+03</rscale>
<asrwt>0</asrwt>
<pdfrwt beam="1">  1        3 0.19256148E+00 0.27452623E+03</pdfrwt>
<pdfrwt beam="2">  1       -3 0.23158562E-02 0.27452623E+03</pdfrwt>
<totfact> 0.34333050E+02</totfact>
</mgrwt>
</event>
<event>
 5    1  0.1111501E+001  0.2753710E+03  0.7818608E-02  0.1098244E+00
         -3   -1    0    0    0  501 -0.00000000000E+00  0.00000000000E+00  0.42752956211E+02  0.42752956211E+02  0.00000000000E+00 0. -1.
          3   -1    0    0  501    0  0.00000000000E+00 -0.00000000000E+00 -0.44341484908E+03  0.44341484908E+03  0.00000000000E+00 0. -1.
         35    2    1    2    0    0  0.00000000000E+00  0.00000000000E+00 -0.40066189287E+03  0.48616780529E+03  0.27537099067E+03 0.  0.
         25    1    3    3    0    0  0.41433512403E+02 -0.50299887543E+02 -0.23143990808E+03  0.26872150210E+03  0.12000000000E+03 0.  0.
         25    1    3    3    0    0 -0.41433512403E+02  0.50299887543E+02 -0.16922198479E+03  0.21744630319E+03  0.12000000000E+03 0.  0.
<mgrwt>
<rscale>  0 0.27537099E+03</rscale>
<asrwt>0</asrwt>
<pdfrwt beam="1">  1        3 0.68217677E-01 0.27537099E+03</pdfrwt>
<pdfrwt beam="2">  1       -3 0.65773771E-02 0.27537099E+03</pdfrwt>
<totfact> 0.78474352E+02</totfact>
</mgrwt>
</event>
<event>
 5    1  0.1111501E+001  0.2744601E+03  0.7818608E-02  0.1098754E+00
          2   -1    0    0  501    0  0.00000000000E+00  0.00000000000E+00  0.33694070919E+03  0.33694070919E+03  0.00000000000E+00 0. -1.
         -2   -1    0    0    0  501 -0.00000000000E+00 -0.00000000000E+00 -0.55891380737E+02  0.55891380737E+02  0.00000000000E+00 0. -1.
         35    2    1    2    0    0  0.00000000000E+00  0.00000000000E+00  0.28104932845E+03  0.39283208993E+03  0.27446006240E+03 0.  0.
         25    1    3    3    0    0 -0.32867420318E+02 -0.23567121577E+01  0.57728990550E+02  0.13718038402E+03  0.12000000000E+03 0.  0.
         25    1    3    3    0    0  0.32867420318E+02  0.23567121577E+01  0.22332033790E+03  0.25565170590E+03  0.12000000000E+03 0.  0.
<mgrwt>
<rscale>  0 0.27446006E+03</rscale>
<asrwt>0</asrwt>
<pdfrwt beam="1">  1        2 0.51837031E-01 0.27446006E+03</pdfrwt>
<pdfrwt beam="2">  1       -2 0.85986741E-02 0.27446006E+03</pdfrwt>
<totfact> 0.80693147E+03</totfact>
</mgrwt>
</event>
<event>
 5    1  0.1111501E+001  0.2749758E+03  0.7818608E-02  0.1098465E+00
          2   -1    0    0  501    0  0.00000000000E+00  0.00000000000E+00  0.17031010003E+04  0.17031010003E+04  0.00000000000E+00 0.  1.
         -2   -1    0    0    0  501 -0.00000000000E+00 -0.00000000000E+00 -0.11099117582E+02  0.11099117582E+02  0.00000000000E+00 0.  1.
         35    2    1    2    0    0  0.00000000000E+00  0.00000000000E+00  0.16920018827E+04  0.17142001178E+04  0.27497576807E+03 0.  0.
         25    1    3    3    0    0 -0.15287255357E+02 -0.38727750450E+02  0.11740647537E+04  0.11809155706E+04  0.12000000000E+03 0.  0.
         25    1    3    3    0    0  0.15287255357E+02  0.38727750450E+02  0.51793712893E+03  0.53328454727E+03  0.12000000000E+03 0.  0.
<mgrwt>
<rscale>  0 0.27497577E+03</rscale>
<asrwt>0</asrwt>
<pdfrwt beam="1">  1        2 0.26201533E+00 0.27497577E+03</pdfrwt>
<pdfrwt beam="2">  1       -2 0.17075579E-02 0.27497577E+03</pdfrwt>
<totfact> 0.10383042E+04</totfact>
</mgrwt>
</event>
<event>
 5    1  0.1111501E+001  0.2758300E+03  0.7818608E-02  0.1097989E+00
         -2   -1    0    0    0  501 -0.00000000000E+00  0.00000000000E+00  0.89570094922E+02  0.89570094922E+02  0.00000000000E+00 0. -1.
          2   -1    0    0  501    0  0.00000000000E+00 -0.00000000000E+00 -0.21235371615E+03  0.21235371615E+03  0.00000000000E+00 0. -1.
         35    2    1    2    0    0  0.00000000000E+00  0.00000000000E+00 -0.12278362123E+03  0.30192381108E+03  0.27582996583E+03 0.  0.
         25    1    3    3    0    0 -0.57321263881E+02  0.34207897747E+02 -0.75436655254E+02  0.15667353483E+03  0.12000000000E+03 0.  0.
         25    1    3    3    0    0  0.57321263881E+02 -0.34207897747E+02 -0.47346965977E+02  0.14525027624E+03  0.12000000000E+03 0.  0.
<mgrwt>
<rscale>  0 0.27582997E+03</rscale>
<asrwt>0</asrwt>
<pdfrwt beam="1">  1        2 0.32669803E-01 0.27582997E+03</pdfrwt>
<pdfrwt beam="2">  1       -2 0.13780015E-01 0.27582997E+03</pdfrwt>
<totfact> 0.62416763E+03</totfact>
</mgrwt>
</event>
<event>
 5    1  0.1111501E+001  0.2745003E+03  0.7818608E-02  0.1098731E+00
          1   -1    0    0  501    0  0.00000000000E+00  0.00000000000E+00  0.11187368336E+04  0.11187368336E+04  0.00000000000E+00 0. -1.
         -1   -1    0    0    0  501 -0.00000000000E+00 -0.00000000000E+00 -0.16838280015E+02  0.16838280015E+02  0.00000000000E+00 0. -1.
         35    2    1    2    0    0  0.00000000000E+00  0.00000000000E+00  0.11018985536E+04  0.11355751136E+04  0.27450030286E+03 0.  0.
         25    1    3    3    0    0  0.65662215865E+02  0.11208975389E+02  0.55368195410E+03  0.57043919397E+03  0.12000000000E+03 0.  0.
         25    1    3    3    0    0 -0.65662215865E+02 -0.11208975389E+02  0.54821659946E+03  0.56513591962E+03  0.12000000000E+03 0.  0.
<mgrwt>
<rscale>  0 0.27450030E+03</rscale>
<asrwt>0</asrwt>
<pdfrwt beam="1">  1        1 0.17211330E+00 0.27450030E+03</pdfrwt>
<pdfrwt beam="2">  1       -1 0.25905055E-02 0.27450030E+03</pdfrwt>
<totfact> 0.61264711E+03</totfact>
</mgrwt>
</event>
<event>
 5    1  0.1111501E+001  0.2750197E+03  0.7818608E-02  0.1098441E+00
         -2   -1    0    0    0  501 -0.00000000000E+00  0.00000000000E+00  0.86546101592E+02  0.86546101592E+02  0.00000000000E+00 0.  1.
          2   -1    0    0  501    0  0.00000000000E+00 -0.00000000000E+00 -0.21848421648E+03  0.21848421648E+03  0.00000000000E+00 0.  1.
         35    2    1    2    0    0  0.00000000000E+00  0.00000000000E+00 -0.13193811489E+03  0.30503031807E+03  0.27501968799E+03 0.  0.
         25    1    3    3    0    0  0.65430173707E+02 -0.97899650698E+01 -0.78712192981E+02  0.15802708746E+03  0.12000000000E+03 0.  0.
         25    1    3    3    0    0 -0.65430173707E+02  0.97899650698E+01 -0.53225921907E+02  0.14700323061E+03  0.12000000000E+03 0.  0.
<mgrwt>
<rscale>  0 0.27501969E+03</rscale>
<asrwt>0</asrwt>
<pdfrwt beam="1">  1        2 0.33612957E-01 0.27501969E+03</pdfrwt>
<pdfrwt beam="2">  1       -2 0.13314785E-01 0.27501969E+03</pdfrwt>
<totfact> 0.63998263E+03</totfact>
</mgrwt>
</event>
<event>
 5    1  0.1111501E+001  0.2739708E+03  0.7818608E-02  0.1099028E+00
          1   -1    0    0  501    0  0.00000000000E+00  0.00000000000E+00  0.20825768340E+03  0.20825768340E+03  0.00000000000E+00 0.  1.
         -1   -1    0    0    0  501 -0.00000000000E+00 -0.00000000000E+00 -0.90104708759E+02  0.90104708759E+02  0.00000000000E+00 0.  1.
         35    2    1    2    0    0  0.00000000000E+00  0.00000000000E+00  0.11815297464E+03  0.29836239216E+03  0.27397078611E+03 0.  0.
         25    1    3    3    0    0 -0.15556791697E+02 -0.57472088000E+02  0.27892494612E+02  0.13683218160E+03  0.12000000000E+03 0.  0.
         25    1    3    3    0    0  0.15556791697E+02  0.57472088000E+02  0.90260480031E+02  0.16153021056E+03  0.12000000000E+03 0.  0.
<mgrwt>
<rscale>  0 0.27397079E+03</rscale>
<asrwt>0</asrwt>
<pdfrwt beam="1">  1        1 0.32039644E-01 0.27397079E+03</pdfrwt>
<pdfrwt beam="2">  1       -1 0.13862263E-01 0.27397079E+03</pdfrwt>
<totfact> 0.50419016E+03</totfact>
</mgrwt>
</event>
<event>
 5    1  0.1111501E+001  0.2650543E+03  0.7818608E-02  0.1104144E+00
          3   -1    0    0  501    0  0.00000000000E+00  0.00000000000E+00  0.92210598105E+01  0.92210598105E+01  0.00000000000E+00 0. -1.
         -3   -1    0    0    0  501 -0.00000000000E+00 -0.00000000000E+00 -0.19047098046E+04  0.19047098046E+04  0.00000000000E+00 0. -1.
         35    2    1    2    0    0  0.00000000000E+00  0.00000000000E+00 -0.18954887448E+04  0.19139308645E+04  0.26505428146E+03 0.  0.
         25    1    3    3    0    0 -0.27139378011E+02 -0.39253552054E+02 -0.73280203420E+03  0.74409422019E+03  0.12000000000E+03 0.  0.
         25    1    3    3    0    0  0.27139378011E+02  0.39253552054E+02 -0.11626867106E+04  0.11698366443E+04  0.12000000000E+03 0.  0.
<mgrwt>
<rscale>  0 0.26505428E+03</rscale>
<asrwt>0</asrwt>
<pdfrwt beam="1">  1        3 0.14186241E-02 0.26505428E+03</pdfrwt>
<pdfrwt beam="2">  1       -3 0.29303238E+00 0.26505428E+03</pdfrwt>
<totfact> 0.19435123E+02</totfact>
</mgrwt>
</event>
<event>
 5    1  0.1111501E+001  0.2758604E+03  0.7818608E-02  0.1097972E+00
          1   -1    0    0  501    0  0.00000000000E+00  0.00000000000E+00  0.69332501688E+03  0.69332501688E+03  0.00000000000E+00 0.  1.
         -1   -1    0    0    0  501 -0.00000000000E+00 -0.00000000000E+00 -0.27439859374E+02  0.27439859374E+02  0.00000000000E+00 0.  1.
         35    2    1    2    0    0  0.00000000000E+00  0.00000000000E+00  0.66588515750E+03  0.72076487625E+03  0.27586040646E+03 0.  0.
         25    1    3    3    0    0  0.18766186642E+01  0.61859114628E+02  0.25928839273E+03  0.29233635142E+03  0.12000000000E+03 0.  0.
         25    1    3    3    0    0 -0.18766186642E+01 -0.61859114628E+02  0.40659676478E+03  0.42842852483E+03  0.12000000000E+03 0.  0.
<mgrwt>
<rscale>  0 0.27586041E+03</rscale>
<asrwt>0</asrwt>
<pdfrwt beam="1">  1        1 0.10666537E+00 0.27586041E+03</pdfrwt>
<pdfrwt beam="2">  1       -1 0.42215173E-02 0.27586041E+03</pdfrwt>
<totfact> 0.64692951E+03</totfact>
</mgrwt>
</event>
<event>
 5    1  0.1111501E+001  0.2803342E+03  0.7818608E-02  0.1095507E+00
         -1   -1    0    0    0  501 -0.00000000000E+00  0.00000000000E+00  0.22133809703E+02  0.22133809703E+02  0.00000000000E+00 0.  1.
          1   -1    0    0  501    0  0.00000000000E+00 -0.00000000000E+00 -0.88763818271E+03  0.88763818271E+03  0.00000000000E+00 0.  1.
         35    2    1    2    0    0  0.00000000000E+00  0.00000000000E+00 -0.86550437301E+03  0.90977199241E+03  0.28033419072E+03 0.  0.
         25    1    3    3    0    0 -0.50524792211E+02  0.36027704774E+02 -0.31149451268E+03  0.33952846945E+03  0.12000000000E+03 0.  0.
         25    1    3    3    0    0  0.50524792211E+02 -0.36027704774E+02 -0.55400986033E+03  0.57024352296E+03  0.12000000000E+03 0.  0.
<mgrwt>
<rscale>  0 0.28033419E+03</rscale>
<asrwt>0</asrwt>
<pdfrwt beam="1">  1        1 0.13655971E+00 0.28033419E+03</pdfrwt>
<pdfrwt beam="2">  1       -1 0.34052016E-02 0.28033419E+03</pdfrwt>
<totfact> 0.61018056E+03</totfact>
</mgrwt>
</event>
<event>
 5    1  0.1111501E+001  0.2749181E+03  0.7818608E-02  0.1098497E+00
         -2   -1    0    0    0  501 -0.00000000000E+00  0.00000000000E+00  0.17059850279E+02  0.17059850279E+02  0.00000000000E+00 0. -1.
          2   -1    0    0  501    0  0.00000000000E+00 -0.00000000000E+00 -0.11075707429E+04  0.11075707429E+04  0.00000000000E+00 0. -1.
         35    2    1    2    0    0  0.00000000000E+00  0.00000000000E+00 -0.10905108926E+04  0.11246305932E+04  0.27491810452E+03 0.  0.
         25    1    3    3    0    0 -0.63124124921E+02 -0.17577937315E+02 -0.60330308376E+03  0.61860185087E+03  0.12000000000E+03 0.  0.
         25    1    3    3    0    0  0.63124124921E+02  0.17577937315E+02 -0.48720780888E+03  0.50602874233E+03  0.12000000000E+03 0.  0.
<mgrwt>
<rscale>  0 0.27491810E+03</rscale>
<asrwt>0</asrwt>
<pdfrwt beam="1">  1        2 0.17039547E+00 0.27491810E+03</pdfrwt>
<pdfrwt beam="2">  1       -2 0.26245929E-02 0.27491810E+03</pdfrwt>
<totfact> 0.11667803E+04</totfact>
</mgrwt>
</event>
<event>
 5    1  0.1111501E+001  0.2742922E+03  0.7818608E-02  0.1098848E+00
          2   -1    0    0  501    0  0.00000000000E+00  0.00000000000E+00  0.29146021549E+02  0.29146021549E+02  0.00000000000E+00 0.  1.
         -2   -1    0    0    0  501 -0.00000000000E+00 -0.00000000000E+00 -0.64533857789E+03  0.64533857789E+03  0.00000000000E+00 0.  1.
         35    2    1    2    0    0  0.00000000000E+00  0.00000000000E+00 -0.61619255634E+03  0.67448459944E+03  0.27429219528E+03 0.  0.
         25    1    3    3    0    0 -0.41399227505E+02 -0.62490705252E+01 -0.43482679958E+03  0.45302019000E+03  0.12000000000E+03 0.  0.
         25    1    3    3    0    0  0.41399227505E+02  0.62490705252E+01 -0.18136575677E+03  0.22146440944E+03  0.12000000000E+03 0.  0.
<mgrwt>
<rscale>  0 0.27429220E+03</rscale>
<asrwt>0</asrwt>
<pdfrwt beam="1">  1        2 0.44840037E-02 0.27429220E+03</pdfrwt>
<pdfrwt beam="2">  1       -2 0.99282851E-01 0.27429220E+03</pdfrwt>
<totfact> 0.15840362E+03</totfact>
</mgrwt>
</event>
<event>
 5    1  0.1111501E+001  0.2744732E+03  0.7818608E-02  0.1098746E+00
         -2   -1    0    0    0  501 -0.00000000000E+00  0.00000000000E+00  0.10469971995E+03  0.10469971995E+03  0.00000000000E+00 0.  1.
          2   -1    0    0  501    0  0.00000000000E+00 -0.00000000000E+00 -0.17988479914E+03  0.17988479914E+03  0.00000000000E+00 0.  1.
         35    2    1    2    0    0  0.00000000000E+00  0.00000000000E+00 -0.75185079190E+02  0.28458451909E+03  0.27447322706E+03 0.  0.
         25    1    3    3    0    0  0.57413036898E+02  0.94914975745E+01 -0.40344551040E+01  0.13342646724E+03  0.12000000000E+03 0.  0.
         25    1    3    3    0    0 -0.57413036898E+02 -0.94914975745E+01 -0.71150624086E+02  0.15115805185E+03  0.12000000000E+03 0.  0.
<mgrwt>
<rscale>  0 0.27447323E+03</rscale>
<asrwt>0</asrwt>
<pdfrwt beam="1">  1        2 0.27674584E-01 0.27447323E+03</pdfrwt>
<pdfrwt beam="2">  1       -2 0.16107649E-01 0.27447323E+03</pdfrwt>
<totfact> 0.57863463E+03</totfact>
</mgrwt>
</event>
<event>
 5    1  0.1111501E+001  0.2692844E+03  0.7818608E-02  0.1101690E+00
          2   -1    0    0  501    0  0.00000000000E+00  0.00000000000E+00  0.20281775536E+04  0.20281775536E+04  0.00000000000E+00 0. -1.
         -2   -1    0    0    0  501 -0.00000000000E+00 -0.00000000000E+00 -0.89383304398E+01  0.89383304398E+01  0.00000000000E+00 0. -1.
         35    2    1    2    0    0  0.00000000000E+00  0.00000000000E+00  0.20192392231E+04  0.20371158840E+04  0.26928439364E+03 0.  0.
         25    1    3    3    0    0 -0.10857571945E+02 -0.19319923589E+02  0.57919108674E+03  0.59190663223E+03  0.12000000000E+03 0.  0.
         25    1    3    3    0    0  0.10857571945E+02  0.19319923589E+02  0.14400481364E+04  0.14452092518E+04  0.12000000000E+03 0.  0.
<mgrwt>
<rscale>  0 0.26928439E+03</rscale>
<asrwt>0</asrwt>
<pdfrwt beam="1">  1        2 0.31202695E+00 0.26928439E+03</pdfrwt>
<pdfrwt beam="2">  1       -2 0.13751294E-02 0.26928439E+03</pdfrwt>
<totfact> 0.96169181E+03</totfact>
</mgrwt>
</event>
<event>
 5    1  0.1111501E+001  0.2740287E+03  0.7818608E-02  0.1098996E+00
         -2   -1    0    0    0  501 -0.00000000000E+00  0.00000000000E+00  0.24306909685E+02  0.24306909685E+02  0.00000000000E+00 0. -1.
          2   -1    0    0  501    0  0.00000000000E+00 -0.00000000000E+00 -0.77232927366E+03  0.77232927366E+03  0.00000000000E+00 0. -1.
         35    2    1    2    0    0  0.00000000000E+00  0.00000000000E+00 -0.74802236397E+03  0.79663618334E+03  0.27402874230E+03 0.  0.
         25    1    3    3    0    0  0.50708208840E+02  0.41649515666E+02 -0.39779518977E+03  0.42065070736E+03  0.12000000000E+03 0.  0.
         25    1    3    3    0    0 -0.50708208840E+02 -0.41649515666E+02 -0.35022717421E+03  0.37598547599E+03  0.12000000000E+03 0.  0.
<mgrwt>
<rscale>  0 0.27402874E+03</rscale>
<asrwt>0</asrwt>
<pdfrwt beam="1">  1        2 0.11881987E+00 0.27402874E+03</pdfrwt>
<pdfrwt beam="2">  1       -2 0.37395250E-02 0.27402874E+03</pdfrwt>
<totfact> 0.11247016E+04</totfact>
</mgrwt>
</event>
<event>
 5    1  0.1111501E+001  0.2751635E+03  0.7818608E-02  0.1098360E+00
         -1   -1    0    0    0  501 -0.00000000000E+00  0.00000000000E+00  0.15594121836E+02  0.15594121836E+02  0.00000000000E+00 0. -1.
          1   -1    0    0  501    0  0.00000000000E+00 -0.00000000000E+00 -0.12138378711E+04  0.12138378711E+04  0.00000000000E+00 0. -1.
         35    2    1    2    0    0  0.00000000000E+00  0.00000000000E+00 -0.11982437493E+04  0.12294319930E+04  0.27516348341E+03 0.  0.
         25    1    3    3    0    0  0.90833144075E+01  0.63574082371E+02 -0.68899046302E+03  0.70230479757E+03  0.12000000000E+03 0.  0.
         25    1    3    3    0    0 -0.90833144075E+01 -0.63574082371E+02 -0.50925328628E+03  0.52712719540E+03  0.12000000000E+03 0.  0.
<mgrwt>
<rscale>  0 0.27516348E+03</rscale>
<asrwt>0</asrwt>
<pdfrwt beam="1">  1        1 0.18674422E+00 0.27516348E+03</pdfrwt>
<pdfrwt beam="2">  1       -1 0.23990966E-02 0.27516348E+03</pdfrwt>
<totfact> 0.58751810E+03</totfact>
</mgrwt>
</event>
<event>
 5    1  0.1111501E+001  0.2753009E+03  0.7818608E-02  0.1098284E+00
          3   -1    0    0  501    0  0.00000000000E+00  0.00000000000E+00  0.48535173905E+03  0.48535173905E+03  0.00000000000E+00 0. -1.
         -3   -1    0    0    0  501 -0.00000000000E+00 -0.00000000000E+00 -0.39039009691E+02  0.39039009691E+02  0.00000000000E+00 0. -1.
         35    2    1    2    0    0  0.00000000000E+00  0.00000000000E+00  0.44631272936E+03  0.52439074874E+03  0.27530093530E+03 0.  0.
         25    1    3    3    0    0 -0.21341149312E+01 -0.54804372128E+02  0.29789550969E+03  0.32580639703E+03  0.12000000000E+03 0.  0.
         25    1    3    3    0    0  0.21341149312E+01  0.54804372128E+02  0.14841721967E+03  0.19858435171E+03  0.12000000000E+03 0.  0.
<mgrwt>
<rscale>  0 0.27530094E+03</rscale>
<asrwt>0</asrwt>
<pdfrwt beam="1">  1        3 0.74669494E-01 0.27530094E+03</pdfrwt>
<pdfrwt beam="2">  1       -3 0.60060018E-02 0.27530094E+03</pdfrwt>
<totfact> 0.74877027E+02</totfact>
</mgrwt>
</event>
<event>
 5    1  0.1111501E+001  0.2757891E+03  0.7818608E-02  0.1098011E+00
         -2   -1    0    0    0  501 -0.00000000000E+00  0.00000000000E+00  0.43767954974E+02  0.43767954974E+02  0.00000000000E+00 0.  1.
          2   -1    0    0  501    0  0.00000000000E+00 -0.00000000000E+00 -0.43444830411E+03  0.43444830411E+03  0.00000000000E+00 0.  1.
         35    2    1    2    0    0  0.00000000000E+00  0.00000000000E+00 -0.39068034914E+03  0.47821625909E+03  0.27578914999E+03 0.  0.
         25    1    3    3    0    0  0.43714688327E+02 -0.23476593446E+02 -0.11488612024E+03  0.17338092467E+03  0.12000000000E+03 0.  0.
         25    1    3    3    0    0 -0.43714688327E+02  0.23476593446E+02 -0.27579422890E+03  0.30483533442E+03  0.12000000000E+03 0.  0.
<mgrwt>
<rscale>  0 0.27578915E+03</rscale>
<asrwt>0</asrwt>
<pdfrwt beam="1">  1        2 0.66838200E-01 0.27578915E+03</pdfrwt>
<pdfrwt beam="2">  1       -2 0.67335316E-02 0.27578915E+03</pdfrwt>
<totfact> 0.89644077E+03</totfact>
</mgrwt>
</event>
<event>
 5    1  0.1111501E+001  0.2737255E+03  0.7818608E-02  0.1099166E+00
          2   -1    0    0  501    0  0.00000000000E+00  0.00000000000E+00  0.26187371248E+02  0.26187371248E+02  0.00000000000E+00 0. -1.
         -2   -1    0    0    0  501 -0.00000000000E+00 -0.00000000000E+00 -0.71528411272E+03  0.71528411272E+03  0.00000000000E+00 0. -1.
         35    2    1    2    0    0  0.00000000000E+00  0.00000000000E+00 -0.68909674147E+03  0.74147148397E+03  0.27372548736E+03 0.  0.
         25    1    3    3    0    0  0.35058715518E+02 -0.42291558629E+02 -0.44273013012E+03  0.46198231306E+03  0.12000000000E+03 0.  0.
         25    1    3    3    0    0 -0.35058715518E+02  0.42291558629E+02 -0.24636661135E+03  0.27948917090E+03  0.12000000000E+03 0.  0.
<mgrwt>
<rscale>  0 0.27372549E+03</rscale>
<asrwt>0</asrwt>
<pdfrwt beam="1">  1        2 0.40288267E-02 0.27372549E+03</pdfrwt>
<pdfrwt beam="2">  1       -2 0.11004370E+00 0.27372549E+03</pdfrwt>
<totfact> 0.14349870E+03</totfact>
</mgrwt>
</event>
<event>
 5    1  0.1111501E+001  0.2743180E+03  0.7818608E-02  0.1098833E+00
          2   -1    0    0  501    0  0.00000000000E+00  0.00000000000E+00  0.19928287277E+03  0.19928287277E+03  0.00000000000E+00 0.  1.
         -2   -1    0    0    0  501 -0.00000000000E+00 -0.00000000000E+00 -0.94401433097E+02  0.94401433097E+02  0.00000000000E+00 0.  1.
         35    2    1    2    0    0  0.00000000000E+00  0.00000000000E+00  0.10488143968E+03  0.29368430587E+03  0.27431798178E+03 0.  0.
         25    1    3    3    0    0  0.89722355849E+01 -0.65794158137E+02  0.50520637130E+02  0.14615644711E+03  0.12000000000E+03 0.  0.
         25    1    3    3    0    0 -0.89722355849E+01  0.65794158137E+02  0.54360802546E+02  0.14752785876E+03  0.12000000000E+03 0.  0.
<mgrwt>
<rscale>  0 0.27431798E+03</rscale>
<asrwt>0</asrwt>
<pdfrwt beam="1">  1        2 0.30658903E-01 0.27431798E+03</pdfrwt>
<pdfrwt beam="2">  1       -2 0.14523297E-01 0.27431798E+03</pdfrwt>
<totfact> 0.61363435E+03</totfact>
</mgrwt>
</event>
<event>
 5    1  0.1111501E+001  0.2748026E+03  0.7818608E-02  0.1098562E+00
          2   -1    0    0  501    0  0.00000000000E+00  0.00000000000E+00  0.66175588028E+03  0.66175588028E+03  0.00000000000E+00 0.  1.
         -2   -1    0    0    0  501 -0.00000000000E+00 -0.00000000000E+00 -0.28528827081E+02  0.28528827081E+02  0.00000000000E+00 0.  1.
         35    2    1    2    0    0  0.00000000000E+00  0.00000000000E+00  0.63322705320E+03  0.69028470736E+03  0.27480261337E+03 0.  0.
         25    1    3    3    0    0  0.65795514712E+02  0.95256818959E+01  0.33596202004E+03  0.36289153652E+03  0.12000000000E+03 0.  0.
         25    1    3    3    0    0 -0.65795514712E+02 -0.95256818959E+01  0.29726503316E+03  0.32739317084E+03  0.12000000000E+03 0.  0.
<mgrwt>
<rscale>  0 0.27480261E+03</rscale>
<asrwt>0</asrwt>
<pdfrwt beam="1">  1        2 0.10180859E+00 0.27480261E+03</pdfrwt>
<pdfrwt beam="2">  1       -2 0.43890508E-02 0.27480261E+03</pdfrwt>
<totfact> 0.10676805E+04</totfact>
</mgrwt>
</event>
<event>
 5    1  0.1111501E+001  0.2742018E+03  0.7818608E-02  0.1098899E+00
          2   -1    0    0  501    0  0.00000000000E+00  0.00000000000E+00  0.24403689213E+03  0.24403689213E+03  0.00000000000E+00 0.  1.
         -2   -1    0    0    0  501 -0.00000000000E+00 -0.00000000000E+00 -0.77023832661E+02  0.77023832661E+02  0.00000000000E+00 0.  1.
         35    2    1    2    0    0  0.00000000000E+00  0.00000000000E+00  0.16701305947E+03  0.32106072479E+03  0.27420179972E+03 0.  0.
         25    1    3    3    0    0 -0.33093639450E+02  0.78512751560E+01  0.16859979605E+02  0.12586139363E+03  0.12000000000E+03 0.  0.
         25    1    3    3    0    0  0.33093639450E+02 -0.78512751560E+01  0.15015307986E+03  0.19519933116E+03  0.12000000000E+03 0.  0.
<mgrwt>
<rscale>  0 0.27420180E+03</rscale>
<asrwt>0</asrwt>
<pdfrwt beam="1">  1        2 0.37544137E-01 0.27420180E+03</pdfrwt>
<pdfrwt beam="2">  1       -2 0.11849821E-01 0.27420180E+03</pdfrwt>
<totfact> 0.68565554E+03</totfact>
</mgrwt>
</event>
<event>
 5    1  0.1111501E+001  0.2748986E+03  0.7818608E-02  0.1098508E+00
         -2   -1    0    0    0  501 -0.00000000000E+00  0.00000000000E+00  0.84836818548E+01  0.84836818548E+01  0.00000000000E+00 0. -1.
          2   -1    0    0  501    0  0.00000000000E+00 -0.00000000000E+00 -0.22269006737E+04  0.22269006737E+04  0.00000000000E+00 0. -1.
         35    2    1    2    0    0  0.00000000000E+00  0.00000000000E+00 -0.22184169918E+04  0.22353843555E+04  0.27489864924E+03 0.  0.
         25    1    3    3    0    0 -0.22674726144E+02  0.17995529842E+02 -0.16007766646E+04  0.16055291690E+04  0.12000000000E+03 0.  0.
         25    1    3    3    0    0  0.22674726144E+02 -0.17995529842E+02 -0.61764032720E+03  0.62985518659E+03  0.12000000000E+03 0.  0.
<mgrwt>
<rscale>  0 0.27489865E+03</rscale>
<asrwt>0</asrwt>
<pdfrwt beam="1">  1        2 0.34260059E+00 0.27489865E+03</pdfrwt>
<pdfrwt beam="2">  1       -2 0.13051800E-02 0.27489865E+03</pdfrwt>
<totfact> 0.81469247E+03</totfact>
</mgrwt>
</event>
<event>
 5    1  0.1111501E+001  0.2746288E+03  0.7818608E-02  0.1098659E+00
          1   -1    0    0  501    0  0.00000000000E+00  0.00000000000E+00  0.44600484475E+03  0.44600484475E+03  0.00000000000E+00 0.  1.
         -1   -1    0    0    0  501 -0.00000000000E+00 -0.00000000000E+00 -0.42275870801E+02  0.42275870801E+02  0.00000000000E+00 0.  1.
         35    2    1    2    0    0  0.00000000000E+00  0.00000000000E+00  0.40372897395E+03  0.48828071556E+03  0.27462879087E+03 0.  0.
         25    1    3    3    0    0  0.60385150756E+01 -0.64924117801E+02  0.22723641123E+03  0.26511882492E+03  0.12000000000E+03 0.  0.
         25    1    3    3    0    0 -0.60385150756E+01  0.64924117801E+02  0.17649256272E+03  0.22316189064E+03  0.12000000000E+03 0.  0.
<mgrwt>
<rscale>  0 0.27462879E+03</rscale>
<asrwt>0</asrwt>
<pdfrwt beam="1">  1        1 0.68616127E-01 0.27462879E+03</pdfrwt>
<pdfrwt beam="2">  1       -1 0.65039804E-02 0.27462879E+03</pdfrwt>
<totfact> 0.61789643E+03</totfact>
</mgrwt>
</event>
<event>
 5    1  0.1111501E+001  0.2742184E+03  0.7818608E-02  0.1098889E+00
          2   -1    0    0  501    0  0.00000000000E+00  0.00000000000E+00  0.38905786333E+02  0.38905786333E+02  0.00000000000E+00 0.  1.
         -2   -1    0    0    0  501 -0.00000000000E+00 -0.00000000000E+00 -0.48319115077E+03  0.48319115077E+03  0.00000000000E+00 0.  1.
         35    2    1    2    0    0  0.00000000000E+00  0.00000000000E+00 -0.44428536444E+03  0.52209693710E+03  0.27421839231E+03 0.  0.
         25    1    3    3    0    0 -0.13361618414E+02 -0.12669523293E+02 -0.10082858498E+03  0.15781461661E+03  0.12000000000E+03 0.  0.
         25    1    3    3    0    0  0.13361618414E+02  0.12669523293E+02 -0.34345677946E+03  0.36428232049E+03  0.12000000000E+03 0.  0.
<mgrwt>
<rscale>  0 0.27421839E+03</rscale>
<asrwt>0</asrwt>
<pdfrwt beam="1">  1        2 0.59855056E-02 0.27421839E+03</pdfrwt>
<pdfrwt beam="2">  1       -2 0.74337100E-01 0.27421839E+03</pdfrwt>
<totfact> 0.20702599E+03</totfact>
</mgrwt>
</event>
<event>
 5    1  0.1111501E+001  0.2749037E+03  0.7818608E-02  0.1098505E+00
         -1   -1    0    0    0  501 -0.00000000000E+00  0.00000000000E+00  0.15136617965E+03  0.15136617965E+03  0.00000000000E+00 0.  1.
          1   -1    0    0  501    0  0.00000000000E+00 -0.00000000000E+00 -0.12481656385E+03  0.12481656385E+03  0.00000000000E+00 0.  1.
         35    2    1    2    0    0  0.00000000000E+00  0.00000000000E+00  0.26549615804E+02  0.27618274349E+03  0.27490366623E+03 0.  0.
         25    1    3    3    0    0  0.15623975123E+02 -0.36842957912E+02 -0.40748002852E+02  0.13289812596E+03  0.12000000000E+03 0.  0.
         25    1    3    3    0    0 -0.15623975123E+02  0.36842957912E+02  0.67297618656E+02  0.14328461754E+03  0.12000000000E+03 0.  0.
<mgrwt>
<rscale>  0 0.27490367E+03</rscale>
<asrwt>0</asrwt>
<pdfrwt beam="1">  1        1 0.19202548E-01 0.27490367E+03</pdfrwt>
<pdfrwt beam="2">  1       -1 0.23287105E-01 0.27490367E+03</pdfrwt>
<totfact> 0.41961549E+03</totfact>
</mgrwt>
</event>
<event>
 5    1  0.1111501E+001  0.2746869E+03  0.7818608E-02  0.1098627E+00
          2   -1    0    0  501    0  0.00000000000E+00  0.00000000000E+00  0.21194163793E+03  0.21194163793E+03  0.00000000000E+00 0.  1.
         -2   -1    0    0    0  501 -0.00000000000E+00 -0.00000000000E+00 -0.89001957347E+02  0.89001957347E+02  0.00000000000E+00 0.  1.
         35    2    1    2    0    0  0.00000000000E+00  0.00000000000E+00  0.12293968059E+03  0.30094359528E+03  0.27468688079E+03 0.  0.
         25    1    3    3    0    0 -0.45660348776E+02  0.37993977833E+02  0.94967082378E+02  0.16415589096E+03  0.12000000000E+03 0.  0.
         25    1    3    3    0    0  0.45660348776E+02 -0.37993977833E+02  0.27972598207E+02  0.13678770432E+03  0.12000000000E+03 0.  0.
<mgrwt>
<rscale>  0 0.27468688E+03</rscale>
<asrwt>0</asrwt>
<pdfrwt beam="1">  1        2 0.32606406E-01 0.27468688E+03</pdfrwt>
<pdfrwt beam="2">  1       -2 0.13692609E-01 0.27468688E+03</pdfrwt>
<totfact> 0.63194405E+03</totfact>
</mgrwt>
</event>
<event>
 5    1  0.1111501E+001  0.2740316E+03  0.7818608E-02  0.1098994E+00
         -3   -1    0    0    0  501 -0.00000000000E+00  0.00000000000E+00  0.13400991544E+02  0.13400991544E+02  0.00000000000E+00 0.  1.
          3   -1    0    0  501    0  0.00000000000E+00 -0.00000000000E+00 -0.14008915013E+04  0.14008915013E+04  0.00000000000E+00 0.  1.
         35    2    1    2    0    0  0.00000000000E+00  0.00000000000E+00 -0.13874905098E+04  0.14142924928E+04  0.27403164170E+03 0.  0.
         25    1    3    3    0    0 -0.26110464001E+02 -0.27532453909E+02 -0.41421119052E+03  0.43290957797E+03  0.12000000000E+03 0.  0.
         25    1    3    3    0    0  0.26110464001E+02  0.27532453909E+02 -0.97327931924E+03  0.98138291487E+03  0.12000000000E+03 0.  0.
<mgrwt>
<rscale>  0 0.27403164E+03</rscale>
<asrwt>0</asrwt>
<pdfrwt beam="1">  1        3 0.21552157E+00 0.27403164E+03</pdfrwt>
<pdfrwt beam="2">  1       -3 0.20616929E-02 0.27403164E+03</pdfrwt>
<totfact> 0.29863948E+02</totfact>
</mgrwt>
</event>
<event>
 5    1  0.1111501E+001  0.2749614E+03  0.7818608E-02  0.1098473E+00
          2   -1    0    0  501    0  0.00000000000E+00  0.00000000000E+00  0.76846005999E+03  0.76846005999E+03  0.00000000000E+00 0.  1.
         -2   -1    0    0    0  501 -0.00000000000E+00 -0.00000000000E+00 -0.24595872241E+02  0.24595872241E+02  0.00000000000E+00 0.  1.
         35    2    1    2    0    0  0.00000000000E+00  0.00000000000E+00  0.74386418775E+03  0.79305593224E+03  0.27496141881E+03 0.  0.
         25    1    3    3    0    0 -0.32417847251E+01  0.54327152884E+02  0.25878304458E+03  0.29039733619E+03  0.12000000000E+03 0.  0.
         25    1    3    3    0    0  0.32417847251E+01 -0.54327152884E+02  0.48508114318E+03  0.50265859604E+03  0.12000000000E+03 0.  0.
<mgrwt>
<rscale>  0 0.27496142E+03</rscale>
<asrwt>0</asrwt>
<pdfrwt beam="1">  1        2 0.11822461E+00 0.27496142E+03</pdfrwt>
<pdfrwt beam="2">  1       -2 0.37839809E-02 0.27496142E+03</pdfrwt>
<totfact> 0.11120531E+04</totfact>
</mgrwt>
</event>
<event>
 5    1  0.1111501E+001  0.2755146E+03  0.7818608E-02  0.1098164E+00
          1   -1    0    0  501    0  0.00000000000E+00  0.00000000000E+00  0.91825340174E+02  0.91825340174E+02  0.00000000000E+00 0.  1.
         -1   -1    0    0    0  501 -0.00000000000E+00 -0.00000000000E+00 -0.20666482290E+03  0.20666482290E+03  0.00000000000E+00 0.  1.
         35    2    1    2    0    0  0.00000000000E+00  0.00000000000E+00 -0.11483948273E+03  0.29849016308E+03  0.27551455617E+03 0.  0.
         25    1    3    3    0    0  0.32519772199E+02 -0.59106932210E+02 -0.62933624274E+02  0.15136646288E+03  0.12000000000E+03 0.  0.
         25    1    3    3    0    0 -0.32519772199E+02  0.59106932210E+02 -0.51905858456E+02  0.14712370020E+03  0.12000000000E+03 0.  0.
<mgrwt>
<rscale>  0 0.27551456E+03</rscale>
<asrwt>0</asrwt>
<pdfrwt beam="1">  1        1 0.14126976E-01 0.27551456E+03</pdfrwt>
<pdfrwt beam="2">  1       -1 0.31794588E-01 0.27551456E+03</pdfrwt>
<totfact> 0.37107590E+03</totfact>
</mgrwt>
</event>
<event>
 5    1  0.1111501E+001  0.2755619E+03  0.7818608E-02  0.1098138E+00
         -1   -1    0    0    0  501 -0.00000000000E+00  0.00000000000E+00  0.17325031932E+02  0.17325031932E+02  0.00000000000E+00 0. -1.
          1   -1    0    0  501    0  0.00000000000E+00 -0.00000000000E+00 -0.10957317247E+04  0.10957317247E+04  0.00000000000E+00 0. -1.
         35    2    1    2    0    0  0.00000000000E+00  0.00000000000E+00 -0.10784066927E+04  0.11130567566E+04  0.27556187776E+03 0.  0.
         25    1    3    3    0    0 -0.99971068899E+01  0.15002076921E+02 -0.80279443002E+03  0.81191372776E+03  0.12000000000E+03 0.  0.
         25    1    3    3    0    0  0.99971068899E+01 -0.15002076921E+02 -0.27561226271E+03  0.30114302884E+03  0.12000000000E+03 0.  0.
<mgrwt>
<rscale>  0 0.27556188E+03</rscale>
<asrwt>0</asrwt>
<pdfrwt beam="1">  1        1 0.16857412E+00 0.27556188E+03</pdfrwt>
<pdfrwt beam="2">  1       -1 0.26653895E-02 0.27556188E+03</pdfrwt>
<totfact> 0.61035340E+03</totfact>
</mgrwt>
</event>
<event>
 5    1  0.1111501E+001  0.2758566E+03  0.7818608E-02  0.1097974E+00
         -1   -1    0    0    0  501 -0.00000000000E+00  0.00000000000E+00  0.97902626603E+02  0.97902626603E+02  0.00000000000E+00 0. -1.
          1   -1    0    0  501    0  0.00000000000E+00 -0.00000000000E+00 -0.19431775687E+03  0.19431775687E+03  0.00000000000E+00 0. -1.
         35    2    1    2    0    0  0.00000000000E+00  0.00000000000E+00 -0.96415130267E+02  0.29222038347E+03  0.27585662068E+03 0.  0.
         25    1    3    3    0    0 -0.95606353205E+01  0.19720008040E+02  0.19984450370E+02  0.12361093286E+03  0.12000000000E+03 0.  0.
         25    1    3    3    0    0  0.95606353205E+01 -0.19720008040E+02 -0.11639958064E+03  0.16860945062E+03  0.12000000000E+03 0.  0.
<mgrwt>
<rscale>  0 0.27585662E+03</rscale>
<asrwt>0</asrwt>
<pdfrwt beam="1">  1        1 0.29895039E-01 0.27585662E+03</pdfrwt>
<pdfrwt beam="2">  1       -1 0.15061943E-01 0.27585662E+03</pdfrwt>
<totfact> 0.48258915E+03</totfact>
</mgrwt>
</event>
<event>
 5    1  0.1111501E+001  0.2748723E+03  0.7818608E-02  0.1098523E+00
          2   -1    0    0  501    0  0.00000000000E+00  0.00000000000E+00  0.91184067919E+03  0.91184067919E+03  0.00000000000E+00 0.  1.
         -2   -1    0    0    0  501 -0.00000000000E+00 -0.00000000000E+00 -0.20714910213E+02  0.20714910213E+02  0.00000000000E+00 0.  1.
         35    2    1    2    0    0  0.00000000000E+00  0.00000000000E+00  0.89112576898E+03  0.93255558941E+03  0.27487231798E+03 0.  0.
         25    1    3    3    0    0 -0.11251466671E+02  0.81975974918E+01  0.66790428572E+03  0.67874143161E+03  0.12000000000E+03 0.  0.
         25    1    3    3    0    0  0.11251466671E+02 -0.81975974918E+01  0.22322148326E+03  0.25381415779E+03  0.12000000000E+03 0.  0.
<mgrwt>
<rscale>  0 0.27487232E+03</rscale>
<asrwt>0</asrwt>
<pdfrwt beam="1">  1        2 0.14028315E+00 0.27487232E+03</pdfrwt>
<pdfrwt beam="2">  1       -2 0.31869100E-02 0.27487232E+03</pdfrwt>
<totfact> 0.11515063E+04</totfact>
</mgrwt>
</event>
<event>
 5    1  0.1111501E+001  0.2749397E+03  0.7818608E-02  0.1098485E+00
         -1   -1    0    0    0  501 -0.00000000000E+00  0.00000000000E+00  0.13723061065E+03  0.13723061065E+03  0.00000000000E+00 0. -1.
          1   -1    0    0  501    0  0.00000000000E+00 -0.00000000000E+00 -0.13770951852E+03  0.13770951852E+03  0.00000000000E+00 0. -1.
         35    2    1    2    0    0  0.00000000000E+00  0.00000000000E+00 -0.47890787510E+00  0.27494012917E+03  0.27493971207E+03 0.  0.
         25    1    3    3    0    0 -0.10244122722E+02  0.42108056073E+02  0.50945884109E+02  0.13738090677E+03  0.12000000000E+03 0.  0.
         25    1    3    3    0    0  0.10244122722E+02 -0.42108056073E+02 -0.51424791984E+02  0.13755922240E+03  0.12000000000E+03 0.  0.
<mgrwt>
<rscale>  0 0.27493971E+03</rscale>
<asrwt>0</asrwt>
<pdfrwt beam="1">  1        1 0.21186080E-01 0.27493971E+03</pdfrwt>
<pdfrwt beam="2">  1       -1 0.21112402E-01 0.27493971E+03</pdfrwt>
<totfact> 0.43430283E+03</totfact>
</mgrwt>
</event>
<event>
 5    1  0.1111501E+001  0.2747855E+03  0.7818608E-02  0.1098572E+00
         -2   -1    0    0    0  501 -0.00000000000E+00  0.00000000000E+00  0.26903154754E+02  0.26903154754E+02  0.00000000000E+00 0. -1.
          2   -1    0    0  501    0  0.00000000000E+00 -0.00000000000E+00 -0.70165641674E+03  0.70165641674E+03  0.00000000000E+00 0. -1.
         35    2    1    2    0    0  0.00000000000E+00  0.00000000000E+00 -0.67475326199E+03  0.72855957150E+03  0.27478552483E+03 0.  0.
         25    1    3    3    0    0  0.42889433983E+02  0.49653690138E+02 -0.30262654871E+03  0.33209610126E+03  0.12000000000E+03 0.  0.
         25    1    3    3    0    0 -0.42889433983E+02 -0.49653690138E+02 -0.37212671328E+03  0.39646347023E+03  0.12000000000E+03 0.  0.
<mgrwt>
<rscale>  0 0.27478552E+03</rscale>
<asrwt>0</asrwt>
<pdfrwt beam="1">  1        2 0.10794714E+00 0.27478552E+03</pdfrwt>
<pdfrwt beam="2">  1       -2 0.41389468E-02 0.27478552E+03</pdfrwt>
<totfact> 0.10871177E+04</totfact>
</mgrwt>
</event>
<event>
 5    1  0.1111501E+001  0.2742866E+03  0.7818608E-02  0.1098851E+00
         -2   -1    0    0    0  501 -0.00000000000E+00  0.00000000000E+00  0.81019668368E+02  0.81019668368E+02  0.00000000000E+00 0. -1.
          2   -1    0    0  501    0  0.00000000000E+00 -0.00000000000E+00 -0.23214462128E+03  0.23214462128E+03  0.00000000000E+00 0. -1.
         35    2    1    2    0    0  0.00000000000E+00  0.00000000000E+00 -0.15112495291E+03  0.31316428965E+03  0.27428656715E+03 0.  0.
         25    1    3    3    0    0  0.17577946162E+02 -0.36409129501E+02 -0.15431924175E+02  0.12756470196E+03  0.12000000000E+03 0.  0.
         25    1    3    3    0    0 -0.17577946162E+02  0.36409129501E+02 -0.13569302874E+03  0.18559958769E+03  0.12000000000E+03 0.  0.
<mgrwt>
<rscale>  0 0.27428657E+03</rscale>
<asrwt>0</asrwt>
<pdfrwt beam="1">  1        2 0.35714557E-01 0.27428657E+03</pdfrwt>
<pdfrwt beam="2">  1       -2 0.12464564E-01 0.27428657E+03</pdfrwt>
<totfact> 0.66696773E+03</totfact>
</mgrwt>
</event>
<event>
 5    1  0.1111501E+001  0.2754582E+03  0.7818608E-02  0.1098196E+00
          1   -1    0    0  501    0  0.00000000000E+00  0.00000000000E+00  0.20624948191E+03  0.20624948191E+03  0.00000000000E+00 0. -1.
         -1   -1    0    0    0  501 -0.00000000000E+00 -0.00000000000E+00 -0.91972622469E+02  0.91972622469E+02  0.00000000000E+00 0. -1.
         35    2    1    2    0    0  0.00000000000E+00  0.00000000000E+00  0.11427685944E+03  0.29822210438E+03  0.27545820543E+03 0.  0.
         25    1    3    3    0    0  0.34897092374E+01 -0.39661509550E+02  0.11627964499E+03  0.17177359881E+03  0.12000000000E+03 0.  0.
         25    1    3    3    0    0 -0.34897092374E+01  0.39661509550E+02 -0.20027855450E+01  0.12644850557E+03  0.12000000000E+03 0.  0.
<mgrwt>
<rscale>  0 0.27545821E+03</rscale>
<asrwt>0</asrwt>
<pdfrwt beam="1">  1        1 0.31730690E-01 0.27545821E+03</pdfrwt>
<pdfrwt beam="2">  1       -1 0.14149634E-01 0.27545821E+03</pdfrwt>
<totfact> 0.49419826E+03</totfact>
</mgrwt>
</event>
<event>
 5    1  0.1111501E+001  0.2714530E+03  0.7818608E-02  0.1100451E+00
         -2   -1    0    0    0  501 -0.00000000000E+00  0.00000000000E+00  0.19945890089E+02  0.19945890089E+02  0.00000000000E+00 0. -1.
          2   -1    0    0  501    0  0.00000000000E+00 -0.00000000000E+00 -0.92358305224E+03  0.92358305224E+03  0.00000000000E+00 0. -1.
         35    2    1    2    0    0  0.00000000000E+00  0.00000000000E+00 -0.90363716215E+03  0.94352894233E+03  0.27145302391E+03 0.  0.
         25    1    3    3    0    0 -0.25610431697E+02 -0.37632917440E+02 -0.60529028987E+03  0.61874749753E+03  0.12000000000E+03 0.  0.
         25    1    3    3    0    0  0.25610431697E+02  0.37632917440E+02 -0.29834687228E+03  0.32478144480E+03  0.12000000000E+03 0.  0.
<mgrwt>
<rscale>  0 0.27145302E+03</rscale>
<asrwt>0</asrwt>
<pdfrwt beam="1">  1        2 0.14208973E+00 0.27145302E+03</pdfrwt>
<pdfrwt beam="2">  1       -2 0.30685978E-02 0.27145302E+03</pdfrwt>
<totfact> 0.11969092E+04</totfact>
</mgrwt>
</event>
<event>
 5    1  0.1111501E+001  0.2746320E+03  0.7818608E-02  0.1098657E+00
          2   -1    0    0  501    0  0.00000000000E+00  0.00000000000E+00  0.28597790960E+04  0.28597790960E+04  0.00000000000E+00 0.  1.
         -2   -1    0    0    0  501 -0.00000000000E+00 -0.00000000000E+00 -0.65934075857E+01  0.65934075857E+01  0.00000000000E+00 0.  1.
         35    2    1    2    0    0  0.00000000000E+00  0.00000000000E+00  0.28531856884E+04  0.28663725035E+04  0.27463203881E+03 0.  0.
         25    1    3    3    0    0  0.10269843504E+02  0.24706359964E+02  0.78831979970E+03  0.79784959768E+03  0.12000000000E+03 0.  0.
         25    1    3    3    0    0 -0.10269843504E+02 -0.24706359964E+02  0.20648658887E+04  0.20685229059E+04  0.12000000000E+03 0.  0.
<mgrwt>
<rscale>  0 0.27463204E+03</rscale>
<asrwt>0</asrwt>
<pdfrwt beam="1">  1        2 0.43996502E+00 0.27463204E+03</pdfrwt>
<pdfrwt beam="2">  1       -2 0.10143727E-02 0.27463204E+03</pdfrwt>
<totfact> 0.52566466E+03</totfact>
</mgrwt>
</event>
<event>
 5    1  0.1111501E+001  0.2752586E+03  0.7818608E-02  0.1098307E+00
          2   -1    0    0  501    0  0.00000000000E+00  0.00000000000E+00  0.28417738987E+02  0.28417738987E+02  0.00000000000E+00 0. -1.
         -2   -1    0    0    0  501 -0.00000000000E+00 -0.00000000000E+00 -0.66654913839E+03  0.66654913839E+03  0.00000000000E+00 0. -1.
         35    2    1    2    0    0  0.00000000000E+00  0.00000000000E+00 -0.63813139940E+03  0.69496687738E+03  0.27525856526E+03 0.  0.
         25    1    3    3    0    0 -0.16652625696E+01  0.25031239844E+02 -0.47699020194E+03  0.49249262818E+03  0.12000000000E+03 0.  0.
         25    1    3    3    0    0  0.16652625696E+01 -0.25031239844E+02 -0.16114119747E+03  0.20247424920E+03  0.12000000000E+03 0.  0.
<mgrwt>
<rscale>  0 0.27525857E+03</rscale>
<asrwt>0</asrwt>
<pdfrwt beam="1">  1        2 0.43719603E-02 0.27525857E+03</pdfrwt>
<pdfrwt beam="2">  1       -2 0.10254601E+00 0.27525857E+03</pdfrwt>
<totfact> 0.15195315E+03</totfact>
</mgrwt>
</event>
<event>
 5    1  0.1111501E+001  0.2734857E+03  0.7818608E-02  0.1099301E+00
          2   -1    0    0  501    0  0.00000000000E+00  0.00000000000E+00  0.28528012985E+02  0.28528012985E+02  0.00000000000E+00 0. -1.
         -2   -1    0    0    0  501 -0.00000000000E+00 -0.00000000000E+00 -0.65544727879E+03  0.65544727879E+03  0.00000000000E+00 0. -1.
         35    2    1    2    0    0  0.00000000000E+00  0.00000000000E+00 -0.62691926581E+03  0.68397529178E+03  0.27348571063E+03 0.  0.
         25    1    3    3    0    0  0.35798447549E+02  0.44385256097E+02 -0.23253419439E+03  0.26781286632E+03  0.12000000000E+03 0.  0.
         25    1    3    3    0    0 -0.35798447549E+02 -0.44385256097E+02 -0.39438507142E+03  0.41616242546E+03  0.12000000000E+03 0.  0.
<mgrwt>
<rscale>  0 0.27348571E+03</rscale>
<asrwt>0</asrwt>
<pdfrwt beam="1">  1        2 0.43889248E-02 0.27348571E+03</pdfrwt>
<pdfrwt beam="2">  1       -2 0.10083805E+00 0.27348571E+03</pdfrwt>
<totfact> 0.15719561E+03</totfact>
</mgrwt>
</event>
<event>
 5    1  0.1111501E+001  0.2749412E+03  0.7818608E-02  0.1098484E+00
         -1   -1    0    0    0  501 -0.00000000000E+00  0.00000000000E+00  0.21841953640E+02  0.21841953640E+02  0.00000000000E+00 0.  1.
          1   -1    0    0  501    0  0.00000000000E+00 -0.00000000000E+00 -0.86522295038E+03  0.86522295038E+03  0.00000000000E+00 0.  1.
         35    2    1    2    0    0  0.00000000000E+00  0.00000000000E+00 -0.84338099674E+03  0.88706490402E+03  0.27494115422E+03 0.  0.
         25    1    3    3    0    0 -0.57306445850E+02 -0.33173029041E+02 -0.38729041082E+03  0.41082641213E+03  0.12000000000E+03 0.  0.
         25    1    3    3    0    0  0.57306445850E+02  0.33173029041E+02 -0.45609058591E+03  0.47623849188E+03  0.12000000000E+03 0.  0.
<mgrwt>
<rscale>  0 0.27494115E+03</rscale>
<asrwt>0</asrwt>
<pdfrwt beam="1">  1        1 0.13311122E+00 0.27494115E+03</pdfrwt>
<pdfrwt beam="2">  1       -1 0.33603006E-02 0.27494115E+03</pdfrwt>
<totfact> 0.64810980E+03</totfact>
</mgrwt>
</event>
<event>
 5    1  0.1111501E+001  0.2752432E+03  0.7818608E-02  0.1098316E+00
         -2   -1    0    0    0  501 -0.00000000000E+00  0.00000000000E+00  0.12606884391E+03  0.12606884391E+03  0.00000000000E+00 0.  1.
          2   -1    0    0  501    0  0.00000000000E+00 -0.00000000000E+00 -0.15023298792E+03  0.15023298792E+03  0.00000000000E+00 0.  1.
         35    2    1    2    0    0  0.00000000000E+00  0.00000000000E+00 -0.24164144010E+02  0.27630183182E+03  0.27524315870E+03 0.  0.
         25    1    3    3    0    0  0.59237342198E+02 -0.32078562535E+02 -0.10811415858E+02  0.13803978991E+03  0.12000000000E+03 0.  0.
         25    1    3    3    0    0 -0.59237342198E+02  0.32078562535E+02 -0.13352728152E+02  0.13826204191E+03  0.12000000000E+03 0.  0.
<mgrwt>
<rscale>  0 0.27524316E+03</rscale>
<asrwt>0</asrwt>
<pdfrwt beam="1">  1        2 0.23112767E-01 0.27524316E+03</pdfrwt>
<pdfrwt beam="2">  1       -2 0.19395207E-01 0.27524316E+03</pdfrwt>
<totfact> 0.51755099E+03</totfact>
</mgrwt>
</event>
<event>
 5    1  0.1111501E+001  0.2748535E+03  0.7818608E-02  0.1098534E+00
          2   -1    0    0  501    0  0.00000000000E+00  0.00000000000E+00  0.29270143467E+04  0.29270143467E+04  0.00000000000E+00 0.  1.
         -2   -1    0    0    0  501 -0.00000000000E+00 -0.00000000000E+00 -0.64523477285E+01  0.64523477285E+01  0.00000000000E+00 0.  1.
         35    2    1    2    0    0  0.00000000000E+00  0.00000000000E+00  0.29205619990E+04  0.29334666945E+04  0.27485352005E+03 0.  0.
         25    1    3    3    0    0 -0.42651353625E+02 -0.47311645098E+02  0.16812331136E+04  0.16867134647E+04  0.12000000000E+03 0.  0.
         25    1    3    3    0    0  0.42651353625E+02  0.47311645098E+02  0.12393288854E+04  0.12467532297E+04  0.12000000000E+03 0.  0.
<mgrwt>
<rscale>  0 0.27485352E+03</rscale>
<asrwt>0</asrwt>
<pdfrwt beam="1">  1        2 0.45030884E+00 0.27485352E+03</pdfrwt>
<pdfrwt beam="2">  1       -2 0.99267122E-03 0.27485352E+03</pdfrwt>
<totfact> 0.49574341E+03</totfact>
</mgrwt>
</event>
<event>
 5    1  0.1111501E+001  0.2747920E+03  0.7818608E-02  0.1098568E+00
          1   -1    0    0  501    0  0.00000000000E+00  0.00000000000E+00  0.22178505686E+04  0.22178505686E+04  0.00000000000E+00 0.  1.
         -1   -1    0    0    0  501 -0.00000000000E+00 -0.00000000000E+00 -0.85116892807E+01  0.85116892807E+01  0.00000000000E+00 0.  1.
         35    2    1    2    0    0  0.00000000000E+00  0.00000000000E+00  0.22093388793E+04  0.22263622579E+04  0.27479195702E+03 0.  0.
         25    1    3    3    0    0 -0.52660010575E+00  0.48546475129E+02  0.14777674815E+04  0.14834263605E+04  0.12000000000E+03 0.  0.
         25    1    3    3    0    0  0.52660010575E+00 -0.48546475129E+02  0.73157139778E+03  0.74293589738E+03  0.12000000000E+03 0.  0.
<mgrwt>
<rscale>  0 0.27479196E+03</rscale>
<asrwt>0</asrwt>
<pdfrwt beam="1">  1        1 0.34120732E+00 0.27479196E+03</pdfrwt>
<pdfrwt beam="2">  1       -1 0.13094924E-02 0.27479196E+03</pdfrwt>
<totfact> 0.30949764E+03</totfact>
</mgrwt>
</event>
<event>
 5    1  0.1111501E+001  0.2754580E+03  0.7818608E-02  0.1098196E+00
         -3   -1    0    0    0  501 -0.00000000000E+00  0.00000000000E+00  0.40714707210E+02  0.40714707210E+02  0.00000000000E+00 0. -1.
          3   -1    0    0  501    0  0.00000000000E+00 -0.00000000000E+00 -0.46590736283E+03  0.46590736283E+03  0.00000000000E+00 0. -1.
         35    2    1    2    0    0  0.00000000000E+00  0.00000000000E+00 -0.42519265562E+03  0.50662207004E+03  0.27545803212E+03 0.  0.
         25    1    3    3    0    0  0.51285579984E+01  0.29049555032E+02 -0.32445686049E+03  0.34719221344E+03  0.12000000000E+03 0.  0.
         25    1    3    3    0    0 -0.51285579984E+01 -0.29049555032E+02 -0.10073579513E+03  0.15942985660E+03  0.12000000000E+03 0.  0.
<mgrwt>
<rscale>  0 0.27545803E+03</rscale>
<asrwt>0</asrwt>
<pdfrwt beam="1">  1        3 0.71678056E-01 0.27545803E+03</pdfrwt>
<pdfrwt beam="2">  1       -3 0.62638011E-02 0.27545803E+03</pdfrwt>
<totfact> 0.76413473E+02</totfact>
</mgrwt>
</event>
<event>
 5    1  0.1111501E+001  0.2747337E+03  0.7818608E-02  0.1098601E+00
         -2   -1    0    0    0  501 -0.00000000000E+00  0.00000000000E+00  0.91897244365E+02  0.91897244365E+02  0.00000000000E+00 0. -1.
          2   -1    0    0  501    0  0.00000000000E+00 -0.00000000000E+00 -0.20533422645E+03  0.20533422645E+03  0.00000000000E+00 0. -1.
         35    2    1    2    0    0  0.00000000000E+00  0.00000000000E+00 -0.11343698208E+03  0.29723147081E+03  0.27473368621E+03 0.  0.
         25    1    3    3    0    0  0.47055784941E+02 -0.45126209567E+02 -0.40706969833E+02  0.14250501423E+03  0.12000000000E+03 0.  0.
         25    1    3    3    0    0 -0.47055784941E+02  0.45126209567E+02 -0.72730012249E+02  0.15472645659E+03  0.12000000000E+03 0.  0.
<mgrwt>
<rscale>  0 0.27473369E+03</rscale>
<asrwt>0</asrwt>
<pdfrwt beam="1">  1        2 0.31589880E-01 0.27473369E+03</pdfrwt>
<pdfrwt beam="2">  1       -2 0.14138038E-01 0.27473369E+03</pdfrwt>
<totfact> 0.62074449E+03</totfact>
</mgrwt>
</event>
<event>
 5    1  0.1111501E+001  0.2751648E+03  0.7818608E-02  0.1098360E+00
         -1   -1    0    0    0  501 -0.00000000000E+00  0.00000000000E+00  0.12862317451E+02  0.12862317451E+02  0.00000000000E+00 0. -1.
          1   -1    0    0  501    0  0.00000000000E+00 -0.00000000000E+00 -0.14716568638E+04  0.14716568638E+04  0.00000000000E+00 0. -1.
         35    2    1    2    0    0  0.00000000000E+00  0.00000000000E+00 -0.14587945464E+04  0.14845191813E+04  0.27516480706E+03 0.  0.
         25    1    3    3    0    0  0.33582604114E+02 -0.37887484369E+02 -0.96858983871E+03  0.97730728455E+03  0.12000000000E+03 0.  0.
         25    1    3    3    0    0 -0.33582604114E+02  0.37887484369E+02 -0.49020470768E+03  0.50721189675E+03  0.12000000000E+03 0.  0.
<mgrwt>
<rscale>  0 0.27516481E+03</rscale>
<asrwt>0</asrwt>
<pdfrwt beam="1">  1        1 0.22640875E+00 0.27516481E+03</pdfrwt>
<pdfrwt beam="2">  1       -1 0.19788180E-02 0.27516481E+03</pdfrwt>
<totfact> 0.52051961E+03</totfact>
</mgrwt>
</event>
<event>
 5    1  0.1111501E+001  0.2752125E+03  0.7818608E-02  0.1098333E+00
          1   -1    0    0  501    0  0.00000000000E+00  0.00000000000E+00  0.37462743298E+03  0.37462743298E+03  0.00000000000E+00 0. -1.
         -1   -1    0    0    0  501 -0.00000000000E+00 -0.00000000000E+00 -0.50544846147E+02  0.50544846147E+02  0.00000000000E+00 0. -1.
         35    2    1    2    0    0  0.00000000000E+00  0.00000000000E+00  0.32408258683E+03  0.42517227913E+03  0.27521254305E+03 0.  0.
         25    1    3    3    0    0  0.58341169464E+02 -0.12031875479E+02  0.21057700799E+03  0.24958191917E+03  0.12000000000E+03 0.  0.
         25    1    3    3    0    0 -0.58341169464E+02  0.12031875479E+02  0.11350557885E+03  0.17559035996E+03  0.12000000000E+03 0.  0.
<mgrwt>
<rscale>  0 0.27521254E+03</rscale>
<asrwt>0</asrwt>
<pdfrwt beam="1">  1        1 0.57634988E-01 0.27521254E+03</pdfrwt>
<pdfrwt beam="2">  1       -1 0.77761304E-02 0.27521254E+03</pdfrwt>
<totfact> 0.58956453E+03</totfact>
</mgrwt>
</event>
<event>
 5    1  0.1111501E+001  0.2747436E+03  0.7818608E-02  0.1098595E+00
          2   -1    0    0  501    0  0.00000000000E+00  0.00000000000E+00  0.14798486394E+03  0.14798486394E+03  0.00000000000E+00 0. -1.
         -2   -1    0    0    0  501 -0.00000000000E+00 -0.00000000000E+00 -0.12751988158E+03  0.12751988158E+03  0.00000000000E+00 0. -1.
         35    2    1    2    0    0  0.00000000000E+00  0.00000000000E+00  0.20464982359E+02  0.27550474552E+03  0.27474360648E+03 0.  0.
         25    1    3    3    0    0 -0.48066687864E+02  0.33895428132E+02 -0.21662949562E+02  0.13538312271E+03  0.12000000000E+03 0.  0.
         25    1    3    3    0    0  0.48066687864E+02 -0.33895428132E+02  0.42127931921E+02  0.14012162281E+03  0.12000000000E+03 0.  0.
<mgrwt>
<rscale>  0 0.27474361E+03</rscale>
<asrwt>0</asrwt>
<pdfrwt beam="1">  1        2 0.22766902E-01 0.27474361E+03</pdfrwt>
<pdfrwt beam="2">  1       -2 0.19618443E-01 0.27474361E+03</pdfrwt>
<totfact> 0.51621980E+03</totfact>
</mgrwt>
</event>
<event>
 5    1  0.1111501E+001  0.2745267E+03  0.7818608E-02  0.1098716E+00
         -2   -1    0    0    0  501 -0.00000000000E+00  0.00000000000E+00  0.31762764641E+03  0.31762764641E+03  0.00000000000E+00 0.  1.
          2   -1    0    0  501    0  0.00000000000E+00 -0.00000000000E+00 -0.59318602585E+02  0.59318602585E+02  0.00000000000E+00 0.  1.
         35    2    1    2    0    0  0.00000000000E+00  0.00000000000E+00  0.25830904382E+03  0.37694624899E+03  0.27452670637E+03 0.  0.
         25    1    3    3    0    0  0.31204557643E+00  0.53496662024E+02  0.18372008061E+03  0.22586513286E+03  0.12000000000E+03 0.  0.
         25    1    3    3    0    0 -0.31204557643E+00 -0.53496662024E+02  0.74588963209E+02  0.15108111614E+03  0.12000000000E+03 0.  0.
<mgrwt>
<rscale>  0 0.27452671E+03</rscale>
<asrwt>0</asrwt>
<pdfrwt beam="1">  1        2 0.91259390E-02 0.27452671E+03</pdfrwt>
<pdfrwt beam="2">  1       -2 0.48865791E-01 0.27452671E+03</pdfrwt>
<totfact> 0.28811449E+03</totfact>
</mgrwt>
</event>
<event>
 4    1  0.1111501E+001  0.2954664E+03  0.7818608E-02  0.1087529E+00
         -2   -1    0    0    0  501 -0.00000000000E+00  0.00000000000E+00  0.93697899765E+01  0.93697899765E+01  0.00000000000E+00 0.  1.
          2   -1    0    0  501    0  0.00000000000E+00 -0.00000000000E+00 -0.23293057606E+04  0.23293057606E+04  0.00000000000E+00 0.  1.
         25    1    1    2    0    0 -0.54016520345E+02 -0.67032522148E+02 -0.11303919567E+04  0.11399987365E+04  0.12000000000E+03 0.  0.
         25    1    1    2    0    0  0.54016520345E+02  0.67032522148E+02 -0.11895440140E+04  0.11986768141E+04  0.12000000000E+03 0.  0.
<mgrwt>
<rscale>  0 0.29546645E+03</rscale>
<asrwt>0</asrwt>
<pdfrwt beam="1">  1        2 0.35835451E+00 0.29546645E+03</pdfrwt>
<pdfrwt beam="2">  1       -2 0.14415070E-02 0.29546645E+03</pdfrwt>
<totfact> 0.62089316E+03</totfact>
</mgrwt>
</event>
<event>
 5    1  0.1111501E+001  0.2754297E+03  0.7818608E-02  0.1098212E+00
          2   -1    0    0  501    0  0.00000000000E+00  0.00000000000E+00  0.42388072310E+03  0.42388072310E+03  0.00000000000E+00 0.  1.
         -2   -1    0    0    0  501 -0.00000000000E+00 -0.00000000000E+00 -0.44742247161E+02  0.44742247161E+02  0.00000000000E+00 0.  1.
         35    2    1    2    0    0  0.00000000000E+00  0.00000000000E+00  0.37913847594E+03  0.46862297026E+03  0.27542967218E+03 0.  0.
         25    1    3    3    0    0  0.29978503137E+02 -0.60111099190E+02  0.17714520093E+03  0.22425984284E+03  0.12000000000E+03 0.  0.
         25    1    3    3    0    0 -0.29978503137E+02  0.60111099190E+02  0.20199327501E+03  0.24436312742E+03  0.12000000000E+03 0.  0.
<mgrwt>
<rscale>  0 0.27542967E+03</rscale>
<asrwt>0</asrwt>
<pdfrwt beam="1">  1        2 0.65212416E-01 0.27542967E+03</pdfrwt>
<pdfrwt beam="2">  1       -2 0.68834229E-02 0.27542967E+03</pdfrwt>
<totfact> 0.89007404E+03</totfact>
</mgrwt>
</event>
<event>
 5    1  0.1111501E+001  0.2750295E+03  0.7818608E-02  0.1098435E+00
          2   -1    0    0  501    0  0.00000000000E+00  0.00000000000E+00  0.52766042349E+03  0.52766042349E+03  0.00000000000E+00 0.  1.
         -2   -1    0    0    0  501 -0.00000000000E+00 -0.00000000000E+00 -0.35838011259E+02  0.35838011259E+02  0.00000000000E+00 0.  1.
         35    2    1    2    0    0  0.00000000000E+00  0.00000000000E+00  0.49182241223E+03  0.56349843474E+03  0.27502945441E+03 0.  0.
         25    1    3    3    0    0 -0.63254113577E+02 -0.21943656192E+02  0.25669323764E+03  0.29115979321E+03  0.12000000000E+03 0.  0.
         25    1    3    3    0    0  0.63254113577E+02  0.21943656192E+02  0.23512917459E+03  0.27233864154E+03  0.12000000000E+03 0.  0.
<mgrwt>
<rscale>  0 0.27502945E+03</rscale>
<asrwt>0</asrwt>
<pdfrwt beam="1">  1        2 0.81178521E-01 0.27502945E+03</pdfrwt>
<pdfrwt beam="2">  1       -2 0.55135406E-02 0.27502945E+03</pdfrwt>
<totfact> 0.98165026E+03</totfact>
</mgrwt>
</event>
<event>
 5    1  0.1111501E+001  0.2748858E+03  0.7818608E-02  0.1098515E+00
         -2   -1    0    0    0  501 -0.00000000000E+00  0.00000000000E+00  0.53226296830E+01  0.53226296830E+01  0.00000000000E+00 0. -1.
          2   -1    0    0  501    0  0.00000000000E+00 -0.00000000000E+00 -0.35491020014E+04  0.35491020014E+04  0.00000000000E+00 0. -1.
         35    2    1    2    0    0  0.00000000000E+00  0.00000000000E+00 -0.35437793717E+04  0.35544246310E+04  0.27488583565E+03 0.  0.
         25    1    3    3    0    0 -0.12340150499E+01 -0.61827185654E+02 -0.14380831292E+04  0.14444054868E+04  0.12000000000E+03 0.  0.
         25    1    3    3    0    0  0.12340150499E+01  0.61827185654E+02 -0.21056962424E+04  0.21100191442E+04  0.12000000000E+03 0.  0.
<mgrwt>
<rscale>  0 0.27488584E+03</rscale>
<asrwt>0</asrwt>
<pdfrwt beam="1">  1        2 0.54601472E+00 0.27488584E+03</pdfrwt>
<pdfrwt beam="2">  1       -2 0.81886756E-03 0.27488584E+03</pdfrwt>
<totfact> 0.26799925E+03</totfact>
</mgrwt>
</event>
<event>
 5    1  0.1111501E+001  0.2765329E+03  0.7818608E-02  0.1097598E+00
          2   -1    0    0  501    0  0.00000000000E+00  0.00000000000E+00  0.19180246823E+04  0.19180246823E+04  0.00000000000E+00 0. -1.
         -2   -1    0    0    0  501 -0.00000000000E+00 -0.00000000000E+00 -0.99673400836E+01  0.99673400836E+01  0.00000000000E+00 0. -1.
         35    2    1    2    0    0  0.00000000000E+00  0.00000000000E+00  0.19080573422E+04  0.19279920224E+04  0.27653285011E+03 0.  0.
         25    1    3    3    0    0  0.43210627779E+02  0.50744004365E+02  0.83830745969E+03  0.84947131165E+03  0.12000000000E+03 0.  0.
         25    1    3    3    0    0 -0.43210627779E+02 -0.50744004365E+02  0.10697498825E+04  0.10785207107E+04  0.12000000000E+03 0.  0.
<mgrwt>
<rscale>  0 0.27653285E+03</rscale>
<asrwt>0</asrwt>
<pdfrwt beam="1">  1        2 0.29508043E+00 0.27653285E+03</pdfrwt>
<pdfrwt beam="2">  1       -2 0.15334385E-02 0.27653285E+03</pdfrwt>
<totfact> 0.93731198E+03</totfact>
</mgrwt>
</event>
<event>
 4    1  0.1111501E+001  0.3757183E+03  0.7818608E-02  0.1052528E+00
         -2   -1    0    0    0  501 -0.00000000000E+00  0.00000000000E+00  0.20765881737E+02  0.20765881737E+02  0.00000000000E+00 0.  1.
          2   -1    0    0  501    0  0.00000000000E+00 -0.00000000000E+00 -0.16994728773E+04  0.16994728773E+04  0.00000000000E+00 0.  1.
         25    1    1    2    0    0  0.12379169713E+03  0.56065374816E+02 -0.10647430617E+04  0.10800673580E+04  0.12000000000E+03 0.  0.
         25    1    1    2    0    0 -0.12379169713E+03 -0.56065374816E+02 -0.61396393392E+03  0.64017140103E+03  0.12000000000E+03 0.  0.
<mgrwt>
<rscale>  0 0.37571826E+03</rscale>
<asrwt>0</asrwt>
<pdfrwt beam="1">  1        2 0.26145744E+00 0.37571826E+03</pdfrwt>
<pdfrwt beam="2">  1       -2 0.31947501E-02 0.37571826E+03</pdfrwt>
<totfact> 0.41216304E+03</totfact>
</mgrwt>
</event>
<event>
 5    1  0.1111501E+001  0.2745322E+03  0.7818608E-02  0.1098713E+00
         -1   -1    0    0    0  501 -0.00000000000E+00  0.00000000000E+00  0.22994236972E+02  0.22994236972E+02  0.00000000000E+00 0. -1.
          1   -1    0    0  501    0  0.00000000000E+00 -0.00000000000E+00 -0.81942193301E+03  0.81942193301E+03  0.00000000000E+00 0. -1.
         35    2    1    2    0    0  0.00000000000E+00  0.00000000000E+00 -0.79642769603E+03  0.84241616998E+03  0.27453219926E+03 0.  0.
         25    1    3    3    0    0 -0.19129146009E+01  0.63955890644E+01 -0.60169882183E+03  0.61358457851E+03  0.12000000000E+03 0.  0.
         25    1    3    3    0    0  0.19129146009E+01 -0.63955890644E+01 -0.19472887421E+03  0.22883159146E+03  0.12000000000E+03 0.  0.
<mgrwt>
<rscale>  0 0.27453220E+03</rscale>
<asrwt>0</asrwt>
<pdfrwt beam="1">  1        1 0.12606491E+00 0.27453220E+03</pdfrwt>
<pdfrwt beam="2">  1       -1 0.35375751E-02 0.27453220E+03</pdfrwt>
<totfact> 0.65432741E+03</totfact>
</mgrwt>
</event>
<event>
 5    1  0.1111501E+001  0.2742677E+03  0.7818608E-02  0.1098862E+00
          2   -1    0    0  501    0  0.00000000000E+00  0.00000000000E+00  0.21591358484E+04  0.21591358484E+04  0.00000000000E+00 0. -1.
         -2   -1    0    0    0  501 -0.00000000000E+00 -0.00000000000E+00 -0.87098260268E+01  0.87098260268E+01  0.00000000000E+00 0. -1.
         35    2    1    2    0    0  0.00000000000E+00  0.00000000000E+00  0.21504260224E+04  0.21678456744E+04  0.27426773494E+03 0.  0.
         25    1    3    3    0    0 -0.65348752563E+02 -0.10663723832E+02  0.11118826353E+04  0.11202978038E+04  0.12000000000E+03 0.  0.
         25    1    3    3    0    0  0.65348752563E+02  0.10663723832E+02  0.10385433870E+04  0.10475478706E+04  0.12000000000E+03 0.  0.
<mgrwt>
<rscale>  0 0.27426773E+03</rscale>
<asrwt>0</asrwt>
<pdfrwt beam="1">  1        2 0.33217432E+00 0.27426773E+03</pdfrwt>
<pdfrwt beam="2">  1       -2 0.13399750E-02 0.27426773E+03</pdfrwt>
<totfact> 0.85181762E+03</totfact>
</mgrwt>
</event>
<event>
 5    1  0.1111501E+001  0.2739517E+03  0.7818608E-02  0.1099039E+00
         -2   -1    0    0    0  501 -0.00000000000E+00  0.00000000000E+00  0.17609257034E+03  0.17609257034E+03  0.00000000000E+00 0.  1.
          2   -1    0    0  501    0  0.00000000000E+00 -0.00000000000E+00 -0.10654839977E+03  0.10654839977E+03  0.00000000000E+00 0.  1.
         35    2    1    2    0    0  0.00000000000E+00  0.00000000000E+00  0.69544170575E+02  0.28264097011E+03  0.27395168611E+03 0.  0.
         25    1    3    3    0    0 -0.46310341830E+01 -0.65617602005E+02  0.28645258412E+02  0.13981297150E+03  0.12000000000E+03 0.  0.
         25    1    3    3    0    0  0.46310341830E+01  0.65617602005E+02  0.40898912163E+02  0.14282799861E+03  0.12000000000E+03 0.  0.
<mgrwt>
<rscale>  0 0.27395169E+03</rscale>
<asrwt>0</asrwt>
<pdfrwt beam="1">  1        2 0.16392061E-01 0.27395169E+03</pdfrwt>
<pdfrwt beam="2">  1       -2 0.27091165E-01 0.27395169E+03</pdfrwt>
<totfact> 0.42890226E+03</totfact>
</mgrwt>
</event>
<event>
 5    1  0.1111501E+001  0.2745355E+03  0.7818608E-02  0.1098712E+00
          2   -1    0    0  501    0  0.00000000000E+00  0.00000000000E+00  0.94931853692E+02  0.94931853692E+02  0.00000000000E+00 0. -1.
         -2   -1    0    0    0  501 -0.00000000000E+00 -0.00000000000E+00 -0.19848385164E+03  0.19848385164E+03  0.00000000000E+00 0. -1.
         35    2    1    2    0    0  0.00000000000E+00  0.00000000000E+00 -0.10355199794E+03  0.29341570533E+03  0.27453553478E+03 0.  0.
         25    1    3    3    0    0  0.21568808847E+02  0.11716725772E+02 -0.11800485907E+03  0.17008128040E+03  0.12000000000E+03 0.  0.
         25    1    3    3    0    0 -0.21568808847E+02 -0.11716725772E+02  0.14452861126E+02  0.12333442493E+03  0.12000000000E+03 0.  0.
<mgrwt>
<rscale>  0 0.27453553E+03</rscale>
<asrwt>0</asrwt>
<pdfrwt beam="1">  1        2 0.14604901E-01 0.27453553E+03</pdfrwt>
<pdfrwt beam="2">  1       -2 0.30535977E-01 0.27453553E+03</pdfrwt>
<totfact> 0.39612077E+03</totfact>
</mgrwt>
</event>
<event>
 5    1  0.1111501E+001  0.2748403E+03  0.7818608E-02  0.1098541E+00
         -1   -1    0    0    0  501 -0.00000000000E+00  0.00000000000E+00  0.16713438939E+02  0.16713438939E+02  0.00000000000E+00 0.  1.
          1   -1    0    0  501    0  0.00000000000E+00 -0.00000000000E+00 -0.11298874050E+04  0.11298874050E+04  0.00000000000E+00 0.  1.
         35    2    1    2    0    0  0.00000000000E+00  0.00000000000E+00 -0.11131739660E+04  0.11466008439E+04  0.27484034748E+03 0.  0.
         25    1    3    3    0    0  0.56818890911E+02  0.55950642044E+01 -0.41059426015E+03  0.43156382793E+03  0.12000000000E+03 0.  0.
         25    1    3    3    0    0 -0.56818890911E+02 -0.55950642044E+01 -0.70257970588E+03  0.71503701598E+03  0.12000000000E+03 0.  0.
<mgrwt>
<rscale>  0 0.27484035E+03</rscale>
<asrwt>0</asrwt>
<pdfrwt beam="1">  1        1 0.17382883E+00 0.27484035E+03</pdfrwt>
<pdfrwt beam="2">  1       -1 0.25712983E-02 0.27484035E+03</pdfrwt>
<totfact> 0.60813153E+03</totfact>
</mgrwt>
</event>
<event>
 5    1  0.1111501E+001  0.2788932E+03  0.7818608E-02  0.1096295E+00
         -1   -1    0    0    0  501 -0.00000000000E+00  0.00000000000E+00  0.68126749470E+02  0.68126749470E+02  0.00000000000E+00 0.  1.
          1   -1    0    0  501    0  0.00000000000E+00 -0.00000000000E+00 -0.28542911191E+03  0.28542911191E+03  0.00000000000E+00 0.  1.
         35    2    1    2    0    0  0.00000000000E+00  0.00000000000E+00 -0.21730236244E+03  0.35355586138E+03  0.27889322400E+03 0.  0.
         25    1    3    3    0    0 -0.46693279207E+02 -0.46845790234E+02 -0.75823422236E+02  0.15660134656E+03  0.12000000000E+03 0.  0.
         25    1    3    3    0    0  0.46693279207E+02  0.46845790234E+02 -0.14147894021E+03  0.19695451482E+03  0.12000000000E+03 0.  0.
<mgrwt>
<rscale>  0 0.27889322E+03</rscale>
<asrwt>0</asrwt>
<pdfrwt beam="1">  1        1 0.43912171E-01 0.27889322E+03</pdfrwt>
<pdfrwt beam="2">  1       -1 0.10481038E-01 0.27889322E+03</pdfrwt>
<totfact> 0.52562747E+03</totfact>
</mgrwt>
</event>
<event>
 5    1  0.1111501E+001  0.2761948E+03  0.7818608E-02  0.1097786E+00
         -1   -1    0    0    0  501 -0.00000000000E+00  0.00000000000E+00  0.96536508660E+03  0.96536508660E+03  0.00000000000E+00 0.  1.
          1   -1    0    0  501    0  0.00000000000E+00 -0.00000000000E+00 -0.19755103814E+02  0.19755103814E+02  0.00000000000E+00 0.  1.
         35    2    1    2    0    0  0.00000000000E+00  0.00000000000E+00  0.94560998279E+03  0.98512019042E+03  0.27619476827E+03 0.  0.
         25    1    3    3    0    0  0.29563123091E+02  0.33533400707E+02  0.28841975138E+03  0.31556999255E+03  0.12000000000E+03 0.  0.
         25    1    3    3    0    0 -0.29563123091E+02 -0.33533400707E+02  0.65719023141E+03  0.66955019787E+03  0.12000000000E+03 0.  0.
<mgrwt>
<rscale>  0 0.27619477E+03</rscale>
<asrwt>0</asrwt>
<pdfrwt beam="1">  1        1 0.30392475E-02 0.27619477E+03</pdfrwt>
<pdfrwt beam="2">  1       -1 0.14851767E+00 0.27619477E+03</pdfrwt>
<totfact> 0.12983425E+03</totfact>
</mgrwt>
</event>
<event>
 5    1  0.1111501E+001  0.2749511E+03  0.7818608E-02  0.1098479E+00
         -3   -1    0    0    0  501 -0.00000000000E+00  0.00000000000E+00  0.65775888458E+02  0.65775888458E+02  0.00000000000E+00 0. -1.
          3   -1    0    0  501    0  0.00000000000E+00 -0.00000000000E+00 -0.28733222712E+03  0.28733222712E+03  0.00000000000E+00 0. -1.
         35    2    1    2    0    0  0.00000000000E+00  0.00000000000E+00 -0.22155633867E+03  0.35310811558E+03  0.27495114127E+03 0.  0.
         25    1    3    3    0    0 -0.40043313395E+02  0.24148423122E+02 -0.17254174156E+03  0.21530737532E+03  0.12000000000E+03 0.  0.
         25    1    3    3    0    0  0.40043313395E+02 -0.24148423122E+02 -0.49014597103E+02  0.13780074026E+03  0.12000000000E+03 0.  0.
<mgrwt>
<rscale>  0 0.27495114E+03</rscale>
<asrwt>0</asrwt>
<pdfrwt beam="1">  1        3 0.44204958E-01 0.27495114E+03</pdfrwt>
<pdfrwt beam="2">  1       -3 0.10119368E-01 0.27495114E+03</pdfrwt>
<totfact> 0.93949833E+02</totfact>
</mgrwt>
</event>
<event>
 5    1  0.1111501E+001  0.2753781E+03  0.7818608E-02  0.1098240E+00
          2   -1    0    0  501    0  0.00000000000E+00  0.00000000000E+00  0.41386185558E+03  0.41386185558E+03  0.00000000000E+00 0. -1.
         -2   -1    0    0    0  501 -0.00000000000E+00 -0.00000000000E+00 -0.45808220452E+02  0.45808220452E+02  0.00000000000E+00 0. -1.
         35    2    1    2    0    0  0.00000000000E+00  0.00000000000E+00  0.36805363513E+03  0.45967007603E+03  0.27537810455E+03 0.  0.
         25    1    3    3    0    0 -0.10740685465E+02 -0.25982797740E+02  0.81565213300E+02  0.14779496650E+03  0.12000000000E+03 0.  0.
         25    1    3    3    0    0  0.10740685465E+02  0.25982797740E+02  0.28648842183E+03  0.31187510953E+03  0.12000000000E+03 0.  0.
<mgrwt>
<rscale>  0 0.27537810E+03</rscale>
<asrwt>0</asrwt>
<pdfrwt beam="1">  1        2 0.63671052E-01 0.27537810E+03</pdfrwt>
<pdfrwt beam="2">  1       -2 0.70474188E-02 0.27537810E+03</pdfrwt>
<totfact> 0.88091690E+03</totfact>
</mgrwt>
</event>
<event>
 5    1  0.1111501E+001  0.2748925E+03  0.7818608E-02  0.1098512E+00
          1   -1    0    0  501    0  0.00000000000E+00  0.00000000000E+00  0.12893376487E+03  0.12893376487E+03  0.00000000000E+00 0.  1.
         -1   -1    0    0    0  501 -0.00000000000E+00 -0.00000000000E+00 -0.14652075525E+03  0.14652075525E+03  0.00000000000E+00 0.  1.
         35    2    1    2    0    0  0.00000000000E+00  0.00000000000E+00 -0.17586990378E+02  0.27545452013E+03  0.27489250704E+03 0.  0.
         25    1    3    3    0    0  0.18742928881E+02  0.42934893287E+02 -0.56816106302E+02  0.14079336767E+03  0.12000000000E+03 0.  0.
         25    1    3    3    0    0 -0.18742928881E+02 -0.42934893287E+02  0.39229115923E+02  0.13466115246E+03  0.12000000000E+03 0.  0.
<mgrwt>
<rscale>  0 0.27489251E+03</rscale>
<asrwt>0</asrwt>
<pdfrwt beam="1">  1        1 0.19835964E-01 0.27489251E+03</pdfrwt>
<pdfrwt beam="2">  1       -1 0.22541655E-01 0.27489251E+03</pdfrwt>
<totfact> 0.42456538E+03</totfact>
</mgrwt>
</event>
<event>
 5    1  0.1111501E+001  0.2750118E+03  0.7818608E-02  0.1098445E+00
         -2   -1    0    0    0  501 -0.00000000000E+00  0.00000000000E+00  0.55247144140E+01  0.55247144140E+01  0.00000000000E+00 0.  1.
          2   -1    0    0  501    0  0.00000000000E+00 -0.00000000000E+00 -0.34224156708E+04  0.34224156708E+04  0.00000000000E+00 0.  1.
         35    2    1    2    0    0  0.00000000000E+00  0.00000000000E+00 -0.34168909564E+04  0.34279403852E+04  0.27501177565E+03 0.  0.
         25    1    3    3    0    0 -0.96377347668E+01  0.33497883019E+02 -0.24237148005E+04  0.24269339563E+04  0.12000000000E+03 0.  0.
         25    1    3    3    0    0  0.96377347668E+01 -0.33497883019E+02 -0.99317615584E+03  0.10010064289E+04  0.12000000000E+03 0.  0.
<mgrwt>
<rscale>  0 0.27501178E+03</rscale>
<asrwt>0</asrwt>
<pdfrwt beam="1">  1        2 0.52652447E+00 0.27501178E+03</pdfrwt>
<pdfrwt beam="2">  1       -2 0.84995770E-03 0.27501178E+03</pdfrwt>
<totfact> 0.30783225E+03</totfact>
</mgrwt>
</event>
<event>
 5    1  0.1111501E+001  0.2753641E+03  0.7818608E-02  0.1098248E+00
          2   -1    0    0  501    0  0.00000000000E+00  0.00000000000E+00  0.82690815947E+03  0.82690815947E+03  0.00000000000E+00 0. -1.
         -2   -1    0    0    0  501 -0.00000000000E+00 -0.00000000000E+00 -0.22924364291E+02  0.22924364291E+02  0.00000000000E+00 0. -1.
         35    2    1    2    0    0  0.00000000000E+00  0.00000000000E+00  0.80398379518E+03  0.84983252376E+03  0.27536407814E+03 0.  0.
         25    1    3    3    0    0 -0.41090616990E+02  0.52474445706E+02  0.36899138781E+03  0.39369613985E+03  0.12000000000E+03 0.  0.
         25    1    3    3    0    0  0.41090616990E+02 -0.52474445706E+02  0.43499240737E+03  0.45613638391E+03  0.12000000000E+03 0.  0.
<mgrwt>
<rscale>  0 0.27536408E+03</rscale>
<asrwt>0</asrwt>
<pdfrwt beam="1">  1        2 0.12721662E+00 0.27536408E+03</pdfrwt>
<pdfrwt beam="2">  1       -2 0.35268259E-02 0.27536408E+03</pdfrwt>
<totfact> 0.11258557E+04</totfact>
</mgrwt>
</event>
<event>
 5    1  0.1111501E+001  0.2747308E+03  0.7818608E-02  0.1098602E+00
         -2   -1    0    0    0  501 -0.00000000000E+00  0.00000000000E+00  0.77535212469E+01  0.77535212469E+01  0.00000000000E+00 0. -1.
          2   -1    0    0  501    0  0.00000000000E+00 -0.00000000000E+00 -0.24336362720E+04  0.24336362720E+04  0.00000000000E+00 0. -1.
         35    2    1    2    0    0  0.00000000000E+00  0.00000000000E+00 -0.24258827507E+04  0.24413897932E+04  0.27473078125E+03 0.  0.
         25    1    3    3    0    0 -0.50972680329E+02 -0.14735474888E+02 -0.85154423359E+03  0.86159325097E+03  0.12000000000E+03 0.  0.
         25    1    3    3    0    0  0.50972680329E+02  0.14735474888E+02 -0.15743385172E+04  0.15797965423E+04  0.12000000000E+03 0.  0.
<mgrwt>
<rscale>  0 0.27473078E+03</rscale>
<asrwt>0</asrwt>
<pdfrwt beam="1">  1        2 0.37440553E+00 0.27473078E+03</pdfrwt>
<pdfrwt beam="2">  1       -2 0.11928496E-02 0.27473078E+03</pdfrwt>
<totfact> 0.71901450E+03</totfact>
</mgrwt>
</event>
<event>
 5    1  0.1111501E+001  0.2766950E+03  0.7818608E-02  0.1097508E+00
          2   -1    0    0  501    0  0.00000000000E+00  0.00000000000E+00  0.76128518465E+03  0.76128518465E+03  0.00000000000E+00 0. -1.
         -2   -1    0    0    0  501 -0.00000000000E+00 -0.00000000000E+00 -0.25141737476E+02  0.25141737476E+02  0.00000000000E+00 0. -1.
         35    2    1    2    0    0  0.00000000000E+00  0.00000000000E+00  0.73614344717E+03  0.78642692212E+03  0.27669501085E+03 0.  0.
         25    1    3    3    0    0 -0.11742198376E+02  0.59934661975E+02  0.45839827646E+03  0.47776461023E+03  0.12000000000E+03 0.  0.
         25    1    3    3    0    0  0.11742198376E+02 -0.59934661975E+02  0.27774517072E+03  0.30866231190E+03  0.12000000000E+03 0.  0.
<mgrwt>
<rscale>  0 0.27669501E+03</rscale>
<asrwt>0</asrwt>
<pdfrwt beam="1">  1        2 0.11712078E+00 0.27669501E+03</pdfrwt>
<pdfrwt beam="2">  1       -2 0.38679602E-02 0.27669501E+03</pdfrwt>
<totfact> 0.10889420E+04</totfact>
</mgrwt>
</event>
<event>
 5    1  0.1111501E+001  0.2749153E+03  0.7818608E-02  0.1098499E+00
          1   -1    0    0  501    0  0.00000000000E+00  0.00000000000E+00  0.42049492007E+02  0.42049492007E+02  0.00000000000E+00 0.  1.
         -1   -1    0    0    0  501 -0.00000000000E+00 -0.00000000000E+00 -0.44934222670E+03  0.44934222670E+03  0.00000000000E+00 0.  1.
         35    2    1    2    0    0  0.00000000000E+00  0.00000000000E+00 -0.40729273469E+03  0.49139171871E+03  0.27491534966E+03 0.  0.
         25    1    3    3    0    0 -0.33012146361E+02  0.50149966976E+02 -0.25696425560E+03  0.28988868493E+03  0.12000000000E+03 0.  0.
         25    1    3    3    0    0  0.33012146361E+02 -0.50149966976E+02 -0.15032847910E+03  0.20150303378E+03  0.12000000000E+03 0.  0.
<mgrwt>
<rscale>  0 0.27491535E+03</rscale>
<asrwt>0</asrwt>
<pdfrwt beam="1">  1        1 0.64691526E-02 0.27491535E+03</pdfrwt>
<pdfrwt beam="2">  1       -1 0.69129573E-01 0.27491535E+03</pdfrwt>
<totfact> 0.25537571E+03</totfact>
</mgrwt>
</event>
<event>
 5    1  0.1111501E+001  0.2750256E+03  0.7818608E-02  0.1098437E+00
         -2   -1    0    0    0  501 -0.00000000000E+00  0.00000000000E+00  0.10204336505E+02  0.10204336505E+02  0.00000000000E+00 0. -1.
          2   -1    0    0  501    0  0.00000000000E+00 -0.00000000000E+00 -0.18531113884E+04  0.18531113884E+04  0.00000000000E+00 0. -1.
         35    2    1    2    0    0  0.00000000000E+00  0.00000000000E+00 -0.18429070519E+04  0.18633157250E+04  0.27502561473E+03 0.  0.
         25    1    3    3    0    0  0.30021016535E+02 -0.61878083653E+01 -0.13262725400E+04  0.13320429425E+04  0.12000000000E+03 0.  0.
         25    1    3    3    0    0 -0.30021016535E+02  0.61878083653E+01 -0.51663451197E+03  0.53127278244E+03  0.12000000000E+03 0.  0.
<mgrwt>
<rscale>  0 0.27502561E+03</rscale>
<asrwt>0</asrwt>
<pdfrwt beam="1">  1        2 0.28509405E+00 0.27502561E+03</pdfrwt>
<pdfrwt beam="2">  1       -2 0.15698980E-02 0.27502561E+03</pdfrwt>
<totfact> 0.97947249E+03</totfact>
</mgrwt>
</event>
<event>
 5    1  0.1111501E+001  0.2716601E+03  0.7818608E-02  0.1100333E+00
         -2   -1    0    0    0  501 -0.00000000000E+00  0.00000000000E+00  0.80815942499E+01  0.80815942499E+01  0.00000000000E+00 0. -1.
          2   -1    0    0  501    0  0.00000000000E+00 -0.00000000000E+00 -0.22829411877E+04  0.22829411877E+04  0.00000000000E+00 0. -1.
         35    2    1    2    0    0  0.00000000000E+00  0.00000000000E+00 -0.22748595935E+04  0.22910227820E+04  0.27166011393E+03 0.  0.
         25    1    3    3    0    0 -0.48849346815E+02 -0.33989923319E+02 -0.94730707561E+03  0.95672998755E+03  0.12000000000E+03 0.  0.
         25    1    3    3    0    0  0.48849346815E+02  0.33989923319E+02 -0.13275525179E+04  0.13342927944E+04  0.12000000000E+03 0.  0.
<mgrwt>
<rscale>  0 0.27166011E+03</rscale>
<asrwt>0</asrwt>
<pdfrwt beam="1">  1        2 0.35122198E+00 0.27166011E+03</pdfrwt>
<pdfrwt beam="2">  1       -2 0.12433213E-02 0.27166011E+03</pdfrwt>
<totfact> 0.81619717E+03</totfact>
</mgrwt>
</event>
<event>
 5    1  0.1111501E+001  0.2759967E+03  0.7818608E-02  0.1097896E+00
          2   -1    0    0  501    0  0.00000000000E+00  0.00000000000E+00  0.11416024139E+03  0.11416024139E+03  0.00000000000E+00 0.  1.
         -2   -1    0    0    0  501 -0.00000000000E+00 -0.00000000000E+00 -0.16681419718E+03  0.16681419718E+03  0.00000000000E+00 0.  1.
         35    2    1    2    0    0  0.00000000000E+00  0.00000000000E+00 -0.52653955787E+02  0.28097443858E+03  0.27599673200E+03 0.  0.
         25    1    3    3    0    0 -0.39009426039E+02 -0.48076082071E+02  0.26558302488E+01  0.13505590850E+03  0.12000000000E+03 0.  0.
         25    1    3    3    0    0  0.39009426039E+02  0.48076082071E+02 -0.55309786036E+02  0.14591853007E+03  0.12000000000E+03 0.  0.
<mgrwt>
<rscale>  0 0.27599673E+03</rscale>
<asrwt>0</asrwt>
<pdfrwt beam="1">  1        2 0.17563114E-01 0.27599673E+03</pdfrwt>
<pdfrwt beam="2">  1       -2 0.25663723E-01 0.27599673E+03</pdfrwt>
<totfact> 0.43578151E+03</totfact>
</mgrwt>
</event>
<event>
 5    1  0.1111501E+001  0.2745094E+03  0.7818608E-02  0.1098726E+00
          2   -1    0    0  501    0  0.00000000000E+00  0.00000000000E+00  0.14010989575E+03  0.14010989575E+03  0.00000000000E+00 0.  1.
         -2   -1    0    0    0  501 -0.00000000000E+00 -0.00000000000E+00 -0.13445772262E+03  0.13445772262E+03  0.00000000000E+00 0.  1.
         35    2    1    2    0    0  0.00000000000E+00  0.00000000000E+00  0.56521731283E+01  0.27456761837E+03  0.27450943516E+03 0.  0.
         25    1    3    3    0    0 -0.25519957718E+01  0.54092942952E+02 -0.35993199063E+02  0.13648468609E+03  0.12000000000E+03 0.  0.
         25    1    3    3    0    0  0.25519957718E+01 -0.54092942952E+02  0.41645372192E+02  0.13808293227E+03  0.12000000000E+03 0.  0.
<mgrwt>
<rscale>  0 0.27450944E+03</rscale>
<asrwt>0</asrwt>
<pdfrwt beam="1">  1        2 0.21555369E-01 0.27450944E+03</pdfrwt>
<pdfrwt beam="2">  1       -2 0.20685804E-01 0.27450944E+03</pdfrwt>
<totfact> 0.50154298E+03</totfact>
</mgrwt>
</event>
<event>
 5    1  0.1111501E+001  0.2749252E+03  0.7818608E-02  0.1098493E+00
         -1   -1    0    0    0  501 -0.00000000000E+00  0.00000000000E+00  0.51636615249E+02  0.51636615249E+02  0.00000000000E+00 0.  1.
          1   -1    0    0  501    0  0.00000000000E+00 -0.00000000000E+00 -0.36594133675E+03  0.36594133675E+03  0.00000000000E+00 0.  1.
         35    2    1    2    0    0  0.00000000000E+00  0.00000000000E+00 -0.31430472150E+03  0.41757795200E+03  0.27492524082E+03 0.  0.
         25    1    3    3    0    0  0.55937561560E+02 -0.35727028822E+01 -0.10125853056E+03  0.16671852030E+03  0.12000000000E+03 0.  0.
         25    1    3    3    0    0 -0.55937561560E+02  0.35727028822E+01 -0.21304619094E+03  0.25085943170E+03  0.12000000000E+03 0.  0.
<mgrwt>
<rscale>  0 0.27492524E+03</rscale>
<asrwt>0</asrwt>
<pdfrwt beam="1">  1        1 0.56298668E-01 0.27492524E+03</pdfrwt>
<pdfrwt beam="2">  1       -1 0.79440946E-02 0.27492524E+03</pdfrwt>
<totfact> 0.58793411E+03</totfact>
</mgrwt>
</event>
<event>
 5    1  0.1111501E+001  0.2856864E+03  0.7818608E-02  0.1092623E+00
          3   -1    0    0  501    0  0.00000000000E+00  0.00000000000E+00  0.70598840642E+03  0.70598840642E+03  0.00000000000E+00 0.  1.
         -3   -1    0    0    0  501 -0.00000000000E+00 -0.00000000000E+00 -0.28901570871E+02  0.28901570871E+02  0.00000000000E+00 0.  1.
         35    2    1    2    0    0  0.00000000000E+00  0.00000000000E+00  0.67708683554E+03  0.73488997729E+03  0.28568635923E+03 0.  0.
         25    1    3    3    0    0  0.49877299514E+02 -0.45651831604E+02  0.43589785772E+03  0.45714196603E+03  0.12000000000E+03 0.  0.
         25    1    3    3    0    0 -0.49877299514E+02  0.45651831604E+02  0.24118897782E+03  0.27774801126E+03  0.12000000000E+03 0.  0.
<mgrwt>
<rscale>  0 0.28568636E+03</rscale>
<asrwt>0</asrwt>
<pdfrwt beam="1">  1        3 0.10861359E+00 0.28568636E+03</pdfrwt>
<pdfrwt beam="2">  1       -3 0.44463961E-02 0.28568636E+03</pdfrwt>
<totfact> 0.52382410E+02</totfact>
</mgrwt>
</event>
<event>
 5    1  0.1111501E+001  0.2727129E+03  0.7818608E-02  0.1099737E+00
          1   -1    0    0  501    0  0.00000000000E+00  0.00000000000E+00  0.76702749351E+03  0.76702749351E+03  0.00000000000E+00 0. -1.
         -1   -1    0    0    0  501 -0.00000000000E+00 -0.00000000000E+00 -0.24240442493E+02  0.24240442493E+02  0.00000000000E+00 0. -1.
         35    2    1    2    0    0  0.00000000000E+00  0.00000000000E+00  0.74278705101E+03  0.79126793600E+03  0.27271293220E+03 0.  0.
         25    1    3    3    0    0 -0.22499276621E+02 -0.42751127422E+02  0.49650063778E+03  0.51307578355E+03  0.12000000000E+03 0.  0.
         25    1    3    3    0    0  0.22499276621E+02  0.42751127422E+02  0.24628641323E+03  0.27819215245E+03  0.12000000000E+03 0.  0.
<mgrwt>
<rscale>  0 0.27271293E+03</rscale>
<asrwt>0</asrwt>
<pdfrwt beam="1">  1        1 0.11800421E+00 0.27271293E+03</pdfrwt>
<pdfrwt beam="2">  1       -1 0.37292994E-02 0.27271293E+03</pdfrwt>
<totfact> 0.66949919E+03</totfact>
</mgrwt>
</event>
<event>
 5    1  0.1111501E+001  0.2755430E+03  0.7818608E-02  0.1098148E+00
         -2   -1    0    0    0  501 -0.00000000000E+00  0.00000000000E+00  0.18413749613E+02  0.18413749613E+02  0.00000000000E+00 0. -1.
          2   -1    0    0  501    0  0.00000000000E+00 -0.00000000000E+00 -0.10308050290E+04  0.10308050290E+04  0.00000000000E+00 0. -1.
         35    2    1    2    0    0  0.00000000000E+00  0.00000000000E+00 -0.10123912794E+04  0.10492187786E+04  0.27554299631E+03 0.  0.
         25    1    3    3    0    0 -0.48374699535E+02 -0.38942833790E+02 -0.40371428252E+03  0.42572511997E+03  0.12000000000E+03 0.  0.
         25    1    3    3    0    0  0.48374699535E+02  0.38942833790E+02 -0.60867699684E+03  0.62349365862E+03  0.12000000000E+03 0.  0.
<mgrwt>
<rscale>  0 0.27554300E+03</rscale>
<asrwt>0</asrwt>
<pdfrwt beam="1">  1        2 0.15858545E+00 0.27554300E+03</pdfrwt>
<pdfrwt beam="2">  1       -2 0.28328835E-02 0.27554300E+03</pdfrwt>
<totfact> 0.11573213E+04</totfact>
</mgrwt>
</event>
<event>
 5    1  0.1111501E+001  0.2748910E+03  0.7818608E-02  0.1098513E+00
         -2   -1    0    0    0  501 -0.00000000000E+00  0.00000000000E+00  0.89507525489E+02  0.89507525489E+02  0.00000000000E+00 0. -1.
          2   -1    0    0  501    0  0.00000000000E+00 -0.00000000000E+00 -0.21105783678E+03  0.21105783678E+03  0.00000000000E+00 0. -1.
         35    2    1    2    0    0  0.00000000000E+00  0.00000000000E+00 -0.12155031129E+03  0.30056536227E+03  0.27489099443E+03 0.  0.
         25    1    3    3    0    0 -0.72562443991E+01 -0.28506638741E+02  0.50650698820E+01  0.12365652618E+03  0.12000000000E+03 0.  0.
         25    1    3    3    0    0  0.72562443991E+01  0.28506638741E+02 -0.12661538117E+03  0.17690883608E+03  0.12000000000E+03 0.  0.
<mgrwt>
<rscale>  0 0.27489099E+03</rscale>
<asrwt>0</asrwt>
<pdfrwt beam="1">  1        2 0.32470436E-01 0.27489099E+03</pdfrwt>
<pdfrwt beam="2">  1       -2 0.13770389E-01 0.27489099E+03</pdfrwt>
<totfact> 0.62898983E+03</totfact>
</mgrwt>
</event>
<event>
 5    1  0.1111501E+001  0.2750851E+03  0.7818608E-02  0.1098404E+00
         -2   -1    0    0    0  501 -0.00000000000E+00  0.00000000000E+00  0.27685501275E+02  0.27685501275E+02  0.00000000000E+00 0. -1.
          2   -1    0    0  501    0  0.00000000000E+00 -0.00000000000E+00 -0.68331600940E+03  0.68331600940E+03  0.00000000000E+00 0. -1.
         35    2    1    2    0    0  0.00000000000E+00  0.00000000000E+00 -0.65563050813E+03  0.71100151068E+03  0.27508505048E+03 0.  0.
         25    1    3    3    0    0 -0.47980936105E+02  0.28219263604E+02 -0.42519383886E+03  0.44529574181E+03  0.12000000000E+03 0.  0.
         25    1    3    3    0    0  0.47980936105E+02 -0.28219263604E+02 -0.23043666926E+03  0.26570576887E+03  0.12000000000E+03 0.  0.
<mgrwt>
<rscale>  0 0.27508505E+03</rscale>
<asrwt>0</asrwt>
<pdfrwt beam="1">  1        2 0.10512553E+00 0.27508505E+03</pdfrwt>
<pdfrwt beam="2">  1       -2 0.42593081E-02 0.27508505E+03</pdfrwt>
<totfact> 0.10750788E+04</totfact>
</mgrwt>
</event>
<event>
 5    1  0.1111501E+001  0.2726876E+03  0.7818608E-02  0.1099751E+00
         -3   -1    0    0    0  501 -0.00000000000E+00  0.00000000000E+00  0.34362934031E+03  0.34362934031E+03  0.00000000000E+00 0.  1.
          3   -1    0    0  501    0  0.00000000000E+00 -0.00000000000E+00 -0.54097898604E+02  0.54097898604E+02  0.00000000000E+00 0.  1.
         35    2    1    2    0    0  0.00000000000E+00  0.00000000000E+00  0.28953144171E+03  0.39772723892E+03  0.27268755168E+03 0.  0.
         25    1    3    3    0    0 -0.27038451790E+02  0.26252381821E+02  0.22152125763E+03  0.25473895071E+03  0.12000000000E+03 0.  0.
         25    1    3    3    0    0  0.27038451790E+02 -0.26252381821E+02  0.68010184081E+02  0.14298828821E+03  0.12000000000E+03 0.  0.
<mgrwt>
<rscale>  0 0.27268755E+03</rscale>
<asrwt>0</asrwt>
<pdfrwt beam="1">  1        3 0.83227539E-02 0.27268755E+03</pdfrwt>
<pdfrwt beam="2">  1       -3 0.52866051E-01 0.27268755E+03</pdfrwt>
<totfact> 0.90630545E+02</totfact>
</mgrwt>
</event>
<event>
 5    1  0.1111501E+001  0.2741897E+03  0.7818608E-02  0.1098905E+00
         -2   -1    0    0    0  501 -0.00000000000E+00  0.00000000000E+00  0.65809722952E+01  0.65809722952E+01  0.00000000000E+00 0.  1.
          2   -1    0    0  501    0  0.00000000000E+00 -0.00000000000E+00 -0.28559603508E+04  0.28559603508E+04  0.00000000000E+00 0.  1.
         35    2    1    2    0    0  0.00000000000E+00  0.00000000000E+00 -0.28493793785E+04  0.28625413231E+04  0.27418968576E+03 0.  0.
         25    1    3    3    0    0  0.30620208406E+02 -0.78811127073E+01 -0.20330192017E+04  0.20368030793E+04  0.12000000000E+03 0.  0.
         25    1    3    3    0    0 -0.30620208406E+02  0.78811127073E+01 -0.81636017679E+03  0.82573824385E+03  0.12000000000E+03 0.  0.
<mgrwt>
<rscale>  0 0.27418969E+03</rscale>
<asrwt>0</asrwt>
<pdfrwt beam="1">  1        2 0.43937778E+00 0.27418969E+03</pdfrwt>
<pdfrwt beam="2">  1       -2 0.10124590E-02 0.27418969E+03</pdfrwt>
<totfact> 0.52980655E+03</totfact>
</mgrwt>
</event>
<event>
 5    1  0.1111501E+001  0.2752236E+03  0.7818608E-02  0.1098327E+00
         -1   -1    0    0    0  501 -0.00000000000E+00  0.00000000000E+00  0.38229720849E+02  0.38229720849E+02  0.00000000000E+00 0. -1.
          1   -1    0    0  501    0  0.00000000000E+00 -0.00000000000E+00 -0.49534794077E+03  0.49534794077E+03  0.00000000000E+00 0. -1.
         35    2    1    2    0    0  0.00000000000E+00  0.00000000000E+00 -0.45711821993E+03  0.53357766162E+03  0.27522364360E+03 0.  0.
         25    1    3    3    0    0  0.56579043587E+02  0.31304958679E+02 -0.19198868055E+03  0.23545879060E+03  0.12000000000E+03 0.  0.
         25    1    3    3    0    0 -0.56579043587E+02 -0.31304958679E+02 -0.26512953938E+03  0.29811887102E+03  0.12000000000E+03 0.  0.
<mgrwt>
<rscale>  0 0.27522364E+03</rscale>
<asrwt>0</asrwt>
<pdfrwt beam="1">  1        1 0.76207378E-01 0.27522364E+03</pdfrwt>
<pdfrwt beam="2">  1       -1 0.58814953E-02 0.27522364E+03</pdfrwt>
<totfact> 0.62671975E+03</totfact>
</mgrwt>
</event>
<event>
 5    1  0.1111501E+001  0.2751447E+03  0.7818608E-02  0.1098371E+00
         -2   -1    0    0    0  501 -0.00000000000E+00  0.00000000000E+00  0.71079453061E+02  0.71079453061E+02  0.00000000000E+00 0.  1.
          2   -1    0    0  501    0  0.00000000000E+00 -0.00000000000E+00 -0.26626764029E+03  0.26626764029E+03  0.00000000000E+00 0.  1.
         35    2    1    2    0    0  0.00000000000E+00  0.00000000000E+00 -0.19518818723E+03  0.33734709335E+03  0.27514474910E+03 0.  0.
         25    1    3    3    0    0  0.18359813016E+02  0.28951087611E+02 -0.16856774146E+03  0.20973872239E+03  0.12000000000E+03 0.  0.
         25    1    3    3    0    0 -0.18359813016E+02 -0.28951087611E+02 -0.26620445775E+02  0.12760837097E+03  0.12000000000E+03 0.  0.
<mgrwt>
<rscale>  0 0.27514475E+03</rscale>
<asrwt>0</asrwt>
<pdfrwt beam="1">  1        2 0.40964253E-01 0.27514475E+03</pdfrwt>
<pdfrwt beam="2">  1       -2 0.10935300E-01 0.27514475E+03</pdfrwt>
<totfact> 0.71014801E+03</totfact>
</mgrwt>
</event>
<event>
 5    1  0.1111501E+001  0.2753422E+03  0.7818608E-02  0.1098260E+00
          1   -1    0    0  501    0  0.00000000000E+00  0.00000000000E+00  0.51890927740E+03  0.51890927740E+03  0.00000000000E+00 0. -1.
         -1   -1    0    0    0  501 -0.00000000000E+00 -0.00000000000E+00 -0.36525335028E+02  0.36525335028E+02  0.00000000000E+00 0. -1.
         35    2    1    2    0    0  0.00000000000E+00  0.00000000000E+00  0.48238394237E+03  0.55543461242E+03  0.27534222492E+03 0.  0.
         25    1    3    3    0    0  0.46334879463E+02 -0.44553872386E+02  0.28260053610E+03  0.31367982339E+03  0.12000000000E+03 0.  0.
         25    1    3    3    0    0 -0.46334879463E+02  0.44553872386E+02  0.19978340627E+03  0.24175478903E+03  0.12000000000E+03 0.  0.
<mgrwt>
<rscale>  0 0.27534222E+03</rscale>
<asrwt>0</asrwt>
<pdfrwt beam="1">  1        1 0.79832191E-01 0.27534222E+03</pdfrwt>
<pdfrwt beam="2">  1       -1 0.56192827E-02 0.27534222E+03</pdfrwt>
<totfact> 0.63097557E+03</totfact>
</mgrwt>
</event>
<event>
 5    1  0.1111501E+001  0.2750265E+03  0.7818608E-02  0.1098437E+00
         -1   -1    0    0    0  501 -0.00000000000E+00  0.00000000000E+00  0.31633418582E+02  0.31633418582E+02  0.00000000000E+00 0.  1.
          1   -1    0    0  501    0  0.00000000000E+00 -0.00000000000E+00 -0.59778225707E+03  0.59778225707E+03  0.00000000000E+00 0.  1.
         35    2    1    2    0    0  0.00000000000E+00  0.00000000000E+00 -0.56614883849E+03  0.62941567566E+03  0.27502651769E+03 0.  0.
         25    1    3    3    0    0  0.40434516251E+02  0.39564351143E+02 -0.20025470906E+03  0.24021289825E+03  0.12000000000E+03 0.  0.
         25    1    3    3    0    0 -0.40434516251E+02 -0.39564351143E+02 -0.36589412943E+03  0.38920277740E+03  0.12000000000E+03 0.  0.
<mgrwt>
<rscale>  0 0.27502652E+03</rscale>
<asrwt>0</asrwt>
<pdfrwt beam="1">  1        1 0.91966503E-01 0.27502652E+03</pdfrwt>
<pdfrwt beam="2">  1       -1 0.48666797E-02 0.27502652E+03</pdfrwt>
<totfact> 0.64564992E+03</totfact>
</mgrwt>
</event>
<event>
 5    1  0.1111501E+001  0.2747511E+03  0.7818608E-02  0.1098591E+00
         -2   -1    0    0    0  501 -0.00000000000E+00  0.00000000000E+00  0.89269862858E+01  0.89269862858E+01  0.00000000000E+00 0. -1.
          2   -1    0    0  501    0  0.00000000000E+00 -0.00000000000E+00 -0.21140446743E+04  0.21140446743E+04  0.00000000000E+00 0. -1.
         35    2    1    2    0    0  0.00000000000E+00  0.00000000000E+00 -0.21051176880E+04  0.21229716606E+04  0.27475114424E+03 0.  0.
         25    1    3    3    0    0 -0.13439636444E+02  0.10052689242E+02 -0.55237375643E+03  0.56550724768E+03  0.12000000000E+03 0.  0.
         25    1    3    3    0    0  0.13439636444E+02 -0.10052689242E+02 -0.15527439316E+04  0.15574644129E+04  0.12000000000E+03 0.  0.
<mgrwt>
<rscale>  0 0.27475114E+03</rscale>
<asrwt>0</asrwt>
<pdfrwt beam="1">  1        2 0.32523765E+00 0.27475114E+03</pdfrwt>
<pdfrwt beam="2">  1       -2 0.13733825E-02 0.27475114E+03</pdfrwt>
<totfact> 0.86819356E+03</totfact>
</mgrwt>
</event>
<event>
 5    1  0.1111501E+001  0.2786918E+03  0.7818608E-02  0.1096406E+00
          1   -1    0    0  501    0  0.00000000000E+00  0.00000000000E+00  0.53062920774E+03  0.53062920774E+03  0.00000000000E+00 0.  1.
         -1   -1    0    0    0  501 -0.00000000000E+00 -0.00000000000E+00 -0.36592929940E+02  0.36592929940E+02  0.00000000000E+00 0.  1.
         35    2    1    2    0    0  0.00000000000E+00  0.00000000000E+00  0.49403627780E+03  0.56722213768E+03  0.27869178261E+03 0.  0.
         25    1    3    3    0    0 -0.27154537047E+02 -0.65151895963E+02  0.25908303722E+03  0.29411929315E+03  0.12000000000E+03 0.  0.
         25    1    3    3    0    0  0.27154537047E+02  0.65151895963E+02  0.23495324058E+03  0.27310284453E+03  0.12000000000E+03 0.  0.
<mgrwt>
<rscale>  0 0.27869178E+03</rscale>
<asrwt>0</asrwt>
<pdfrwt beam="1">  1        1 0.81635257E-01 0.27869178E+03</pdfrwt>
<pdfrwt beam="2">  1       -1 0.56296819E-02 0.27869178E+03</pdfrwt>
<totfact> 0.61085347E+03</totfact>
</mgrwt>
</event>
<event>
 5    1  0.1111501E+001  0.2763443E+03  0.7818608E-02  0.1097703E+00
          1   -1    0    0  501    0  0.00000000000E+00  0.00000000000E+00  0.11604780247E+04  0.11604780247E+04  0.00000000000E+00 0.  1.
         -1   -1    0    0    0  501 -0.00000000000E+00 -0.00000000000E+00 -0.16451451306E+02  0.16451451306E+02  0.00000000000E+00 0.  1.
         35    2    1    2    0    0  0.00000000000E+00  0.00000000000E+00  0.11440265734E+04  0.11769294760E+04  0.27634433387E+03 0.  0.
         25    1    3    3    0    0  0.50124888017E+02 -0.22758054856E+02  0.74559326436E+03  0.75719201615E+03  0.12000000000E+03 0.  0.
         25    1    3    3    0    0 -0.50124888017E+02  0.22758054856E+02  0.39843330901E+03  0.41973745983E+03  0.12000000000E+03 0.  0.
<mgrwt>
<rscale>  0 0.27634433E+03</rscale>
<asrwt>0</asrwt>
<pdfrwt beam="1">  1        1 0.17853502E+00 0.27634433E+03</pdfrwt>
<pdfrwt beam="2">  1       -1 0.25309934E-02 0.27634433E+03</pdfrwt>
<totfact> 0.59208618E+03</totfact>
</mgrwt>
</event>
<event>
 5    1  0.1111501E+001  0.2748504E+03  0.7818608E-02  0.1098535E+00
         -4   -1    0    0    0  501 -0.00000000000E+00  0.00000000000E+00  0.29535778610E+02  0.29535778610E+02  0.00000000000E+00 0. -1.
          4   -1    0    0  501    0  0.00000000000E+00 -0.00000000000E+00 -0.63941727137E+03  0.63941727137E+03  0.00000000000E+00 0. -1.
         35    2    1    2    0    0  0.00000000000E+00  0.00000000000E+00 -0.60988149276E+03  0.66895304998E+03  0.27485040998E+03 0.  0.
         25    1    3    3    0    0  0.34123104193E+02  0.12432894026E+02 -0.44190408918E+03  0.45934538980E+03  0.12000000000E+03 0.  0.
         25    1    3    3    0    0 -0.34123104193E+02 -0.12432894026E+02 -0.16797740358E+03  0.20960766018E+03  0.12000000000E+03 0.  0.
<mgrwt>
<rscale>  0 0.27485041E+03</rscale>
<asrwt>0</asrwt>
<pdfrwt beam="1">  1        4 0.98371883E-01 0.27485041E+03</pdfrwt>
<pdfrwt beam="2">  1       -4 0.45439662E-02 0.27485041E+03</pdfrwt>
<totfact> 0.46299590E+02</totfact>
</mgrwt>
</event>
<event>
 5    1  0.1111501E+001  0.2709250E+03  0.7818608E-02  0.1100751E+00
          2   -1    0    0  501    0  0.00000000000E+00  0.00000000000E+00  0.38796881922E+03  0.38796881922E+03  0.00000000000E+00 0. -1.
         -2   -1    0    0    0  501 -0.00000000000E+00 -0.00000000000E+00 -0.47297848581E+02  0.47297848581E+02  0.00000000000E+00 0. -1.
         35    2    1    2    0    0  0.00000000000E+00  0.00000000000E+00  0.34067097064E+03  0.43526666780E+03  0.27092501151E+03 0.  0.
         25    1    3    3    0    0  0.30127157687E+02 -0.29867552061E+02  0.24483669552E+03  0.27594333434E+03  0.12000000000E+03 0.  0.
         25    1    3    3    0    0 -0.30127157687E+02  0.29867552061E+02  0.95834275126E+02  0.15932333346E+03  0.12000000000E+03 0.  0.
<mgrwt>
<rscale>  0 0.27092501E+03</rscale>
<asrwt>0</asrwt>
<pdfrwt beam="1">  1        2 0.59687509E-01 0.27092501E+03</pdfrwt>
<pdfrwt beam="2">  1       -2 0.72765923E-02 0.27092501E+03</pdfrwt>
<totfact> 0.89868371E+03</totfact>
</mgrwt>
</event>
<event>
 5    1  0.1111501E+001  0.2668181E+03  0.7818608E-02  0.1103115E+00
          2   -1    0    0  501    0  0.00000000000E+00  0.00000000000E+00  0.40971661523E+03  0.40971661523E+03  0.00000000000E+00 0.  1.
         -2   -1    0    0    0  501 -0.00000000000E+00 -0.00000000000E+00 -0.43439730538E+02  0.43439730538E+02  0.00000000000E+00 0.  1.
         35    2    1    2    0    0  0.00000000000E+00  0.00000000000E+00  0.36627688469E+03  0.45315634577E+03  0.26681813553E+03 0.  0.
         25    1    3    3    0    0 -0.47182132864E+02  0.29353243545E+02  0.15322526307E+03  0.20239996989E+03  0.12000000000E+03 0.  0.
         25    1    3    3    0    0  0.47182132864E+02 -0.29353243545E+02  0.21305162162E+03  0.25075637588E+03  0.12000000000E+03 0.  0.
<mgrwt>
<rscale>  0 0.26681814E+03</rscale>
<asrwt>0</asrwt>
<pdfrwt beam="1">  1        2 0.63033323E-01 0.26681814E+03</pdfrwt>
<pdfrwt beam="2">  1       -2 0.66830358E-02 0.26681814E+03</pdfrwt>
<totfact> 0.96561110E+03</totfact>
</mgrwt>
</event>
<event>
 5    1  0.1111501E+001  0.2757731E+03  0.7818608E-02  0.1098020E+00
         -2   -1    0    0    0  501 -0.00000000000E+00  0.00000000000E+00  0.78302287239E+02  0.78302287239E+02  0.00000000000E+00 0.  1.
          2   -1    0    0  501    0  0.00000000000E+00 -0.00000000000E+00 -0.24281154035E+03  0.24281154035E+03  0.00000000000E+00 0.  1.
         35    2    1    2    0    0  0.00000000000E+00  0.00000000000E+00 -0.16450925311E+03  0.32111382759E+03  0.27577308772E+03 0.  0.
         25    1    3    3    0    0 -0.16615673439E+02 -0.43914215981E+02 -0.25113368813E+02  0.13128297781E+03  0.12000000000E+03 0.  0.
         25    1    3    3    0    0  0.16615673439E+02  0.43914215981E+02 -0.13939588430E+03  0.18983084978E+03  0.12000000000E+03 0.  0.
<mgrwt>
<rscale>  0 0.27577309E+03</rscale>
<asrwt>0</asrwt>
<pdfrwt beam="1">  1        2 0.37355621E-01 0.27577309E+03</pdfrwt>
<pdfrwt beam="2">  1       -2 0.12046506E-01 0.27577309E+03</pdfrwt>
<totfact> 0.67146744E+03</totfact>
</mgrwt>
</event>
<event>
 5    1  0.1111501E+001  0.2744114E+03  0.7818608E-02  0.1098781E+00
          2   -1    0    0  501    0  0.00000000000E+00  0.00000000000E+00  0.18040779487E+03  0.18040779487E+03  0.00000000000E+00 0. -1.
         -2   -1    0    0    0  501 -0.00000000000E+00 -0.00000000000E+00 -0.10434920196E+03  0.10434920196E+03  0.00000000000E+00 0. -1.
         35    2    1    2    0    0  0.00000000000E+00  0.00000000000E+00  0.76058592905E+02  0.28475699683E+03  0.27441143869E+03 0.  0.
         25    1    3    3    0    0 -0.25558531014E+02 -0.53426660871E+02  0.69466030694E+02  0.15077525002E+03  0.12000000000E+03 0.  0.
         25    1    3    3    0    0  0.25558531014E+02  0.53426660871E+02  0.65925622105E+01  0.13398174680E+03  0.12000000000E+03 0.  0.
<mgrwt>
<rscale>  0 0.27441144E+03</rscale>
<asrwt>0</asrwt>
<pdfrwt beam="1">  1        2 0.27755045E-01 0.27441144E+03</pdfrwt>
<pdfrwt beam="2">  1       -2 0.16053723E-01 0.27441144E+03</pdfrwt>
<totfact> 0.58000562E+03</totfact>
</mgrwt>
</event>
<event>
 5    1  0.1111501E+001  0.2747760E+03  0.7818608E-02  0.1098577E+00
          2   -1    0    0  501    0  0.00000000000E+00  0.00000000000E+00  0.87503989442E+02  0.87503989442E+02  0.00000000000E+00 0.  1.
         -2   -1    0    0    0  501 -0.00000000000E+00 -0.00000000000E+00 -0.21570976341E+03  0.21570976341E+03  0.00000000000E+00 0.  1.
         35    2    1    2    0    0  0.00000000000E+00  0.00000000000E+00 -0.12820577397E+03  0.30321375286E+03  0.27477601686E+03 0.  0.
         25    1    3    3    0    0  0.63091234102E+02  0.50790331893E+01 -0.40200975937E+02  0.14150059669E+03  0.12000000000E+03 0.  0.
         25    1    3    3    0    0 -0.63091234102E+02 -0.50790331893E+01 -0.88004798034E+02  0.16171315616E+03  0.12000000000E+03 0.  0.
<mgrwt>
<rscale>  0 0.27477602E+03</rscale>
<asrwt>0</asrwt>
<pdfrwt beam="1">  1        2 0.13462152E-01 0.27477602E+03</pdfrwt>
<pdfrwt beam="2">  1       -2 0.33186117E-01 0.27477602E+03</pdfrwt>
<totfact> 0.37482449E+03</totfact>
</mgrwt>
</event>
<event>
 5    1  0.1111501E+001  0.2750847E+03  0.7818608E-02  0.1098404E+00
          1   -1    0    0  501    0  0.00000000000E+00  0.00000000000E+00  0.99466100519E+03  0.99466100519E+03  0.00000000000E+00 0. -1.
         -1   -1    0    0    0  501 -0.00000000000E+00 -0.00000000000E+00 -0.19019444755E+02  0.19019444755E+02  0.00000000000E+00 0. -1.
         35    2    1    2    0    0  0.00000000000E+00  0.00000000000E+00  0.97564156043E+03  0.10136804499E+04  0.27508471450E+03 0.  0.
         25    1    3    3    0    0  0.13341834868E+02  0.65681366410E+02  0.50655756280E+03  0.52487389998E+03  0.12000000000E+03 0.  0.
         25    1    3    3    0    0 -0.13341834868E+02 -0.65681366410E+02  0.46908399763E+03  0.48880654996E+03  0.12000000000E+03 0.  0.
<mgrwt>
<rscale>  0 0.27508471E+03</rscale>
<asrwt>0</asrwt>
<pdfrwt beam="1">  1        1 0.15302473E+00 0.27508471E+03</pdfrwt>
<pdfrwt beam="2">  1       -1 0.29260692E-02 0.27508471E+03</pdfrwt>
<totfact> 0.63126826E+03</totfact>
</mgrwt>
</event>
<event>
 5    1  0.1111501E+001  0.2744746E+03  0.7818608E-02  0.1098746E+00
         -2   -1    0    0    0  501 -0.00000000000E+00  0.00000000000E+00  0.79827320957E+01  0.79827320957E+01  0.00000000000E+00 0. -1.
          2   -1    0    0  501    0  0.00000000000E+00 -0.00000000000E+00 -0.23593517197E+04  0.23593517197E+04  0.00000000000E+00 0. -1.
         35    2    1    2    0    0  0.00000000000E+00  0.00000000000E+00 -0.23513689876E+04  0.23673344518E+04  0.27447457221E+03 0.  0.
         25    1    3    3    0    0  0.45166260085E+02 -0.41859958685E+02 -0.95717717513E+03  0.96663353541E+03  0.12000000000E+03 0.  0.
         25    1    3    3    0    0 -0.45166260085E+02  0.41859958685E+02 -0.13941918125E+04  0.14007009164E+04  0.12000000000E+03 0.  0.
<mgrwt>
<rscale>  0 0.27447457E+03</rscale>
<asrwt>0</asrwt>
<pdfrwt beam="1">  1        2 0.36297722E+00 0.27447457E+03</pdfrwt>
<pdfrwt beam="2">  1       -2 0.12281125E-02 0.27447457E+03</pdfrwt>
<totfact> 0.75601790E+03</totfact>
</mgrwt>
</event>
<event>
 5    1  0.1111501E+001  0.2785158E+03  0.7818608E-02  0.1096502E+00
         -1   -1    0    0    0  501 -0.00000000000E+00  0.00000000000E+00  0.82604890993E+02  0.82604890993E+02  0.00000000000E+00 0. -1.
          1   -1    0    0  501    0  0.00000000000E+00 -0.00000000000E+00 -0.23476522780E+03  0.23476522780E+03  0.00000000000E+00 0. -1.
         35    2    1    2    0    0  0.00000000000E+00  0.00000000000E+00 -0.15216033681E+03  0.31737011880E+03  0.27851575217E+03 0.  0.
         25    1    3    3    0    0  0.37221867587E+02 -0.26855420209E+02 -0.14863445028E+02  0.12933523503E+03  0.12000000000E+03 0.  0.
         25    1    3    3    0    0 -0.37221867587E+02  0.26855420209E+02 -0.13729689178E+03  0.18803488377E+03  0.12000000000E+03 0.  0.
<mgrwt>
<rscale>  0 0.27851575E+03</rscale>
<asrwt>0</asrwt>
<pdfrwt beam="1">  1        1 0.36117727E-01 0.27851575E+03</pdfrwt>
<pdfrwt beam="2">  1       -1 0.12708445E-01 0.27851575E+03</pdfrwt>
<totfact> 0.49745495E+03</totfact>
</mgrwt>
</event>
<event>
 5    1  0.1111501E+001  0.2745594E+03  0.7818608E-02  0.1098698E+00
         -2   -1    0    0    0  501 -0.00000000000E+00  0.00000000000E+00  0.43624426368E+02  0.43624426368E+02  0.00000000000E+00 0.  1.
          2   -1    0    0  501    0  0.00000000000E+00 -0.00000000000E+00 -0.43199922761E+03  0.43199922761E+03  0.00000000000E+00 0.  1.
         35    2    1    2    0    0  0.00000000000E+00  0.00000000000E+00 -0.38837480124E+03  0.47562365398E+03  0.27455941795E+03 0.  0.
         25    1    3    3    0    0 -0.61434602241E+02  0.25174046014E+02 -0.20483452924E+03  0.24650583627E+03  0.12000000000E+03 0.  0.
         25    1    3    3    0    0  0.61434602241E+02 -0.25174046014E+02 -0.18354027200E+03  0.22911781771E+03  0.12000000000E+03 0.  0.
<mgrwt>
<rscale>  0 0.27455942E+03</rscale>
<asrwt>0</asrwt>
<pdfrwt beam="1">  1        2 0.66461416E-01 0.27455942E+03</pdfrwt>
<pdfrwt beam="2">  1       -2 0.67114506E-02 0.27455942E+03</pdfrwt>
<totfact> 0.90644398E+03</totfact>
</mgrwt>
</event>
<event>
 5    1  0.1111501E+001  0.2752296E+03  0.7818608E-02  0.1098323E+00
         -2   -1    0    0    0  501 -0.00000000000E+00  0.00000000000E+00  0.36331859062E+02  0.36331859062E+02  0.00000000000E+00 0. -1.
          2   -1    0    0  501    0  0.00000000000E+00 -0.00000000000E+00 -0.52124601446E+03  0.52124601446E+03  0.00000000000E+00 0. -1.
         35    2    1    2    0    0  0.00000000000E+00  0.00000000000E+00 -0.48491415540E+03  0.55757787352E+03  0.27522962583E+03 0.  0.
         25    1    3    3    0    0 -0.45295069606E+02 -0.38261496985E+02 -0.17768479883E+03  0.22245780098E+03  0.12000000000E+03 0.  0.
         25    1    3    3    0    0  0.45295069606E+02  0.38261496985E+02 -0.30722935656E+03  0.33512007253E+03  0.12000000000E+03 0.  0.
<mgrwt>
<rscale>  0 0.27522963E+03</rscale>
<asrwt>0</asrwt>
<pdfrwt beam="1">  1        2 0.80191694E-01 0.27522963E+03</pdfrwt>
<pdfrwt beam="2">  1       -2 0.55895168E-02 0.27522963E+03</pdfrwt>
<totfact> 0.97472675E+03</totfact>
</mgrwt>
</event>
<event>
 5    1  0.1111501E+001  0.2742858E+03  0.7818608E-02  0.1098851E+00
         -3   -1    0    0    0  501 -0.00000000000E+00  0.00000000000E+00  0.72346236224E+02  0.72346236224E+02  0.00000000000E+00 0.  1.
          3   -1    0    0  501    0  0.00000000000E+00 -0.00000000000E+00 -0.25997456433E+03  0.25997456433E+03  0.00000000000E+00 0.  1.
         35    2    1    2    0    0  0.00000000000E+00  0.00000000000E+00 -0.18762832811E+03  0.33232080056E+03  0.27428584538E+03 0.  0.
         25    1    3    3    0    0  0.61106126869E+02  0.21605737084E+02 -0.76365032381E+02  0.15630862032E+03  0.12000000000E+03 0.  0.
         25    1    3    3    0    0 -0.61106126869E+02 -0.21605737084E+02 -0.11126329573E+03  0.17601218024E+03  0.12000000000E+03 0.  0.
<mgrwt>
<rscale>  0 0.27428585E+03</rscale>
<asrwt>0</asrwt>
<pdfrwt beam="1">  1        3 0.39996086E-01 0.27428585E+03</pdfrwt>
<pdfrwt beam="2">  1       -3 0.11130190E-01 0.27428585E+03</pdfrwt>
<totfact> 0.97419897E+02</totfact>
</mgrwt>
</event>
<event>
 5    1  0.1111501E+001  0.2761553E+03  0.7818608E-02  0.1097808E+00
         -1   -1    0    0    0  501 -0.00000000000E+00  0.00000000000E+00  0.20339281197E+02  0.20339281197E+02  0.00000000000E+00 0. -1.
          1   -1    0    0  501    0  0.00000000000E+00 -0.00000000000E+00 -0.93737059594E+03  0.93737059594E+03  0.00000000000E+00 0. -1.
         35    2    1    2    0    0  0.00000000000E+00  0.00000000000E+00 -0.91703131474E+03  0.95770987713E+03  0.27615534857E+03 0.  0.
         25    1    3    3    0    0  0.40193276113E+02  0.22228154720E+02 -0.63384254111E+03  0.64673484306E+03  0.12000000000E+03 0.  0.
         25    1    3    3    0    0 -0.40193276113E+02 -0.22228154720E+02 -0.28318877363E+03  0.31097503407E+03  0.12000000000E+03 0.  0.
<mgrwt>
<rscale>  0 0.27615535E+03</rscale>
<asrwt>0</asrwt>
<pdfrwt beam="1">  1        1 0.14421090E+00 0.27615535E+03</pdfrwt>
<pdfrwt beam="2">  1       -1 0.31291192E-02 0.27615535E+03</pdfrwt>
<totfact> 0.63211193E+03</totfact>
</mgrwt>
</event>
<event>
 5    1  0.1111501E+001  0.2746489E+03  0.7818608E-02  0.1098648E+00
          2   -1    0    0  501    0  0.00000000000E+00  0.00000000000E+00  0.82442200821E+03  0.82442200821E+03  0.00000000000E+00 0. -1.
         -2   -1    0    0    0  501 -0.00000000000E+00 -0.00000000000E+00 -0.22874208576E+02  0.22874208576E+02  0.00000000000E+00 0. -1.
         35    2    1    2    0    0  0.00000000000E+00  0.00000000000E+00  0.80154779964E+03  0.84729621679E+03  0.27464887380E+03 0.  0.
         25    1    3    3    0    0 -0.55176846553E+02  0.51126004242E+01  0.28586469230E+03  0.31494324153E+03  0.12000000000E+03 0.  0.
         25    1    3    3    0    0  0.55176846553E+02 -0.51126004242E+01  0.51568310734E+03  0.53235297526E+03  0.12000000000E+03 0.  0.
<mgrwt>
<rscale>  0 0.27464887E+03</rscale>
<asrwt>0</asrwt>
<pdfrwt beam="1">  1        2 0.12683413E+00 0.27464887E+03</pdfrwt>
<pdfrwt beam="2">  1       -2 0.35191097E-02 0.27464887E+03</pdfrwt>
<totfact> 0.11338439E+04</totfact>
</mgrwt>
</event>
<event>
 5    1  0.1111501E+001  0.2748609E+03  0.7818608E-02  0.1098529E+00
          2   -1    0    0  501    0  0.00000000000E+00  0.00000000000E+00  0.59935710459E+03  0.59935710459E+03  0.00000000000E+00 0.  1.
         -2   -1    0    0    0  501 -0.00000000000E+00 -0.00000000000E+00 -0.31512307659E+02  0.31512307659E+02  0.00000000000E+00 0.  1.
         35    2    1    2    0    0  0.00000000000E+00  0.00000000000E+00  0.56784479693E+03  0.63086941225E+03  0.27486087737E+03 0.  0.
         25    1    3    3    0    0  0.47514593513E+02 -0.34779777074E+02  0.21062374988E+03  0.24945868096E+03  0.12000000000E+03 0.  0.
         25    1    3    3    0    0 -0.47514593513E+02  0.34779777074E+02  0.35722104705E+03  0.38141073129E+03  0.12000000000E+03 0.  0.
<mgrwt>
<rscale>  0 0.27486088E+03</rscale>
<asrwt>0</asrwt>
<pdfrwt beam="1">  1        2 0.92208777E-01 0.27486088E+03</pdfrwt>
<pdfrwt beam="2">  1       -2 0.48480478E-02 0.27486088E+03</pdfrwt>
<totfact> 0.10319403E+04</totfact>
</mgrwt>
</event>
<event>
 5    1  0.1111501E+001  0.2749378E+03  0.7818608E-02  0.1098486E+00
          1   -1    0    0  501    0  0.00000000000E+00  0.00000000000E+00  0.33206720494E+03  0.33206720494E+03  0.00000000000E+00 0. -1.
         -1   -1    0    0    0  501 -0.00000000000E+00 -0.00000000000E+00 -0.56909240027E+02  0.56909240027E+02  0.00000000000E+00 0. -1.
         35    2    1    2    0    0  0.00000000000E+00  0.00000000000E+00  0.27515796491E+03  0.38897644497E+03  0.27493775493E+03 0.  0.
         25    1    3    3    0    0 -0.61727555506E+02 -0.24931577667E+02  0.14905681631E+03  0.20260752494E+03  0.12000000000E+03 0.  0.
         25    1    3    3    0    0  0.61727555506E+02  0.24931577667E+02  0.12610114861E+03  0.18636892003E+03  0.12000000000E+03 0.  0.
<mgrwt>
<rscale>  0 0.27493775E+03</rscale>
<asrwt>0</asrwt>
<pdfrwt beam="1">  1        1 0.51087261E-01 0.27493775E+03</pdfrwt>
<pdfrwt beam="2">  1       -1 0.87552679E-02 0.27493775E+03</pdfrwt>
<totfact> 0.57304724E+03</totfact>
</mgrwt>
</event>
<event>
 5    1  0.1111501E+001  0.2750849E+03  0.7818608E-02  0.1098404E+00
          2   -1    0    0  501    0  0.00000000000E+00  0.00000000000E+00  0.13515468103E+04  0.13515468103E+04  0.00000000000E+00 0.  1.
         -2   -1    0    0    0  501 -0.00000000000E+00 -0.00000000000E+00 -0.13997241412E+02  0.13997241412E+02  0.00000000000E+00 0.  1.
         35    2    1    2    0    0  0.00000000000E+00  0.00000000000E+00  0.13375495689E+04  0.13655440517E+04  0.27508491040E+03 0.  0.
         25    1    3    3    0    0 -0.38406098772E+02 -0.52926251227E+02  0.59159799689E+03  0.60717740934E+03  0.12000000000E+03 0.  0.
         25    1    3    3    0    0  0.38406098772E+02  0.52926251227E+02  0.74595157196E+03  0.75836664233E+03  0.12000000000E+03 0.  0.
<mgrwt>
<rscale>  0 0.27508491E+03</rscale>
<asrwt>0</asrwt>
<pdfrwt beam="1">  1        2 0.20793018E+00 0.27508491E+03</pdfrwt>
<pdfrwt beam="2">  1       -2 0.21534228E-02 0.27508491E+03</pdfrwt>
<totfact> 0.11382525E+04</totfact>
</mgrwt>
</event>
<event>
 5    1  0.1111501E+001  0.2774931E+03  0.7818608E-02  0.1097066E+00
          2   -1    0    0  501    0  0.00000000000E+00  0.00000000000E+00  0.30130475950E+03  0.30130475950E+03  0.00000000000E+00 0.  1.
         -2   -1    0    0    0  501 -0.00000000000E+00 -0.00000000000E+00 -0.63890801643E+02  0.63890801643E+02  0.00000000000E+00 0.  1.
         35    2    1    2    0    0  0.00000000000E+00  0.00000000000E+00  0.23741395786E+03  0.36519556115E+03  0.27749308188E+03 0.  0.
         25    1    3    3    0    0 -0.35595726790E+02 -0.45250550982E+02  0.67129551493E+02  0.14906724930E+03  0.12000000000E+03 0.  0.
         25    1    3    3    0    0  0.35595726790E+02  0.45250550982E+02  0.17028440637E+03  0.21612831185E+03  0.12000000000E+03 0.  0.
<mgrwt>
<rscale>  0 0.27749308E+03</rscale>
<asrwt>0</asrwt>
<pdfrwt beam="1">  1        2 0.46354577E-01 0.27749308E+03</pdfrwt>
<pdfrwt beam="2">  1       -2 0.98293543E-02 0.27749308E+03</pdfrwt>
<totfact> 0.73714473E+03</totfact>
</mgrwt>
</event>
<event>
 5    1  0.1111501E+001  0.2747908E+03  0.7818608E-02  0.1098569E+00
          2   -1    0    0  501    0  0.00000000000E+00  0.00000000000E+00  0.82429675168E+03  0.82429675168E+03  0.00000000000E+00 0.  1.
         -2   -1    0    0    0  501 -0.00000000000E+00 -0.00000000000E+00 -0.22901338681E+02  0.22901338681E+02  0.00000000000E+00 0.  1.
         35    2    1    2    0    0  0.00000000000E+00  0.00000000000E+00  0.80139541300E+03  0.84719809036E+03  0.27479082287E+03 0.  0.
         25    1    3    3    0    0 -0.88425102709E+01 -0.28496394085E+02  0.21604126983E+03  0.24892582175E+03  0.12000000000E+03 0.  0.
         25    1    3    3    0    0  0.88425102709E+01  0.28496394085E+02  0.58535414317E+03  0.59827226861E+03  0.12000000000E+03 0.  0.
<mgrwt>
<rscale>  0 0.27479082E+03</rscale>
<asrwt>0</asrwt>
<pdfrwt beam="1">  1        2 0.12681486E+00 0.27479082E+03</pdfrwt>
<pdfrwt beam="2">  1       -2 0.35232835E-02 0.27479082E+03</pdfrwt>
<totfact> 0.11320760E+04</totfact>
</mgrwt>
</event>
<event>
 5    1  0.1111501E+001  0.2742499E+03  0.7818608E-02  0.1098872E+00
          2   -1    0    0  501    0  0.00000000000E+00  0.00000000000E+00  0.90930629165E+03  0.90930629165E+03  0.00000000000E+00 0. -1.
         -2   -1    0    0    0  501 -0.00000000000E+00 -0.00000000000E+00 -0.20678678603E+02  0.20678678603E+02  0.00000000000E+00 0. -1.
         35    2    1    2    0    0  0.00000000000E+00  0.00000000000E+00  0.88862761305E+03  0.92998497026E+03  0.27424990470E+03 0.  0.
         25    1    3    3    0    0  0.23935484811E+02 -0.38581140992E+01  0.65377467578E+03  0.66513842106E+03  0.12000000000E+03 0.  0.
         25    1    3    3    0    0 -0.23935484811E+02  0.38581140992E+01  0.23485293727E+03  0.26484654920E+03  0.12000000000E+03 0.  0.
<mgrwt>
<rscale>  0 0.27424990E+03</rscale>
<asrwt>0</asrwt>
<pdfrwt beam="1">  1        2 0.13989324E+00 0.27424990E+03</pdfrwt>
<pdfrwt beam="2">  1       -2 0.31813359E-02 0.27424990E+03</pdfrwt>
<totfact> 0.11587622E+04</totfact>
</mgrwt>
</event>
<event>
 5    1  0.1111501E+001  0.2749201E+03  0.7818608E-02  0.1098496E+00
         -2   -1    0    0    0  501 -0.00000000000E+00  0.00000000000E+00  0.46817686416E+02  0.46817686416E+02  0.00000000000E+00 0. -1.
          2   -1    0    0  501    0  0.00000000000E+00 -0.00000000000E+00 -0.40359253725E+03  0.40359253725E+03  0.00000000000E+00 0. -1.
         35    2    1    2    0    0  0.00000000000E+00  0.00000000000E+00 -0.35677485084E+03  0.45041022367E+03  0.27492012548E+03 0.  0.
         25    1    3    3    0    0 -0.53685386987E+02  0.33310926459E+02 -0.21515072558E+03  0.25432572287E+03  0.12000000000E+03 0.  0.
         25    1    3    3    0    0  0.53685386987E+02 -0.33310926459E+02 -0.14162412526E+03  0.19608450080E+03  0.12000000000E+03 0.  0.
<mgrwt>
<rscale>  0 0.27492013E+03</rscale>
<asrwt>0</asrwt>
<pdfrwt beam="1">  1        2 0.62091160E-01 0.27492013E+03</pdfrwt>
<pdfrwt beam="2">  1       -2 0.72027209E-02 0.27492013E+03</pdfrwt>
<totfact> 0.87521752E+03</totfact>
</mgrwt>
</event>
<event>
 5    1  0.1111501E+001  0.2748429E+03  0.7818608E-02  0.1098539E+00
         -2   -1    0    0    0  501 -0.00000000000E+00  0.00000000000E+00  0.59160041385E+02  0.59160041385E+02  0.00000000000E+00 0.  1.
          2   -1    0    0  501    0  0.00000000000E+00 -0.00000000000E+00 -0.31921306654E+03  0.31921306654E+03  0.00000000000E+00 0.  1.
         35    2    1    2    0    0  0.00000000000E+00  0.00000000000E+00 -0.26005302515E+03  0.37837310792E+03  0.27484292406E+03 0.  0.
         25    1    3    3    0    0 -0.31916960306E+01 -0.86108857535E+01 -0.38703963164E+02  0.12642124442E+03  0.12000000000E+03 0.  0.
         25    1    3    3    0    0  0.31916960306E+01  0.86108857535E+01 -0.22134906199E+03  0.25195186350E+03  0.12000000000E+03 0.  0.
<mgrwt>
<rscale>  0 0.27484292E+03</rscale>
<asrwt>0</asrwt>
<pdfrwt beam="1">  1        2 0.49109702E-01 0.27484292E+03</pdfrwt>
<pdfrwt beam="2">  1       -2 0.91015449E-02 0.27484292E+03</pdfrwt>
<totfact> 0.78214778E+03</totfact>
</mgrwt>
</event>
<event>
 5    1  0.1111501E+001  0.2747417E+03  0.7818608E-02  0.1098596E+00
         -2   -1    0    0    0  501 -0.00000000000E+00  0.00000000000E+00  0.19049896368E+02  0.19049896368E+02  0.00000000000E+00 0.  1.
          2   -1    0    0  501    0  0.00000000000E+00 -0.00000000000E+00 -0.99059599774E+03  0.99059599774E+03  0.00000000000E+00 0.  1.
         35    2    1    2    0    0  0.00000000000E+00  0.00000000000E+00 -0.97154610138E+03  0.10096458941E+04  0.27474170488E+03 0.  0.
         25    1    3    3    0    0 -0.40195491528E+00  0.60053544044E+02 -0.59380244004E+03  0.60877576128E+03  0.12000000000E+03 0.  0.
         25    1    3    3    0    0  0.40195491528E+00 -0.60053544044E+02 -0.37774366133E+03  0.40087013283E+03  0.12000000000E+03 0.  0.
<mgrwt>
<rscale>  0 0.27474170E+03</rscale>
<asrwt>0</asrwt>
<pdfrwt beam="1">  1        2 0.15239937E+00 0.27474170E+03</pdfrwt>
<pdfrwt beam="2">  1       -2 0.29307535E-02 0.27474170E+03</pdfrwt>
<totfact> 0.11641339E+04</totfact>
</mgrwt>
</event>
<event>
 5    1  0.1111501E+001  0.2747285E+03  0.7818608E-02  0.1098603E+00
         -2   -1    0    0    0  501 -0.00000000000E+00  0.00000000000E+00  0.68533433728E+02  0.68533433728E+02  0.00000000000E+00 0.  1.
          2   -1    0    0  501    0  0.00000000000E+00 -0.00000000000E+00 -0.27532465289E+03  0.27532465289E+03  0.00000000000E+00 0.  1.
         35    2    1    2    0    0  0.00000000000E+00  0.00000000000E+00 -0.20679121916E+03  0.34385808661E+03  0.27472854859E+03 0.  0.
         25    1    3    3    0    0  0.98150610312E+01 -0.47282449398E+02 -0.45535997505E+02  0.13713311968E+03  0.12000000000E+03 0.  0.
         25    1    3    3    0    0 -0.98150610312E+01  0.47282449398E+02 -0.16125522165E+03  0.20672496694E+03  0.12000000000E+03 0.  0.
<mgrwt>
<rscale>  0 0.27472855E+03</rscale>
<asrwt>0</asrwt>
<pdfrwt beam="1">  1        2 0.42357638E-01 0.27472855E+03</pdfrwt>
<pdfrwt beam="2">  1       -2 0.10543605E-01 0.27472855E+03</pdfrwt>
<totfact> 0.72613246E+03</totfact>
</mgrwt>
</event>
<event>
 5    1  0.1111501E+001  0.2760140E+03  0.7818608E-02  0.1097886E+00
         -1   -1    0    0    0  501 -0.00000000000E+00  0.00000000000E+00  0.83084221503E+01  0.83084221503E+01  0.00000000000E+00 0.  1.
          1   -1    0    0  501    0  0.00000000000E+00 -0.00000000000E+00 -0.22923649255E+04  0.22923649255E+04  0.00000000000E+00 0.  1.
         35    2    1    2    0    0  0.00000000000E+00  0.00000000000E+00 -0.22840565034E+04  0.23006733477E+04  0.27601402518E+03 0.  0.
         25    1    3    3    0    0 -0.37987030283E+02 -0.54638297351E+02 -0.12649788987E+04  0.12723992975E+04  0.12000000000E+03 0.  0.
         25    1    3    3    0    0  0.37987030283E+02  0.54638297351E+02 -0.10190776046E+04  0.10282740502E+04  0.12000000000E+03 0.  0.
<mgrwt>
<rscale>  0 0.27601403E+03</rscale>
<asrwt>0</asrwt>
<pdfrwt beam="1">  1        1 0.35267112E+00 0.27601403E+03</pdfrwt>
<pdfrwt beam="2">  1       -1 0.12782203E-02 0.27601403E+03</pdfrwt>
<totfact> 0.28647767E+03</totfact>
</mgrwt>
</event>
<event>
 5    1  0.1111501E+001  0.2752296E+03  0.7818608E-02  0.1098323E+00
          2   -1    0    0  501    0  0.00000000000E+00  0.00000000000E+00  0.18423045585E+04  0.18423045585E+04  0.00000000000E+00 0.  1.
         -2   -1    0    0    0  501 -0.00000000000E+00 -0.00000000000E+00 -0.10279428891E+02  0.10279428891E+02  0.00000000000E+00 0.  1.
         35    2    1    2    0    0  0.00000000000E+00  0.00000000000E+00  0.18320251296E+04  0.18525839874E+04  0.27522964015E+03 0.  0.
         25    1    3    3    0    0 -0.36490008882E+02 -0.36945602228E+02  0.12048475183E+04  0.12119216314E+04  0.12000000000E+03 0.  0.
         25    1    3    3    0    0  0.36490008882E+02  0.36945602228E+02  0.62717761128E+03  0.64066235597E+03  0.12000000000E+03 0.  0.
<mgrwt>
<rscale>  0 0.27522964E+03</rscale>
<asrwt>0</asrwt>
<pdfrwt beam="1">  1        2 0.28343121E+00 0.27522964E+03</pdfrwt>
<pdfrwt beam="2">  1       -2 0.15814521E-02 0.27522964E+03</pdfrwt>
<totfact> 0.98176193E+03</totfact>
</mgrwt>
</event>
<event>
 5    1  0.1111501E+001  0.2744549E+03  0.7818608E-02  0.1098757E+00
         -2   -1    0    0    0  501 -0.00000000000E+00  0.00000000000E+00  0.57502038138E+02  0.57502038138E+02  0.00000000000E+00 0.  1.
          2   -1    0    0  501    0  0.00000000000E+00 -0.00000000000E+00 -0.32749053072E+03  0.32749053072E+03  0.00000000000E+00 0.  1.
         35    2    1    2    0    0  0.00000000000E+00  0.00000000000E+00 -0.26998849259E+03  0.38499256886E+03  0.27445489966E+03 0.  0.
         25    1    3    3    0    0 -0.25600447642E+02  0.61219076342E+02 -0.14244533162E+03  0.19772159904E+03  0.12000000000E+03 0.  0.
         25    1    3    3    0    0  0.25600447642E+02 -0.61219076342E+02 -0.12754316097E+03  0.18727096982E+03  0.12000000000E+03 0.  0.
<mgrwt>
<rscale>  0 0.27445490E+03</rscale>
<asrwt>0</asrwt>
<pdfrwt beam="1">  1        2 0.50383159E-01 0.27445490E+03</pdfrwt>
<pdfrwt beam="2">  1       -2 0.88464673E-02 0.27445490E+03</pdfrwt>
<totfact> 0.79570106E+03</totfact>
</mgrwt>
</event>
<event>
 5    1  0.1111501E+001  0.2829730E+03  0.7818608E-02  0.1094076E+00
         -2   -1    0    0    0  501 -0.00000000000E+00  0.00000000000E+00  0.20505579048E+02  0.20505579048E+02  0.00000000000E+00 0.  1.
          2   -1    0    0  501    0  0.00000000000E+00 -0.00000000000E+00 -0.97624274605E+03  0.97624274605E+03  0.00000000000E+00 0.  1.
         35    2    1    2    0    0  0.00000000000E+00  0.00000000000E+00 -0.95573716700E+03  0.99674832509E+03  0.28297295135E+03 0.  0.
         25    1    3    3    0    0  0.42349510168E+01 -0.25432065459E+02 -0.22995212752E+03  0.26065821628E+03  0.12000000000E+03 0.  0.
         25    1    3    3    0    0 -0.42349510168E+01  0.25432065459E+02 -0.72578503947E+03  0.73609010881E+03  0.12000000000E+03 0.  0.
<mgrwt>
<rscale>  0 0.28297295E+03</rscale>
<asrwt>0</asrwt>
<pdfrwt beam="1">  1        2 0.15019118E+00 0.28297295E+03</pdfrwt>
<pdfrwt beam="2">  1       -2 0.31547047E-02 0.28297295E+03</pdfrwt>
<totfact> 0.10656789E+04</totfact>
</mgrwt>
</event>
<event>
 5    1  0.1111501E+001  0.2749930E+03  0.7818608E-02  0.1098456E+00
          2   -1    0    0  501    0  0.00000000000E+00  0.00000000000E+00  0.17392162402E+04  0.17392162402E+04  0.00000000000E+00 0.  1.
         -2   -1    0    0    0  501 -0.00000000000E+00 -0.00000000000E+00 -0.10870004299E+02  0.10870004299E+02  0.00000000000E+00 0.  1.
         35    2    1    2    0    0  0.00000000000E+00  0.00000000000E+00  0.17283462359E+04  0.17500862445E+04  0.27499300360E+03 0.  0.
         25    1    3    3    0    0  0.35102901924E+02 -0.55468722820E+02  0.95333772628E+03  0.96310010554E+03  0.12000000000E+03 0.  0.
         25    1    3    3    0    0 -0.35102901924E+02  0.55468722820E+02  0.77500850963E+03  0.78698613897E+03  0.12000000000E+03 0.  0.
<mgrwt>
<rscale>  0 0.27499300E+03</rscale>
<asrwt>0</asrwt>
<pdfrwt beam="1">  1        2 0.26757151E+00 0.27499300E+03</pdfrwt>
<pdfrwt beam="2">  1       -2 0.16723097E-02 0.27499300E+03</pdfrwt>
<totfact> 0.10247124E+04</totfact>
</mgrwt>
</event>
<event>
 5    1  0.1111501E+001  0.2747863E+03  0.7818608E-02  0.1098571E+00
          1   -1    0    0  501    0  0.00000000000E+00  0.00000000000E+00  0.57991901311E+02  0.57991901311E+02  0.00000000000E+00 0. -1.
         -1   -1    0    0    0  501 -0.00000000000E+00 -0.00000000000E+00 -0.32550881822E+03  0.32550881822E+03  0.00000000000E+00 0. -1.
         35    2    1    2    0    0  0.00000000000E+00  0.00000000000E+00 -0.26751691691E+03  0.38350071953E+03  0.27478628250E+03 0.  0.
         25    1    3    3    0    0  0.47514445547E+02 -0.37380987600E+02 -0.93746993418E+02  0.16383973738E+03  0.12000000000E+03 0.  0.
         25    1    3    3    0    0 -0.47514445547E+02  0.37380987600E+02 -0.17376992349E+03  0.21966098215E+03  0.12000000000E+03 0.  0.
<mgrwt>
<rscale>  0 0.27478628E+03</rscale>
<asrwt>0</asrwt>
<pdfrwt beam="1">  1        1 0.89218307E-02 0.27478628E+03</pdfrwt>
<pdfrwt beam="2">  1       -1 0.50078281E-01 0.27478628E+03</pdfrwt>
<totfact> 0.30572647E+03</totfact>
</mgrwt>
</event>
<event>
 5    1  0.1111501E+001  0.2749174E+03  0.7818608E-02  0.1098498E+00
          1   -1    0    0  501    0  0.00000000000E+00  0.00000000000E+00  0.23821309894E+02  0.23821309894E+02  0.00000000000E+00 0.  1.
         -1   -1    0    0    0  501 -0.00000000000E+00 -0.00000000000E+00 -0.79319289308E+03  0.79319289308E+03  0.00000000000E+00 0.  1.
         35    2    1    2    0    0  0.00000000000E+00  0.00000000000E+00 -0.76937158319E+03  0.81701420298E+03  0.27491739641E+03 0.  0.
         25    1    3    3    0    0 -0.45241011884E+01  0.15752704126E+02 -0.57788548906E+03  0.59044072831E+03  0.12000000000E+03 0.  0.
         25    1    3    3    0    0  0.45241011884E+01 -0.15752704126E+02 -0.19148609413E+03  0.22657347467E+03  0.12000000000E+03 0.  0.
<mgrwt>
<rscale>  0 0.27491740E+03</rscale>
<asrwt>0</asrwt>
<pdfrwt beam="1">  1        1 0.36648165E-02 0.27491740E+03</pdfrwt>
<pdfrwt beam="2">  1       -1 0.12202969E+00 0.27491740E+03</pdfrwt>
<totfact> 0.16322579E+03</totfact>
</mgrwt>
</event>
<event>
 5    1  0.1111501E+001  0.2843003E+03  0.7818608E-02  0.1093363E+00
          1   -1    0    0  501    0  0.00000000000E+00  0.00000000000E+00  0.38689389561E+03  0.38689389561E+03  0.00000000000E+00 0.  1.
         -1   -1    0    0    0  501 -0.00000000000E+00 -0.00000000000E+00 -0.52227916773E+02  0.52227916773E+02  0.00000000000E+00 0.  1.
         35    2    1    2    0    0  0.00000000000E+00  0.00000000000E+00  0.33466597884E+03  0.43912181238E+03  0.28430027914E+03 0.  0.
         25    1    3    3    0    0 -0.38914245647E+02  0.46076377038E+02  0.95393285207E+02  0.16473381528E+03  0.12000000000E+03 0.  0.
         25    1    3    3    0    0  0.38914245647E+02 -0.46076377038E+02  0.23927269363E+03  0.27438799710E+03  0.12000000000E+03 0.  0.
<mgrwt>
<rscale>  0 0.28430028E+03</rscale>
<asrwt>0</asrwt>
<pdfrwt beam="1">  1        1 0.59522136E-01 0.28430028E+03</pdfrwt>
<pdfrwt beam="2">  1       -1 0.80350644E-02 0.28430028E+03</pdfrwt>
<totfact> 0.53872141E+03</totfact>
</mgrwt>
</event>
<event>
 5    1  0.1111501E+001  0.2751363E+03  0.7818608E-02  0.1098375E+00
          2   -1    0    0  501    0  0.00000000000E+00  0.00000000000E+00  0.88316563441E+02  0.88316563441E+02  0.00000000000E+00 0.  1.
         -2   -1    0    0    0  501 -0.00000000000E+00 -0.00000000000E+00 -0.21428595237E+03  0.21428595237E+03  0.00000000000E+00 0.  1.
         35    2    1    2    0    0  0.00000000000E+00  0.00000000000E+00 -0.12596938893E+03  0.30260251581E+03  0.27513632190E+03 0.  0.
         25    1    3    3    0    0  0.15554160881E+02  0.23533931583E+02  0.41788597927E+01  0.12334196660E+03  0.12000000000E+03 0.  0.
         25    1    3    3    0    0 -0.15554160881E+02 -0.23533931583E+02 -0.13014824872E+03  0.17926054920E+03  0.12000000000E+03 0.  0.
<mgrwt>
<rscale>  0 0.27513632E+03</rscale>
<asrwt>0</asrwt>
<pdfrwt beam="1">  1        2 0.13587164E-01 0.27513632E+03</pdfrwt>
<pdfrwt beam="2">  1       -2 0.32967069E-01 0.27513632E+03</pdfrwt>
<totfact> 0.37526493E+03</totfact>
</mgrwt>
</event>
<event>
 5    1  0.1111501E+001  0.2758558E+03  0.7818608E-02  0.1097974E+00
         -2   -1    0    0    0  501 -0.00000000000E+00  0.00000000000E+00  0.41703084016E+02  0.41703084016E+02  0.00000000000E+00 0.  1.
          2   -1    0    0  501    0  0.00000000000E+00 -0.00000000000E+00 -0.45617972297E+03  0.45617972297E+03  0.00000000000E+00 0.  1.
         35    2    1    2    0    0  0.00000000000E+00  0.00000000000E+00 -0.41447663895E+03  0.49788280698E+03  0.27585576893E+03 0.  0.
         25    1    3    3    0    0 -0.63349879136E+02 -0.24597009596E+02 -0.21161535141E+03  0.25258518765E+03  0.12000000000E+03 0.  0.
         25    1    3    3    0    0  0.63349879136E+02  0.24597009596E+02 -0.20286128754E+03  0.24529761933E+03  0.12000000000E+03 0.  0.
<mgrwt>
<rscale>  0 0.27585577E+03</rscale>
<asrwt>0</asrwt>
<pdfrwt beam="1">  1        2 0.70181496E-01 0.27585577E+03</pdfrwt>
<pdfrwt beam="2">  1       -2 0.64158591E-02 0.27585577E+03</pdfrwt>
<totfact> 0.91536130E+03</totfact>
</mgrwt>
</event>
<event>
 5    1  0.1111501E+001  0.2753420E+03  0.7818608E-02  0.1098261E+00
          2   -1    0    0  501    0  0.00000000000E+00  0.00000000000E+00  0.10204472414E+04  0.10204472414E+04  0.00000000000E+00 0.  1.
         -2   -1    0    0    0  501 -0.00000000000E+00 -0.00000000000E+00 -0.18573522024E+02  0.18573522024E+02  0.00000000000E+00 0.  1.
         35    2    1    2    0    0  0.00000000000E+00  0.00000000000E+00  0.10018737193E+04  0.10390207634E+04  0.27534196419E+03 0.  0.
         25    1    3    3    0    0 -0.20133501202E+01  0.58860558681E+02  0.37665644049E+03  0.39967323291E+03  0.12000000000E+03 0.  0.
         25    1    3    3    0    0  0.20133501202E+01 -0.58860558681E+02  0.62521727885E+03  0.63934753047E+03  0.12000000000E+03 0.  0.
<mgrwt>
<rscale>  0 0.27534196E+03</rscale>
<asrwt>0</asrwt>
<pdfrwt beam="1">  1        2 0.15699184E+00 0.27534196E+03</pdfrwt>
<pdfrwt beam="2">  1       -2 0.28574657E-02 0.27534196E+03</pdfrwt>
<totfact> 0.11591543E+04</totfact>
</mgrwt>
</event>
<event>
 5    1  0.1111501E+001  0.2764330E+03  0.7818608E-02  0.1097653E+00
         -2   -1    0    0    0  501 -0.00000000000E+00  0.00000000000E+00  0.32823529353E+02  0.32823529353E+02  0.00000000000E+00 0. -1.
          2   -1    0    0  501    0  0.00000000000E+00 -0.00000000000E+00 -0.58201536301E+03  0.58201536301E+03  0.00000000000E+00 0. -1.
         35    2    1    2    0    0  0.00000000000E+00  0.00000000000E+00 -0.54919183366E+03  0.61483889236E+03  0.27643298176E+03 0.  0.
         25    1    3    3    0    0 -0.36079484096E+02 -0.56718444505E+02 -0.24433655927E+03  0.28039091518E+03  0.12000000000E+03 0.  0.
         25    1    3    3    0    0  0.36079484096E+02  0.56718444505E+02 -0.30485527439E+03  0.33444797718E+03  0.12000000000E+03 0.  0.
<mgrwt>
<rscale>  0 0.27643298E+03</rscale>
<asrwt>0</asrwt>
<pdfrwt beam="1">  1        2 0.89540820E-01 0.27643298E+03</pdfrwt>
<pdfrwt beam="2">  1       -2 0.50497741E-02 0.27643298E+03</pdfrwt>
<totfact> 0.10037141E+04</totfact>
</mgrwt>
</event>
<event>
 5    1  0.1111501E+001  0.2746569E+03  0.7818608E-02  0.1098644E+00
          2   -1    0    0  501    0  0.00000000000E+00  0.00000000000E+00  0.19257256363E+04  0.19257256363E+04  0.00000000000E+00 0. -1.
         -2   -1    0    0    0  501 -0.00000000000E+00 -0.00000000000E+00 -0.97932461072E+01  0.97932461072E+01  0.00000000000E+00 0. -1.
         35    2    1    2    0    0  0.00000000000E+00  0.00000000000E+00  0.19159323902E+04  0.19355188824E+04  0.27465691392E+03 0.  0.
         25    1    3    3    0    0 -0.47426480309E+02  0.34255255040E+02  0.73109832147E+03  0.74318735806E+03  0.12000000000E+03 0.  0.
         25    1    3    3    0    0  0.47426480309E+02 -0.34255255040E+02  0.11848340687E+04  0.11923315243E+04  0.12000000000E+03 0.  0.
<mgrwt>
<rscale>  0 0.27465691E+03</rscale>
<asrwt>0</asrwt>
<pdfrwt beam="1">  1        2 0.29626518E+00 0.27465691E+03</pdfrwt>
<pdfrwt beam="2">  1       -2 0.15066548E-02 0.27465691E+03</pdfrwt>
<totfact> 0.95280771E+03</totfact>
</mgrwt>
</event>
<event>
 5    1  0.1111501E+001  0.2750585E+03  0.7818608E-02  0.1098419E+00
         -3   -1    0    0    0  501 -0.00000000000E+00  0.00000000000E+00  0.19613230396E+04  0.19613230396E+04  0.00000000000E+00 0. -1.
          3   -1    0    0  501    0  0.00000000000E+00 -0.00000000000E+00 -0.96436414225E+01  0.96436414225E+01  0.00000000000E+00 0. -1.
         35    2    1    2    0    0  0.00000000000E+00  0.00000000000E+00  0.19516793982E+04  0.19709666811E+04  0.27505851093E+03 0.  0.
         25    1    3    3    0    0  0.64928297344E+02  0.58459388968E+01  0.85931565182E+03  0.87009956227E+03  0.12000000000E+03 0.  0.
         25    1    3    3    0    0 -0.64928297344E+02 -0.58459388968E+01  0.10923637464E+04  0.11008671188E+04  0.12000000000E+03 0.  0.
<mgrwt>
<rscale>  0 0.27505851E+03</rscale>
<asrwt>0</asrwt>
<pdfrwt beam="1">  1        3 0.14836387E-02 0.27505851E+03</pdfrwt>
<pdfrwt beam="2">  1       -3 0.30174169E+00 0.27505851E+03</pdfrwt>
<totfact> 0.16333243E+02</totfact>
</mgrwt>
</event>
<event>
 5    1  0.1111501E+001  0.2750235E+03  0.7818608E-02  0.1098438E+00
         -2   -1    0    0    0  501 -0.00000000000E+00  0.00000000000E+00  0.29524220026E+02  0.29524220026E+02  0.00000000000E+00 0. -1.
          2   -1    0    0  501    0  0.00000000000E+00 -0.00000000000E+00 -0.64047376118E+03  0.64047376118E+03  0.00000000000E+00 0. -1.
         35    2    1    2    0    0  0.00000000000E+00  0.00000000000E+00 -0.61094954115E+03  0.66999798120E+03  0.27502354987E+03 0.  0.
         25    1    3    3    0    0  0.44905361140E+02  0.49615602330E+02 -0.29184784107E+03  0.32257303327E+03  0.12000000000E+03 0.  0.
         25    1    3    3    0    0 -0.44905361140E+02 -0.49615602330E+02 -0.31910170008E+03  0.34742494793E+03  0.12000000000E+03 0.  0.
<mgrwt>
<rscale>  0 0.27502355E+03</rscale>
<asrwt>0</asrwt>
<pdfrwt beam="1">  1        2 0.98534420E-01 0.27502355E+03</pdfrwt>
<pdfrwt beam="2">  1       -2 0.45421879E-02 0.27502355E+03</pdfrwt>
<totfact> 0.10538859E+04</totfact>
</mgrwt>
</event>
<event>
 5    1  0.1111501E+001  0.2748667E+03  0.7818608E-02  0.1098526E+00
         -3   -1    0    0    0  501 -0.00000000000E+00  0.00000000000E+00  0.14801976760E+04  0.14801976760E+04  0.00000000000E+00 0.  1.
          3   -1    0    0  501    0  0.00000000000E+00 -0.00000000000E+00 -0.12760411917E+02  0.12760411917E+02  0.00000000000E+00 0.  1.
         35    2    1    2    0    0  0.00000000000E+00  0.00000000000E+00  0.14674372640E+04  0.14929580879E+04  0.27486674636E+03 0.  0.
         25    1    3    3    0    0  0.16569141159E+02  0.27373902152E+02  0.41403644541E+03  0.43226154708E+03  0.12000000000E+03 0.  0.
         25    1    3    3    0    0 -0.16569141159E+02 -0.27373902152E+02  0.10534008186E+04  0.10606965408E+04  0.12000000000E+03 0.  0.
<mgrwt>
<rscale>  0 0.27486675E+03</rscale>
<asrwt>0</asrwt>
<pdfrwt beam="1">  1        3 0.19631415E-02 0.27486675E+03</pdfrwt>
<pdfrwt beam="2">  1       -3 0.22772258E+00 0.27486675E+03</pdfrwt>
<totfact> 0.27153672E+02</totfact>
</mgrwt>
</event>
<event>
 5    1  0.1111501E+001  0.2751563E+03  0.7818608E-02  0.1098364E+00
          2   -1    0    0  501    0  0.00000000000E+00  0.00000000000E+00  0.35639059280E+02  0.35639059280E+02  0.00000000000E+00 0.  1.
         -2   -1    0    0    0  501 -0.00000000000E+00 -0.00000000000E+00 -0.53109564338E+03  0.53109564338E+03  0.00000000000E+00 0.  1.
         35    2    1    2    0    0  0.00000000000E+00  0.00000000000E+00 -0.49545658410E+03  0.56673470266E+03  0.27515631279E+03 0.  0.
         25    1    3    3    0    0  0.45801756143E+02  0.33556041197E+02 -0.32210367036E+03  0.34838855209E+03  0.12000000000E+03 0.  0.
         25    1    3    3    0    0 -0.45801756143E+02 -0.33556041197E+02 -0.17335291373E+03  0.21834615056E+03  0.12000000000E+03 0.  0.
<mgrwt>
<rscale>  0 0.27515631E+03</rscale>
<asrwt>0</asrwt>
<pdfrwt beam="1">  1        2 0.54829322E-02 0.27515631E+03</pdfrwt>
<pdfrwt beam="2">  1       -2 0.81707023E-01 0.27515631E+03</pdfrwt>
<totfact> 0.18874300E+03</totfact>
</mgrwt>
</event>
<event>
 5    1  0.1111501E+001  0.2763683E+03  0.7818608E-02  0.1097689E+00
          1   -1    0    0  501    0  0.00000000000E+00  0.00000000000E+00  0.41315902853E+03  0.41315902853E+03  0.00000000000E+00 0.  1.
         -1   -1    0    0    0  501 -0.00000000000E+00 -0.00000000000E+00 -0.46216735765E+02  0.46216735765E+02  0.00000000000E+00 0.  1.
         35    2    1    2    0    0  0.00000000000E+00  0.00000000000E+00  0.36694229277E+03  0.45937576430E+03  0.27636831693E+03 0.  0.
         25    1    3    3    0    0  0.22517266079E+02  0.18183405313E+01  0.75947727448E+02  0.14379982941E+03  0.12000000000E+03 0.  0.
         25    1    3    3    0    0 -0.22517266079E+02 -0.18183405313E+01  0.29099456532E+03  0.31557593489E+03  0.12000000000E+03 0.  0.
<mgrwt>
<rscale>  0 0.27636832E+03</rscale>
<asrwt>0</asrwt>
<pdfrwt beam="1">  1        1 0.63562925E-01 0.27636832E+03</pdfrwt>
<pdfrwt beam="2">  1       -1 0.71102673E-02 0.27636832E+03</pdfrwt>
<totfact> 0.59610224E+03</totfact>
</mgrwt>
</event>
<event>
 5    1  0.1111501E+001  0.2737510E+03  0.7818608E-02  0.1099152E+00
         -1   -1    0    0    0  501 -0.00000000000E+00  0.00000000000E+00  0.19432830620E+02  0.19432830620E+02  0.00000000000E+00 0. -1.
          1   -1    0    0  501    0  0.00000000000E+00 -0.00000000000E+00 -0.96408487804E+03  0.96408487804E+03  0.00000000000E+00 0. -1.
         35    2    1    2    0    0  0.00000000000E+00  0.00000000000E+00 -0.94465204742E+03  0.98351770866E+03  0.27375096813E+03 0.  0.
         25    1    3    3    0    0  0.11599262650E+01  0.60994395109E+02 -0.38335665491E+03  0.40630528734E+03  0.12000000000E+03 0.  0.
         25    1    3    3    0    0 -0.11599262650E+01 -0.60994395109E+02 -0.56129539251E+03  0.57721242131E+03  0.12000000000E+03 0.  0.
<mgrwt>
<rscale>  0 0.27375097E+03</rscale>
<asrwt>0</asrwt>
<pdfrwt beam="1">  1        1 0.14832074E+00 0.27375097E+03</pdfrwt>
<pdfrwt beam="2">  1       -1 0.29896664E-02 0.27375097E+03</pdfrwt>
<totfact> 0.64489585E+03</totfact>
</mgrwt>
</event>
<event>
 5    1  0.1111501E+001  0.2744899E+03  0.7818608E-02  0.1098737E+00
         -2   -1    0    0    0  501 -0.00000000000E+00  0.00000000000E+00  0.13590922315E+02  0.13590922315E+02  0.00000000000E+00 0.  1.
          2   -1    0    0  501    0  0.00000000000E+00 -0.00000000000E+00 -0.13859380607E+04  0.13859380607E+04  0.00000000000E+00 0.  1.
         35    2    1    2    0    0  0.00000000000E+00  0.00000000000E+00 -0.13723471384E+04  0.13995289830E+04  0.27448990157E+03 0.  0.
         25    1    3    3    0    0  0.40250389973E+02 -0.76779330141E+01 -0.41845142035E+03  0.43724207911E+03  0.12000000000E+03 0.  0.
         25    1    3    3    0    0 -0.40250389973E+02  0.76779330141E+01 -0.95389571802E+03  0.96228690390E+03  0.12000000000E+03 0.  0.
<mgrwt>
<rscale>  0 0.27448990E+03</rscale>
<asrwt>0</asrwt>
<pdfrwt beam="1">  1        2 0.21322110E+00 0.27448990E+03</pdfrwt>
<pdfrwt beam="2">  1       -2 0.20909125E-02 0.27448990E+03</pdfrwt>
<totfact> 0.11383790E+04</totfact>
</mgrwt>
</event>
<event>
 5    1  0.1111501E+001  0.2742229E+03  0.7818608E-02  0.1098887E+00
          2   -1    0    0  501    0  0.00000000000E+00  0.00000000000E+00  0.27829420938E+04  0.27829420938E+04  0.00000000000E+00 0.  1.
         -2   -1    0    0    0  501 -0.00000000000E+00 -0.00000000000E+00 -0.67552778908E+01  0.67552778908E+01  0.00000000000E+00 0.  1.
         35    2    1    2    0    0  0.00000000000E+00  0.00000000000E+00  0.27761868159E+04  0.27896973717E+04  0.27422288159E+03 0.  0.
         25    1    3    3    0    0  0.17593799124E+02  0.63092716355E+02  0.14944568625E+04  0.15006970202E+04  0.12000000000E+03 0.  0.
         25    1    3    3    0    0 -0.17593799124E+02 -0.63092716355E+02  0.12817299534E+04  0.12890003515E+04  0.12000000000E+03 0.  0.
<mgrwt>
<rscale>  0 0.27422288E+03</rscale>
<asrwt>0</asrwt>
<pdfrwt beam="1">  1        2 0.42814402E+00 0.27422288E+03</pdfrwt>
<pdfrwt beam="2">  1       -2 0.10392757E-02 0.27422288E+03</pdfrwt>
<totfact> 0.56173681E+03</totfact>
</mgrwt>
</event>
<event>
 5    1  0.1111501E+001  0.2739496E+03  0.7818608E-02  0.1099040E+00
          1   -1    0    0  501    0  0.00000000000E+00  0.00000000000E+00  0.69772479970E+03  0.69772479970E+03  0.00000000000E+00 0.  1.
         -1   -1    0    0    0  501 -0.00000000000E+00 -0.00000000000E+00 -0.26890404652E+02  0.26890404652E+02  0.00000000000E+00 0.  1.
         35    2    1    2    0    0  0.00000000000E+00  0.00000000000E+00  0.67083439505E+03  0.72461520435E+03  0.27394964647E+03 0.  0.
         25    1    3    3    0    0 -0.22855552306E+02  0.59587291772E+02  0.29044478738E+03  0.32067303617E+03  0.12000000000E+03 0.  0.
         25    1    3    3    0    0  0.22855552306E+02 -0.59587291772E+02  0.38038960767E+03  0.40394216818E+03  0.12000000000E+03 0.  0.
<mgrwt>
<rscale>  0 0.27394965E+03</rscale>
<asrwt>0</asrwt>
<pdfrwt beam="1">  1        1 0.10734226E+00 0.27394965E+03</pdfrwt>
<pdfrwt beam="2">  1       -1 0.41369859E-02 0.27394965E+03</pdfrwt>
<totfact> 0.66047233E+03</totfact>
</mgrwt>
</event>
<event>
 5    1  0.1111501E+001  0.2751827E+03  0.7818608E-02  0.1098350E+00
          2   -1    0    0  501    0  0.00000000000E+00  0.00000000000E+00  0.88799202248E+03  0.88799202248E+03  0.00000000000E+00 0. -1.
         -2   -1    0    0    0  501 -0.00000000000E+00 -0.00000000000E+00 -0.21319313815E+02  0.21319313815E+02  0.00000000000E+00 0. -1.
         35    2    1    2    0    0  0.00000000000E+00  0.00000000000E+00  0.86667270866E+03  0.90931133629E+03  0.27518270725E+03 0.  0.
         25    1    3    3    0    0  0.24565318862E+02  0.39766687528E+02  0.59340456924E+03  0.60721810507E+03  0.12000000000E+03 0.  0.
         25    1    3    3    0    0 -0.24565318862E+02 -0.39766687528E+02  0.27326813942E+03  0.30209323122E+03  0.12000000000E+03 0.  0.
<mgrwt>
<rscale>  0 0.27518271E+03</rscale>
<asrwt>0</asrwt>
<pdfrwt beam="1">  1        2 0.13661413E+00 0.27518271E+03</pdfrwt>
<pdfrwt beam="2">  1       -2 0.32798951E-02 0.27518271E+03</pdfrwt>
<totfact> 0.11430200E+04</totfact>
</mgrwt>
</event>
<event>
 5    1  0.1111501E+001  0.2749782E+03  0.7818608E-02  0.1098464E+00
         -2   -1    0    0    0  501 -0.00000000000E+00  0.00000000000E+00  0.63831950402E+02  0.63831950402E+02  0.00000000000E+00 0.  1.
          2   -1    0    0  501    0  0.00000000000E+00 -0.00000000000E+00 -0.29614087537E+03  0.29614087537E+03  0.00000000000E+00 0.  1.
         35    2    1    2    0    0  0.00000000000E+00  0.00000000000E+00 -0.23230892497E+03  0.35997282577E+03  0.27497817854E+03 0.  0.
         25    1    3    3    0    0  0.54558266456E+01 -0.44515523788E+02 -0.50806419168E+02  0.13781396929E+03  0.12000000000E+03 0.  0.
         25    1    3    3    0    0 -0.54558266456E+01  0.44515523788E+02 -0.18150250580E+03  0.22215885649E+03  0.12000000000E+03 0.  0.
<mgrwt>
<rscale>  0 0.27497818E+03</rscale>
<asrwt>0</asrwt>
<pdfrwt beam="1">  1        2 0.45560134E-01 0.27497818E+03</pdfrwt>
<pdfrwt beam="2">  1       -2 0.98203002E-02 0.27497818E+03</pdfrwt>
<totfact> 0.75181732E+03</totfact>
</mgrwt>
</event>
<event>
 5    1  0.1111501E+001  0.2749064E+03  0.7818608E-02  0.1098504E+00
          1   -1    0    0  501    0  0.00000000000E+00  0.00000000000E+00  0.49161685526E+02  0.49161685526E+02  0.00000000000E+00 0. -1.
         -1   -1    0    0    0  501 -0.00000000000E+00 -0.00000000000E+00 -0.38431104045E+03  0.38431104045E+03  0.00000000000E+00 0. -1.
         35    2    1    2    0    0  0.00000000000E+00  0.00000000000E+00 -0.33514935492E+03  0.43347272597E+03  0.27490637326E+03 0.  0.
         25    1    3    3    0    0  0.51531711576E+02 -0.12679349965E+02 -0.10300095249E+03  0.16680971023E+03  0.12000000000E+03 0.  0.
         25    1    3    3    0    0 -0.51531711576E+02  0.12679349965E+02 -0.23214840243E+03  0.26666301574E+03  0.12000000000E+03 0.  0.
<mgrwt>
<rscale>  0 0.27490637E+03</rscale>
<asrwt>0</asrwt>
<pdfrwt beam="1">  1        1 0.75633363E-02 0.27490637E+03</pdfrwt>
<pdfrwt beam="2">  1       -1 0.59124775E-01 0.27490637E+03</pdfrwt>
<totfact> 0.27990304E+03</totfact>
</mgrwt>
</event>
<event>
 5    1  0.1111501E+001  0.2759887E+03  0.7818608E-02  0.1097900E+00
         -3   -1    0    0    0  501 -0.00000000000E+00  0.00000000000E+00  0.16328590472E+04  0.16328590472E+04  0.00000000000E+00 0.  1.
          3   -1    0    0  501    0  0.00000000000E+00 -0.00000000000E+00 -0.11662020986E+02  0.11662020986E+02  0.00000000000E+00 0.  1.
         35    2    1    2    0    0  0.00000000000E+00  0.00000000000E+00  0.16211970262E+04  0.16445210682E+04  0.27598866988E+03 0.  0.
         25    1    3    3    0    0 -0.66828197115E+02  0.59183995034E+01  0.88145417686E+03  0.89211126060E+03  0.12000000000E+03 0.  0.
         25    1    3    3    0    0  0.66828197115E+02 -0.59183995034E+01  0.73974284933E+03  0.75240980757E+03  0.12000000000E+03 0.  0.
<mgrwt>
<rscale>  0 0.27598867E+03</rscale>
<asrwt>0</asrwt>
<pdfrwt beam="1">  1        3 0.17941584E-02 0.27598867E+03</pdfrwt>
<pdfrwt beam="2">  1       -3 0.25120890E+00 0.27598867E+03</pdfrwt>
<totfact> 0.22987167E+02</totfact>
</mgrwt>
</event>
<event>
 5    1  0.1111501E+001  0.2740908E+03  0.7818608E-02  0.1098961E+00
         -1   -1    0    0    0  501 -0.00000000000E+00  0.00000000000E+00  0.16057430853E+03  0.16057430853E+03  0.00000000000E+00 0. -1.
          1   -1    0    0  501    0  0.00000000000E+00 -0.00000000000E+00 -0.11696414360E+03  0.11696414360E+03  0.00000000000E+00 0. -1.
         35    2    1    2    0    0  0.00000000000E+00  0.00000000000E+00  0.43610164925E+02  0.27753845213E+03  0.27409076220E+03 0.  0.
         25    1    3    3    0    0  0.51281376423E+02  0.31796414031E+02 -0.57520359035E+01  0.13443912165E+03  0.12000000000E+03 0.  0.
         25    1    3    3    0    0 -0.51281376423E+02 -0.31796414031E+02  0.49362200829E+02  0.14309933048E+03  0.12000000000E+03 0.  0.
<mgrwt>
<rscale>  0 0.27409076E+03</rscale>
<asrwt>0</asrwt>
<pdfrwt beam="1">  1        1 0.17994484E-01 0.27409076E+03</pdfrwt>
<pdfrwt beam="2">  1       -1 0.24703740E-01 0.27409076E+03</pdfrwt>
<totfact> 0.41388514E+03</totfact>
</mgrwt>
</event>
<event>
 5    1  0.1111501E+001  0.2748949E+03  0.7818608E-02  0.1098510E+00
          2   -1    0    0  501    0  0.00000000000E+00  0.00000000000E+00  0.12807545525E+04  0.12807545525E+04  0.00000000000E+00 0.  1.
         -2   -1    0    0    0  501 -0.00000000000E+00 -0.00000000000E+00 -0.14750523747E+02  0.14750523747E+02  0.00000000000E+00 0.  1.
         35    2    1    2    0    0  0.00000000000E+00  0.00000000000E+00  0.12660040287E+04  0.12955050762E+04  0.27489489221E+03 0.  0.
         25    1    3    3    0    0  0.31228354473E+02 -0.47820611683E+02  0.46773504679E+03  0.48624900516E+03  0.12000000000E+03 0.  0.
         25    1    3    3    0    0 -0.31228354473E+02  0.47820611683E+02  0.79826898193E+03  0.80925607106E+03  0.12000000000E+03 0.  0.
<mgrwt>
<rscale>  0 0.27489489E+03</rscale>
<asrwt>0</asrwt>
<pdfrwt beam="1">  1        2 0.19703907E+00 0.27489489E+03</pdfrwt>
<pdfrwt beam="2">  1       -2 0.22693124E-02 0.27489489E+03</pdfrwt>
<totfact> 0.11527224E+04</totfact>
</mgrwt>
</event>
<event>
 5    1  0.1111501E+001  0.2759766E+03  0.7818608E-02  0.1097907E+00
         -3   -1    0    0    0  501 -0.00000000000E+00  0.00000000000E+00  0.11111315755E+03  0.11111315755E+03  0.00000000000E+00 0.  1.
          3   -1    0    0  501    0  0.00000000000E+00 -0.00000000000E+00 -0.17136376936E+03  0.17136376936E+03  0.00000000000E+00 0.  1.
         35    2    1    2    0    0  0.00000000000E+00  0.00000000000E+00 -0.60250611802E+02  0.28247692691E+03  0.27597658961E+03 0.  0.
         25    1    3    3    0    0 -0.67809065011E+02  0.14516691420E+01 -0.36646626886E+02  0.14262942159E+03  0.12000000000E+03 0.  0.
         25    1    3    3    0    0  0.67809065011E+02 -0.14516691420E+01 -0.23603984916E+02  0.13984750532E+03  0.12000000000E+03 0.  0.
<mgrwt>
<rscale>  0 0.27597659E+03</rscale>
<asrwt>0</asrwt>
<pdfrwt beam="1">  1        3 0.26363657E-01 0.27597659E+03</pdfrwt>
<pdfrwt beam="2">  1       -3 0.17094332E-01 0.27597659E+03</pdfrwt>
<totfact> 0.10263668E+03</totfact>
</mgrwt>
</event>
<event>
 5    1  0.1111501E+001  0.2753375E+03  0.7818608E-02  0.1098263E+00
          2   -1    0    0  501    0  0.00000000000E+00  0.00000000000E+00  0.23282991520E+04  0.23282991520E+04  0.00000000000E+00 0.  1.
         -2   -1    0    0    0  501 -0.00000000000E+00 -0.00000000000E+00 -0.81401415607E+01  0.81401415607E+01  0.00000000000E+00 0.  1.
         35    2    1    2    0    0  0.00000000000E+00  0.00000000000E+00  0.23201590105E+04  0.23364392936E+04  0.27533749976E+03 0.  0.
         25    1    3    3    0    0 -0.15977978051E+02 -0.44093234783E+02  0.15717183032E+04  0.15769901502E+04  0.12000000000E+03 0.  0.
         25    1    3    3    0    0  0.15977978051E+02  0.44093234783E+02  0.74844070724E+03  0.75944914339E+03  0.12000000000E+03 0.  0.
<mgrwt>
<rscale>  0 0.27533750E+03</rscale>
<asrwt>0</asrwt>
<pdfrwt beam="1">  1        2 0.35819934E+00 0.27533750E+03</pdfrwt>
<pdfrwt beam="2">  1       -2 0.12523313E-02 0.27533750E+03</pdfrwt>
<totfact> 0.76365203E+03</totfact>
</mgrwt>
</event>
<event>
 5    1  0.1111501E+001  0.2750885E+03  0.7818608E-02  0.1098402E+00
          2   -1    0    0  501    0  0.00000000000E+00  0.00000000000E+00  0.18398264792E+04  0.18398264792E+04  0.00000000000E+00 0. -1.
         -2   -1    0    0    0  501 -0.00000000000E+00 -0.00000000000E+00 -0.10282719474E+02  0.10282719474E+02  0.00000000000E+00 0. -1.
         35    2    1    2    0    0  0.00000000000E+00  0.00000000000E+00  0.18295437597E+04  0.18501091986E+04  0.27508849169E+03 0.  0.
         25    1    3    3    0    0 -0.14470394073E+02 -0.65105449920E+02  0.85837874524E+03  0.86928831937E+03  0.12000000000E+03 0.  0.
         25    1    3    3    0    0  0.14470394073E+02  0.65105449920E+02  0.97116501445E+03  0.98082087927E+03  0.12000000000E+03 0.  0.
<mgrwt>
<rscale>  0 0.27508849E+03</rscale>
<asrwt>0</asrwt>
<pdfrwt beam="1">  1        2 0.28304997E+00 0.27508849E+03</pdfrwt>
<pdfrwt beam="2">  1       -2 0.15819583E-02 0.27508849E+03</pdfrwt>
<totfact> 0.98423862E+03</totfact>
</mgrwt>
</event>
<event>
 5    1  0.1111501E+001  0.2760818E+03  0.7818608E-02  0.1097848E+00
          2   -1    0    0  501    0  0.00000000000E+00  0.00000000000E+00  0.14473607377E+04  0.14473607377E+04  0.00000000000E+00 0.  1.
         -2   -1    0    0    0  501 -0.00000000000E+00 -0.00000000000E+00 -0.13165541703E+02  0.13165541703E+02  0.00000000000E+00 0.  1.
         35    2    1    2    0    0  0.00000000000E+00  0.00000000000E+00  0.14341951960E+04  0.14605262794E+04  0.27608178607E+03 0.  0.
         25    1    3    3    0    0 -0.20558723422E+02  0.17134307609E+02  0.10491196700E+04  0.10562993551E+04  0.12000000000E+03 0.  0.
         25    1    3    3    0    0  0.20558723422E+02 -0.17134307609E+02  0.38507552594E+03  0.40422692424E+03  0.12000000000E+03 0.  0.
<mgrwt>
<rscale>  0 0.27608179E+03</rscale>
<asrwt>0</asrwt>
<pdfrwt beam="1">  1        2 0.22267076E+00 0.27608179E+03</pdfrwt>
<pdfrwt beam="2">  1       -2 0.20254691E-02 0.27608179E+03</pdfrwt>
<totfact> 0.11051204E+04</totfact>
</mgrwt>
</event>
<event>
 5    1  0.1111501E+001  0.2746889E+03  0.7818608E-02  0.1098626E+00
          1   -1    0    0  501    0  0.00000000000E+00  0.00000000000E+00  0.26607121487E+02  0.26607121487E+02  0.00000000000E+00 0. -1.
         -1   -1    0    0    0  501 -0.00000000000E+00 -0.00000000000E+00 -0.70896416351E+03  0.70896416351E+03  0.00000000000E+00 0. -1.
         35    2    1    2    0    0  0.00000000000E+00  0.00000000000E+00 -0.68235704202E+03  0.73557128500E+03  0.27468888313E+03 0.  0.
         25    1    3    3    0    0  0.43875424649E+02 -0.13952757972E+02 -0.21153806294E+03  0.24752390676E+03  0.12000000000E+03 0.  0.
         25    1    3    3    0    0 -0.43875424649E+02  0.13952757972E+02 -0.47081897908E+03  0.48804737824E+03  0.12000000000E+03 0.  0.
<mgrwt>
<rscale>  0 0.27468888E+03</rscale>
<asrwt>0</asrwt>
<pdfrwt beam="1">  1        1 0.40934043E-02 0.27468888E+03</pdfrwt>
<pdfrwt beam="2">  1       -1 0.10907138E+00 0.27468888E+03</pdfrwt>
<totfact> 0.18198044E+03</totfact>
</mgrwt>
</event>
<event>
 5    1  0.1111501E+001  0.2754523E+03  0.7818608E-02  0.1098199E+00
         -2   -1    0    0    0  501 -0.00000000000E+00  0.00000000000E+00  0.14877245685E+02  0.14877245685E+02  0.00000000000E+00 0. -1.
          2   -1    0    0  501    0  0.00000000000E+00 -0.00000000000E+00 -0.12750004173E+04  0.12750004173E+04  0.00000000000E+00 0. -1.
         35    2    1    2    0    0  0.00000000000E+00  0.00000000000E+00 -0.12601231716E+04  0.12898776630E+04  0.27545231498E+03 0.  0.
         25    1    3    3    0    0  0.39332691893E+02 -0.35860673094E+02 -0.43498388015E+03  0.45436111687E+03  0.12000000000E+03 0.  0.
         25    1    3    3    0    0 -0.39332691893E+02  0.35860673094E+02 -0.82513929145E+03  0.83551654611E+03  0.12000000000E+03 0.  0.
<mgrwt>
<rscale>  0 0.27545231E+03</rscale>
<asrwt>0</asrwt>
<pdfrwt beam="1">  1        2 0.19615400E+00 0.27545231E+03</pdfrwt>
<pdfrwt beam="2">  1       -2 0.22888060E-02 0.27545231E+03</pdfrwt>
<totfact> 0.11467435E+04</totfact>
</mgrwt>
</event>
<event>
 5    1  0.1111501E+001  0.2745103E+03  0.7818608E-02  0.1098726E+00
         -3   -1    0    0    0  501 -0.00000000000E+00  0.00000000000E+00  0.31196462350E+03  0.31196462350E+03  0.00000000000E+00 0.  1.
          3   -1    0    0  501    0  0.00000000000E+00 -0.00000000000E+00 -0.60388162365E+02  0.60388162365E+02  0.00000000000E+00 0.  1.
         35    2    1    2    0    0  0.00000000000E+00  0.00000000000E+00  0.25157646113E+03  0.37235278586E+03  0.27451025727E+03 0.  0.
         25    1    3    3    0    0  0.45178021511E+01  0.57451552967E+02  0.17113991297E+03  0.21681780666E+03  0.12000000000E+03 0.  0.
         25    1    3    3    0    0 -0.45178021511E+01 -0.57451552967E+02  0.80436548162E+02  0.15553497920E+03  0.12000000000E+03 0.  0.
<mgrwt>
<rscale>  0 0.27451026E+03</rscale>
<asrwt>0</asrwt>
<pdfrwt beam="1">  1        3 0.92904867E-02 0.27451026E+03</pdfrwt>
<pdfrwt beam="2">  1       -3 0.47994557E-01 0.27451026E+03</pdfrwt>
<totfact> 0.91911795E+02</totfact>
</mgrwt>
</event>
<event>
 5    1  0.1111501E+001  0.2766214E+03  0.7818608E-02  0.1097549E+00
         -1   -1    0    0    0  501 -0.00000000000E+00  0.00000000000E+00  0.69238485507E+02  0.69238485507E+02  0.00000000000E+00 0.  1.
          1   -1    0    0  501    0  0.00000000000E+00 -0.00000000000E+00 -0.27628930475E+03  0.27628930475E+03  0.00000000000E+00 0.  1.
         35    2    1    2    0    0  0.00000000000E+00  0.00000000000E+00 -0.20705081925E+03  0.34552779026E+03  0.27662142378E+03 0.  0.
         25    1    3    3    0    0 -0.97576431632E+01 -0.67752924697E+02 -0.95222641807E+02  0.16778862273E+03  0.12000000000E+03 0.  0.
         25    1    3    3    0    0  0.97576431632E+01  0.67752924697E+02 -0.11182817744E+03  0.17773916753E+03  0.12000000000E+03 0.  0.
<mgrwt>
<rscale>  0 0.27662142E+03</rscale>
<asrwt>0</asrwt>
<pdfrwt beam="1">  1        1 0.42506047E-01 0.27662142E+03</pdfrwt>
<pdfrwt beam="2">  1       -1 0.10652075E-01 0.27662142E+03</pdfrwt>
<totfact> 0.53384221E+03</totfact>
</mgrwt>
</event>
<event>
 5    1  0.1111501E+001  0.2761591E+03  0.7818608E-02  0.1097805E+00
          1   -1    0    0  501    0  0.00000000000E+00  0.00000000000E+00  0.16524164276E+03  0.16524164276E+03  0.00000000000E+00 0.  1.
         -1   -1    0    0    0  501 -0.00000000000E+00 -0.00000000000E+00 -0.11538229863E+03  0.11538229863E+03  0.00000000000E+00 0.  1.
         35    2    1    2    0    0  0.00000000000E+00  0.00000000000E+00  0.49859344133E+02  0.28062394139E+03  0.27615908872E+03 0.  0.
         25    1    3    3    0    0  0.35132751407E+02  0.53774981715E+02  0.48541125583E+02  0.14450709240E+03  0.12000000000E+03 0.  0.
         25    1    3    3    0    0 -0.35132751407E+02 -0.53774981715E+02  0.13182185496E+01  0.13611684899E+03  0.12000000000E+03 0.  0.
<mgrwt>
<rscale>  0 0.27615909E+03</rscale>
<asrwt>0</asrwt>
<pdfrwt beam="1">  1        1 0.25421791E-01 0.27615909E+03</pdfrwt>
<pdfrwt beam="2">  1       -1 0.17751123E-01 0.27615909E+03</pdfrwt>
<totfact> 0.45580695E+03</totfact>
</mgrwt>
</event>
<event>
 5    1  0.1111501E+001  0.2773095E+03  0.7818608E-02  0.1097168E+00
         -2   -1    0    0    0  501 -0.00000000000E+00  0.00000000000E+00  0.36854517119E+02  0.36854517119E+02  0.00000000000E+00 0. -1.
          2   -1    0    0  501    0  0.00000000000E+00 -0.00000000000E+00 -0.52164941653E+03  0.52164941653E+03  0.00000000000E+00 0. -1.
         35    2    1    2    0    0  0.00000000000E+00  0.00000000000E+00 -0.48479489941E+03  0.55850393365E+03  0.27730948308E+03 0.  0.
         25    1    3    3    0    0  0.60079779977E+02 -0.20318951126E+02 -0.29945820305E+03  0.32878207845E+03  0.12000000000E+03 0.  0.
         25    1    3    3    0    0 -0.60079779977E+02  0.20318951126E+02 -0.18533669636E+03  0.22972185519E+03  0.12000000000E+03 0.  0.
<mgrwt>
<rscale>  0 0.27730948E+03</rscale>
<asrwt>0</asrwt>
<pdfrwt beam="1">  1        2 0.80253756E-01 0.27730948E+03</pdfrwt>
<pdfrwt beam="2">  1       -2 0.56699257E-02 0.27730948E+03</pdfrwt>
<totfact> 0.95311283E+03</totfact>
</mgrwt>
</event>
<event>
 5    1  0.1111501E+001  0.2744938E+03  0.7818608E-02  0.1098735E+00
          1   -1    0    0  501    0  0.00000000000E+00  0.00000000000E+00  0.25337267874E+03  0.25337267874E+03  0.00000000000E+00 0. -1.
         -1   -1    0    0    0  501 -0.00000000000E+00 -0.00000000000E+00 -0.74343888168E+02  0.74343888168E+02  0.00000000000E+00 0. -1.
         35    2    1    2    0    0  0.00000000000E+00  0.00000000000E+00  0.17902879057E+03  0.32771656691E+03  0.27449378931E+03 0.  0.
         25    1    3    3    0    0  0.41333583608E+01  0.60801270173E+02  0.12161285961E+03  0.18139340321E+03  0.12000000000E+03 0.  0.
         25    1    3    3    0    0 -0.41333583608E+01 -0.60801270173E+02  0.57415930964E+02  0.14632316370E+03  0.12000000000E+03 0.  0.
<mgrwt>
<rscale>  0 0.27449379E+03</rscale>
<asrwt>0</asrwt>
<pdfrwt beam="1">  1        1 0.38980412E-01 0.27449379E+03</pdfrwt>
<pdfrwt beam="2">  1       -1 0.11437521E-01 0.27449379E+03</pdfrwt>
<totfact> 0.53267502E+03</totfact>
</mgrwt>
</event>
<event>
 5    1  0.1111501E+001  0.2748721E+03  0.7818608E-02  0.1098523E+00
         -2   -1    0    0    0  501 -0.00000000000E+00  0.00000000000E+00  0.10231921568E+03  0.10231921568E+03  0.00000000000E+00 0.  1.
          2   -1    0    0  501    0  0.00000000000E+00 -0.00000000000E+00 -0.18460530243E+03  0.18460530243E+03  0.00000000000E+00 0.  1.
         35    2    1    2    0    0  0.00000000000E+00  0.00000000000E+00 -0.82286086746E+02  0.28692451811E+03  0.27487211393E+03 0.  0.
         25    1    3    3    0    0 -0.62199968556E+02  0.98939116169E+01 -0.17295205655E+02  0.13662302044E+03  0.12000000000E+03 0.  0.
         25    1    3    3    0    0  0.62199968556E+02 -0.98939116169E+01 -0.64990881091E+02  0.15030149767E+03  0.12000000000E+03 0.  0.
<mgrwt>
<rscale>  0 0.27487211E+03</rscale>
<asrwt>0</asrwt>
<pdfrwt beam="1">  1        2 0.28400816E-01 0.27487211E+03</pdfrwt>
<pdfrwt beam="2">  1       -2 0.15741418E-01 0.27487211E+03</pdfrwt>
<totfact> 0.58427735E+03</totfact>
</mgrwt>
</event>
<event>
 5    1  0.1111501E+001  0.2747046E+03  0.7818608E-02  0.1098617E+00
          2   -1    0    0  501    0  0.00000000000E+00  0.00000000000E+00  0.42716819965E+03  0.42716819965E+03  0.00000000000E+00 0. -1.
         -2   -1    0    0    0  501 -0.00000000000E+00 -0.00000000000E+00 -0.44164470093E+02  0.44164470093E+02  0.00000000000E+00 0. -1.
         35    2    1    2    0    0  0.00000000000E+00  0.00000000000E+00  0.38300372955E+03  0.47133266974E+03  0.27470462084E+03 0.  0.
         25    1    3    3    0    0  0.46572709580E+02 -0.31933637214E+02  0.25281267882E+03  0.28548734654E+03  0.12000000000E+03 0.  0.
         25    1    3    3    0    0 -0.46572709580E+02  0.31933637214E+02  0.13019105073E+03  0.18584532320E+03  0.12000000000E+03 0.  0.
<mgrwt>
<rscale>  0 0.27470462E+03</rscale>
<asrwt>0</asrwt>
<pdfrwt beam="1">  1        2 0.65718182E-01 0.27470462E+03</pdfrwt>
<pdfrwt beam="2">  1       -2 0.67945342E-02 0.27470462E+03</pdfrwt>
<totfact> 0.90041158E+03</totfact>
</mgrwt>
</event>
<event>
 5    1  0.1111501E+001  0.2760068E+03  0.7818608E-02  0.1097890E+00
          1   -1    0    0  501    0  0.00000000000E+00  0.00000000000E+00  0.49147309473E+02  0.49147309473E+02  0.00000000000E+00 0. -1.
         -1   -1    0    0    0  501 -0.00000000000E+00 -0.00000000000E+00 -0.38750717968E+03  0.38750717968E+03  0.00000000000E+00 0. -1.
         35    2    1    2    0    0  0.00000000000E+00  0.00000000000E+00 -0.33835987020E+03  0.43665448915E+03  0.27600677733E+03 0.  0.
         25    1    3    3    0    0 -0.62876620967E+02  0.25861004883E+02 -0.17671322355E+03  0.22416472607E+03  0.12000000000E+03 0.  0.
         25    1    3    3    0    0  0.62876620967E+02 -0.25861004883E+02 -0.16164664665E+03  0.21248976308E+03  0.12000000000E+03 0.  0.
<mgrwt>
<rscale>  0 0.27600678E+03</rscale>
<asrwt>0</asrwt>
<pdfrwt beam="1">  1        1 0.75611245E-02 0.27600678E+03</pdfrwt>
<pdfrwt beam="2">  1       -1 0.59616490E-01 0.27600678E+03</pdfrwt>
<totfact> 0.27562514E+03</totfact>
</mgrwt>
</event>
<event>
 5    1  0.1111501E+001  0.2748369E+03  0.7818608E-02  0.1098543E+00
         -1   -1    0    0    0  501 -0.00000000000E+00  0.00000000000E+00  0.98441023447E+01  0.98441023447E+01  0.00000000000E+00 0.  1.
          1   -1    0    0  501    0  0.00000000000E+00 -0.00000000000E+00 -0.19182881177E+04  0.19182881177E+04  0.00000000000E+00 0.  1.
         35    2    1    2    0    0  0.00000000000E+00  0.00000000000E+00 -0.19084440154E+04  0.19281322201E+04  0.27483685748E+03 0.  0.
         25    1    3    3    0    0 -0.41116434144E+02 -0.12265229498E+02 -0.59356344279E+03  0.60709023845E+03  0.12000000000E+03 0.  0.
         25    1    3    3    0    0  0.41116434144E+02  0.12265229498E+02 -0.13148805726E+04  0.13210419816E+04  0.12000000000E+03 0.  0.
<mgrwt>
<rscale>  0 0.27483686E+03</rscale>
<asrwt>0</asrwt>
<pdfrwt beam="1">  1        1 0.29512058E+00 0.27483686E+03</pdfrwt>
<pdfrwt beam="2">  1       -1 0.15144807E-02 0.27483686E+03</pdfrwt>
<totfact> 0.39236508E+03</totfact>
</mgrwt>
</event>
<event>
 5    1  0.1111501E+001  0.2817556E+03  0.7818608E-02  0.1094734E+00
          1   -1    0    0  501    0  0.00000000000E+00  0.00000000000E+00  0.43723546204E+03  0.43723546204E+03  0.00000000000E+00 0.  1.
         -1   -1    0    0    0  501 -0.00000000000E+00 -0.00000000000E+00 -0.45391008447E+02  0.45391008447E+02  0.00000000000E+00 0.  1.
         35    2    1    2    0    0  0.00000000000E+00  0.00000000000E+00  0.39184445359E+03  0.48262647049E+03  0.28175562852E+03 0.  0.
         25    1    3    3    0    0 -0.50182128770E+02  0.52540801435E+02  0.17373493244E+03  0.22329936994E+03  0.12000000000E+03 0.  0.
         25    1    3    3    0    0  0.50182128770E+02 -0.52540801435E+02  0.21810952115E+03  0.25932710055E+03  0.12000000000E+03 0.  0.
<mgrwt>
<rscale>  0 0.28175563E+03</rscale>
<asrwt>0</asrwt>
<pdfrwt beam="1">  1        1 0.67266991E-01 0.28175563E+03</pdfrwt>
<pdfrwt beam="2">  1       -1 0.69832324E-02 0.28175563E+03</pdfrwt>
<totfact> 0.56971037E+03</totfact>
</mgrwt>
</event>
<event>
 5    1  0.1111501E+001  0.2747564E+03  0.7818608E-02  0.1098588E+00
          3   -1    0    0  501    0  0.00000000000E+00  0.00000000000E+00  0.25553613709E+03  0.25553613709E+03  0.00000000000E+00 0.  1.
         -3   -1    0    0    0  501 -0.00000000000E+00 -0.00000000000E+00 -0.73855562161E+02  0.73855562161E+02  0.00000000000E+00 0.  1.
         35    2    1    2    0    0  0.00000000000E+00  0.00000000000E+00  0.18168057492E+03  0.32939169925E+03  0.27475636522E+03 0.  0.
         25    1    3    3    0    0 -0.42680959210E+02  0.44865565646E+02  0.60554623833E+02  0.14799137045E+03  0.12000000000E+03 0.  0.
         25    1    3    3    0    0  0.42680959210E+02 -0.44865565646E+02  0.12112595109E+03  0.18140032880E+03  0.12000000000E+03 0.  0.
<mgrwt>
<rscale>  0 0.27475637E+03</rscale>
<asrwt>0</asrwt>
<pdfrwt beam="1">  1        3 0.39313251E-01 0.27475637E+03</pdfrwt>
<pdfrwt beam="2">  1       -3 0.11362394E-01 0.27475637E+03</pdfrwt>
<totfact> 0.97309274E+02</totfact>
</mgrwt>
</event>
<event>
 5    1  0.1111501E+001  0.2761879E+03  0.7818608E-02  0.1097789E+00
          1   -1    0    0  501    0  0.00000000000E+00  0.00000000000E+00  0.15410939226E+04  0.15410939226E+04  0.00000000000E+00 0.  1.
         -1   -1    0    0    0  501 -0.00000000000E+00 -0.00000000000E+00 -0.12374283791E+02  0.12374283791E+02  0.00000000000E+00 0.  1.
         35    2    1    2    0    0  0.00000000000E+00  0.00000000000E+00  0.15287196388E+04  0.15534682064E+04  0.27618786031E+03 0.  0.
         25    1    3    3    0    0 -0.41283743461E+02  0.53448140600E+02  0.70566814451E+03  0.71897745541E+03  0.12000000000E+03 0.  0.
         25    1    3    3    0    0  0.41283743461E+02 -0.53448140600E+02  0.82305149429E+03  0.83449075097E+03  0.12000000000E+03 0.  0.
<mgrwt>
<rscale>  0 0.27618786E+03</rscale>
<asrwt>0</asrwt>
<pdfrwt beam="1">  1        1 0.23709122E+00 0.27618786E+03</pdfrwt>
<pdfrwt beam="2">  1       -1 0.19037372E-02 0.27618786E+03</pdfrwt>
<totfact> 0.49544396E+03</totfact>
</mgrwt>
</event>
<event>
 5    1  0.1111501E+001  0.2746563E+03  0.7818608E-02  0.1098644E+00
          2   -1    0    0  501    0  0.00000000000E+00  0.00000000000E+00  0.91497215933E+03  0.91497215933E+03  0.00000000000E+00 0. -1.
         -2   -1    0    0    0  501 -0.00000000000E+00 -0.00000000000E+00 -0.20611572738E+02  0.20611572738E+02  0.00000000000E+00 0. -1.
         35    2    1    2    0    0  0.00000000000E+00  0.00000000000E+00  0.89436058659E+03  0.93558373206E+03  0.27465625946E+03 0.  0.
         25    1    3    3    0    0  0.59939053564E+02 -0.26498263997E+02  0.49082546383E+03  0.50951396848E+03  0.12000000000E+03 0.  0.
         25    1    3    3    0    0 -0.59939053564E+02  0.26498263997E+02  0.40353512276E+03  0.42606976358E+03  0.12000000000E+03 0.  0.
<mgrwt>
<rscale>  0 0.27465626E+03</rscale>
<asrwt>0</asrwt>
<pdfrwt beam="1">  1        2 0.14076492E+00 0.27465626E+03</pdfrwt>
<pdfrwt beam="2">  1       -2 0.31710119E-02 0.27465626E+03</pdfrwt>
<totfact> 0.11547468E+04</totfact>
</mgrwt>
</event>
<event>
 5    1  0.1111501E+001  0.2755308E+03  0.7818608E-02  0.1098155E+00
          3   -1    0    0  501    0  0.00000000000E+00  0.00000000000E+00  0.39817639224E+03  0.39817639224E+03  0.00000000000E+00 0. -1.
         -3   -1    0    0    0  501 -0.00000000000E+00 -0.00000000000E+00 -0.47665585808E+02  0.47665585808E+02  0.00000000000E+00 0. -1.
         35    2    1    2    0    0  0.00000000000E+00  0.00000000000E+00  0.35051080643E+03  0.44584197804E+03  0.27553084031E+03 0.  0.
         25    1    3    3    0    0 -0.57598912167E+02  0.16819165854E+02  0.12463146370E+03  0.18312160104E+03  0.12000000000E+03 0.  0.
         25    1    3    3    0    0  0.57598912167E+02 -0.16819165854E+02  0.22587934273E+03  0.26272037700E+03  0.12000000000E+03 0.  0.
<mgrwt>
<rscale>  0 0.27553084E+03</rscale>
<asrwt>0</asrwt>
<pdfrwt beam="1">  1        3 0.61257904E-01 0.27553084E+03</pdfrwt>
<pdfrwt beam="2">  1       -3 0.73331673E-02 0.27553084E+03</pdfrwt>
<totfact> 0.82479777E+02</totfact>
</mgrwt>
</event>
<event>
 5    1  0.1111501E+001  0.2785006E+03  0.7818608E-02  0.1096511E+00
         -2   -1    0    0    0  501 -0.00000000000E+00  0.00000000000E+00  0.12578262565E+03  0.12578262565E+03  0.00000000000E+00 0.  1.
          2   -1    0    0  501    0  0.00000000000E+00 -0.00000000000E+00 -0.15415998295E+03  0.15415998295E+03  0.00000000000E+00 0.  1.
         35    2    1    2    0    0  0.00000000000E+00  0.00000000000E+00 -0.28377357301E+02  0.27994260860E+03  0.27850060988E+03 0.  0.
         25    1    3    3    0    0  0.42377670458E+02 -0.51918386569E+02 -0.36648533242E+02  0.14224802567E+03  0.12000000000E+03 0.  0.
         25    1    3    3    0    0 -0.42377670458E+02  0.51918386569E+02  0.82711759410E+01  0.13769458293E+03  0.12000000000E+03 0.  0.
<mgrwt>
<rscale>  0 0.27850061E+03</rscale>
<asrwt>0</asrwt>
<pdfrwt beam="1">  1        2 0.23716920E-01 0.27850061E+03</pdfrwt>
<pdfrwt beam="2">  1       -2 0.19351173E-01 0.27850061E+03</pdfrwt>
<totfact> 0.50489530E+03</totfact>
</mgrwt>
</event>
<event>
 5    1  0.1111501E+001  0.2765245E+03  0.7818608E-02  0.1097602E+00
         -2   -1    0    0    0  501 -0.00000000000E+00  0.00000000000E+00  0.62284323042E+01  0.62284323042E+01  0.00000000000E+00 0.  1.
          2   -1    0    0  501    0  0.00000000000E+00 -0.00000000000E+00 -0.30692229016E+04  0.30692229016E+04  0.00000000000E+00 0.  1.
         35    2    1    2    0    0  0.00000000000E+00  0.00000000000E+00 -0.30629944693E+04  0.30754513339E+04  0.27652448043E+03 0.  0.
         25    1    3    3    0    0  0.62296673128E+01  0.63808500116E+02 -0.12576853476E+04  0.12650228326E+04  0.12000000000E+03 0.  0.
         25    1    3    3    0    0 -0.62296673128E+01 -0.63808500116E+02 -0.18053091217E+04  0.18104285013E+04  0.12000000000E+03 0.  0.
<mgrwt>
<rscale>  0 0.27652448E+03</rscale>
<asrwt>0</asrwt>
<pdfrwt beam="1">  1        2 0.47218815E+00 0.27652448E+03</pdfrwt>
<pdfrwt beam="2">  1       -2 0.95822033E-03 0.27652448E+03</pdfrwt>
<totfact> 0.42971199E+03</totfact>
</mgrwt>
</event>
<event>
 5    1  0.1111501E+001  0.2740991E+03  0.7818608E-02  0.1098956E+00
          1   -1    0    0  501    0  0.00000000000E+00  0.00000000000E+00  0.16501530419E+03  0.16501530419E+03  0.00000000000E+00 0. -1.
         -1   -1    0    0    0  501 -0.00000000000E+00 -0.00000000000E+00 -0.11382324931E+03  0.11382324931E+03  0.00000000000E+00 0. -1.
         35    2    1    2    0    0  0.00000000000E+00  0.00000000000E+00  0.51192054886E+02  0.27883855350E+03  0.27409909236E+03 0.  0.
         25    1    3    3    0    0  0.49698666062E+02 -0.43678977773E+02  0.27817265831E+02  0.13982707458E+03  0.12000000000E+03 0.  0.
         25    1    3    3    0    0 -0.49698666062E+02  0.43678977773E+02  0.23374789055E+02  0.13901147892E+03  0.12000000000E+03 0.  0.
<mgrwt>
<rscale>  0 0.27409909E+03</rscale>
<asrwt>0</asrwt>
<pdfrwt beam="1">  1        1 0.25386970E-01 0.27409909E+03</pdfrwt>
<pdfrwt beam="2">  1       -1 0.17511269E-01 0.27409909E+03</pdfrwt>
<totfact> 0.46658560E+03</totfact>
</mgrwt>
</event>
<event>
 5    1  0.1111501E+001  0.2745703E+03  0.7818608E-02  0.1098692E+00
         -2   -1    0    0    0  501 -0.00000000000E+00  0.00000000000E+00  0.17801067383E+02  0.17801067383E+02  0.00000000000E+00 0. -1.
          2   -1    0    0  501    0  0.00000000000E+00 -0.00000000000E+00 -0.10587684504E+04  0.10587684504E+04  0.00000000000E+00 0. -1.
         35    2    1    2    0    0  0.00000000000E+00  0.00000000000E+00 -0.10409673830E+04  0.10765695178E+04  0.27457027172E+03 0.  0.
         25    1    3    3    0    0 -0.32596244619E+02 -0.36066645992E+02 -0.69947255220E+03  0.71135446115E+03  0.12000000000E+03 0.  0.
         25    1    3    3    0    0  0.32596244619E+02  0.36066645992E+02 -0.34149483081E+03  0.36521505663E+03  0.12000000000E+03 0.  0.
<mgrwt>
<rscale>  0 0.27457027E+03</rscale>
<asrwt>0</asrwt>
<pdfrwt beam="1">  1        2 0.16288752E+00 0.27457027E+03</pdfrwt>
<pdfrwt beam="2">  1       -2 0.27386246E-02 0.27457027E+03</pdfrwt>
<totfact> 0.11706699E+04</totfact>
</mgrwt>
</event>
<event>
 5    1  0.1111501E+001  0.2720128E+03  0.7818608E-02  0.1100133E+00
          2   -1    0    0  501    0  0.00000000000E+00  0.00000000000E+00  0.97247312079E+03  0.97247312079E+03  0.00000000000E+00 0. -1.
         -2   -1    0    0    0  501 -0.00000000000E+00 -0.00000000000E+00 -0.19021342285E+02  0.19021342285E+02  0.00000000000E+00 0. -1.
         35    2    1    2    0    0  0.00000000000E+00  0.00000000000E+00  0.95345177850E+03  0.99149446307E+03  0.27201282392E+03 0.  0.
         25    1    3    3    0    0  0.44925144395E+02 -0.55666513059E+01  0.64170069071E+03  0.65439210926E+03  0.12000000000E+03 0.  0.
         25    1    3    3    0    0 -0.44925144395E+02  0.55666513059E+01  0.31175108779E+03  0.33710235381E+03  0.12000000000E+03 0.  0.
<mgrwt>
<rscale>  0 0.27201282E+03</rscale>
<asrwt>0</asrwt>
<pdfrwt beam="1">  1        2 0.14961121E+00 0.27201282E+03</pdfrwt>
<pdfrwt beam="2">  1       -2 0.29263611E-02 0.27201282E+03</pdfrwt>
<totfact> 0.11968224E+04</totfact>
</mgrwt>
</event>
<event>
 5    1  0.1111501E+001  0.2746013E+03  0.7818608E-02  0.1098675E+00
         -2   -1    0    0    0  501 -0.00000000000E+00  0.00000000000E+00  0.44949244177E+03  0.44949244177E+03  0.00000000000E+00 0.  1.
          2   -1    0    0  501    0  0.00000000000E+00 -0.00000000000E+00 -0.41939460255E+02  0.41939460255E+02  0.00000000000E+00 0.  1.
         35    2    1    2    0    0  0.00000000000E+00  0.00000000000E+00  0.40755298151E+03  0.49143190202E+03  0.27460131388E+03 0.  0.
         25    1    3    3    0    0 -0.40338294889E+02 -0.21214977721E+02  0.29097738682E+03  0.31803316330E+03  0.12000000000E+03 0.  0.
         25    1    3    3    0    0  0.40338294889E+02  0.21214977721E+02  0.11657559469E+03  0.17339873872E+03  0.12000000000E+03 0.  0.
<mgrwt>
<rscale>  0 0.27460131E+03</rscale>
<asrwt>0</asrwt>
<pdfrwt beam="1">  1        2 0.64522250E-02 0.27460131E+03</pdfrwt>
<pdfrwt beam="2">  1       -2 0.69152680E-01 0.27460131E+03</pdfrwt>
<totfact> 0.21939967E+03</totfact>
</mgrwt>
</event>
<event>
 5    1  0.1111501E+001  0.2747485E+03  0.7818608E-02  0.1098592E+00
          4   -1    0    0  501    0  0.00000000000E+00  0.00000000000E+00  0.13869496615E+03  0.13869496615E+03  0.00000000000E+00 0. -1.
         -4   -1    0    0    0  501 -0.00000000000E+00 -0.00000000000E+00 -0.13606608542E+03  0.13606608542E+03  0.00000000000E+00 0. -1.
         35    2    1    2    0    0  0.00000000000E+00  0.00000000000E+00  0.26288807313E+01  0.27476105157E+03  0.27474847487E+03 0.  0.
         25    1    3    3    0    0 -0.33412118434E+02  0.55074561428E+02  0.19262521763E+02  0.13755225087E+03  0.12000000000E+03 0.  0.
         25    1    3    3    0    0  0.33412118434E+02 -0.55074561428E+02 -0.16633641032E+02  0.13720880070E+03  0.12000000000E+03 0.  0.
<mgrwt>
<rscale>  0 0.27474847E+03</rscale>
<asrwt>0</asrwt>
<pdfrwt beam="1">  1        4 0.21337687E-01 0.27474847E+03</pdfrwt>
<pdfrwt beam="2">  1       -4 0.20933244E-01 0.27474847E+03</pdfrwt>
<totfact> 0.78112471E+02</totfact>
</mgrwt>
</event>
<event>
 5    1  0.1111501E+001  0.2749974E+03  0.7818608E-02  0.1098453E+00
         -2   -1    0    0    0  501 -0.00000000000E+00  0.00000000000E+00  0.13038024851E+02  0.13038024851E+02  0.00000000000E+00 0. -1.
          2   -1    0    0  501    0  0.00000000000E+00 -0.00000000000E+00 -0.14500578948E+04  0.14500578948E+04  0.00000000000E+00 0. -1.
         35    2    1    2    0    0  0.00000000000E+00  0.00000000000E+00 -0.14370198700E+04  0.14630959197E+04  0.27499738812E+03 0.  0.
         25    1    3    3    0    0  0.49060876904E+02 -0.14507574302E+02 -0.48730497350E+03  0.50446365236E+03  0.12000000000E+03 0.  0.
         25    1    3    3    0    0 -0.49060876904E+02  0.14507574302E+02 -0.94971489645E+03  0.95863226730E+03  0.12000000000E+03 0.  0.
<mgrwt>
<rscale>  0 0.27499739E+03</rscale>
<asrwt>0</asrwt>
<pdfrwt beam="1">  1        2 0.22308577E+00 0.27499739E+03</pdfrwt>
<pdfrwt beam="2">  1       -2 0.20058505E-02 0.27499739E+03</pdfrwt>
<totfact> 0.11172213E+04</totfact>
</mgrwt>
</event>
<event>
 5    1  0.1111501E+001  0.2748805E+03  0.7818608E-02  0.1098518E+00
         -1   -1    0    0    0  501 -0.00000000000E+00  0.00000000000E+00  0.69609589643E+03  0.69609589643E+03  0.00000000000E+00 0.  1.
          1   -1    0    0  501    0  0.00000000000E+00 -0.00000000000E+00 -0.27136802649E+02  0.27136802649E+02  0.00000000000E+00 0.  1.
         35    2    1    2    0    0  0.00000000000E+00  0.00000000000E+00  0.66895909378E+03  0.72323269908E+03  0.27488046104E+03 0.  0.
         25    1    3    3    0    0 -0.19408394291E+02 -0.15204547861E+02  0.17054921623E+03  0.20998785489E+03  0.12000000000E+03 0.  0.
         25    1    3    3    0    0  0.19408394291E+02  0.15204547861E+02  0.49840987755E+03  0.51324484419E+03  0.12000000000E+03 0.  0.
<mgrwt>
<rscale>  0 0.27488046E+03</rscale>
<asrwt>0</asrwt>
<pdfrwt beam="1">  1        1 0.41748932E-02 0.27488046E+03</pdfrwt>
<pdfrwt beam="2">  1       -1 0.10709166E+00 0.27488046E+03</pdfrwt>
<totfact> 0.18463547E+03</totfact>
</mgrwt>
</event>
<event>
 5    1  0.1111501E+001  0.2744451E+03  0.7818608E-02  0.1098762E+00
          3   -1    0    0  501    0  0.00000000000E+00  0.00000000000E+00  0.43524336435E+03  0.43524336435E+03  0.00000000000E+00 0.  1.
         -3   -1    0    0    0  501 -0.00000000000E+00 -0.00000000000E+00 -0.43263232821E+02  0.43263232821E+02  0.00000000000E+00 0.  1.
         35    2    1    2    0    0  0.00000000000E+00  0.00000000000E+00  0.39198013153E+03  0.47850659717E+03  0.27444514939E+03 0.  0.
         25    1    3    3    0    0 -0.22736032229E+02 -0.60984057622E+02  0.17170204874E+03  0.21935718813E+03  0.12000000000E+03 0.  0.
         25    1    3    3    0    0  0.22736032229E+02  0.60984057622E+02  0.22027808279E+03  0.25914940904E+03  0.12000000000E+03 0.  0.
<mgrwt>
<rscale>  0 0.27444515E+03</rscale>
<asrwt>0</asrwt>
<pdfrwt beam="1">  1        3 0.66960515E-01 0.27444515E+03</pdfrwt>
<pdfrwt beam="2">  1       -3 0.66558823E-02 0.27444515E+03</pdfrwt>
<totfact> 0.80052551E+02</totfact>
</mgrwt>
</event>
<event>
 5    1  0.1111501E+001  0.2766382E+03  0.7818608E-02  0.1097539E+00
         -1   -1    0    0    0  501 -0.00000000000E+00  0.00000000000E+00  0.94194287473E+02  0.94194287473E+02  0.00000000000E+00 0. -1.
          1   -1    0    0  501    0  0.00000000000E+00 -0.00000000000E+00 -0.20311390658E+03  0.20311390658E+03  0.00000000000E+00 0. -1.
         35    2    1    2    0    0  0.00000000000E+00  0.00000000000E+00 -0.10891961911E+03  0.29730819406E+03  0.27663817312E+03 0.  0.
         25    1    3    3    0    0 -0.11139269836E+02  0.61096283959E+02 -0.22663201626E+02  0.13700532820E+03  0.12000000000E+03 0.  0.
         25    1    3    3    0    0  0.11139269836E+02 -0.61096283959E+02 -0.86256417486E+02  0.16030286586E+03  0.12000000000E+03 0.  0.
<mgrwt>
<rscale>  0 0.27663817E+03</rscale>
<asrwt>0</asrwt>
<pdfrwt beam="1">  1        1 0.31248293E-01 0.27663817E+03</pdfrwt>
<pdfrwt beam="2">  1       -1 0.14491429E-01 0.27663817E+03</pdfrwt>
<totfact> 0.48523236E+03</totfact>
</mgrwt>
</event>
<event>
 5    1  0.1111501E+001  0.2742755E+03  0.7818608E-02  0.1098857E+00
         -2   -1    0    0    0  501 -0.00000000000E+00  0.00000000000E+00  0.33688113526E+02  0.33688113526E+02  0.00000000000E+00 0.  1.
          2   -1    0    0  501    0  0.00000000000E+00 -0.00000000000E+00 -0.55826104362E+03  0.55826104362E+03  0.00000000000E+00 0.  1.
         35    2    1    2    0    0  0.00000000000E+00  0.00000000000E+00 -0.52457293009E+03  0.59194915715E+03  0.27427549227E+03 0.  0.
         25    1    3    3    0    0  0.22909711068E+02 -0.50301539491E+02 -0.34163362812E+03  0.36629037060E+03  0.12000000000E+03 0.  0.
         25    1    3    3    0    0 -0.22909711068E+02  0.50301539491E+02 -0.18293930198E+03  0.22565878654E+03  0.12000000000E+03 0.  0.
<mgrwt>
<rscale>  0 0.27427549E+03</rscale>
<asrwt>0</asrwt>
<pdfrwt beam="1">  1        2 0.85886307E-01 0.27427549E+03</pdfrwt>
<pdfrwt beam="2">  1       -2 0.51827871E-02 0.27427549E+03</pdfrwt>
<totfact> 0.10117417E+04</totfact>
</mgrwt>
</event>
<event>
 5    1  0.1111501E+001  0.2737909E+03  0.7818608E-02  0.1099129E+00
         -2   -1    0    0    0  501 -0.00000000000E+00  0.00000000000E+00  0.13421616484E+02  0.13421616484E+02  0.00000000000E+00 0.  1.
          2   -1    0    0  501    0  0.00000000000E+00 -0.00000000000E+00 -0.13962826163E+04  0.13962826163E+04  0.00000000000E+00 0.  1.
         35    2    1    2    0    0  0.00000000000E+00  0.00000000000E+00 -0.13828609999E+04  0.14097042328E+04  0.27379094053E+03 0.  0.
         25    1    3    3    0    0  0.36226884660E+02  0.41811603039E+01 -0.40892410550E+03  0.42772513759E+03  0.12000000000E+03 0.  0.
         25    1    3    3    0    0 -0.36226884660E+02 -0.41811603039E+01 -0.97393689436E+03  0.98197909523E+03  0.12000000000E+03 0.  0.
<mgrwt>
<rscale>  0 0.27379094E+03</rscale>
<asrwt>0</asrwt>
<pdfrwt beam="1">  1        2 0.21481263E+00 0.27379094E+03</pdfrwt>
<pdfrwt beam="2">  1       -2 0.20648649E-02 0.27379094E+03</pdfrwt>
<totfact> 0.11445965E+04</totfact>
</mgrwt>
</event>
<event>
 5    1  0.1111501E+001  0.2793199E+03  0.7818608E-02  0.1096061E+00
          2   -1    0    0  501    0  0.00000000000E+00  0.00000000000E+00  0.33940573823E+03  0.33940573823E+03  0.00000000000E+00 0. -1.
         -2   -1    0    0    0  501 -0.00000000000E+00 -0.00000000000E+00 -0.57467783022E+02  0.57467783022E+02  0.00000000000E+00 0. -1.
         35    2    1    2    0    0  0.00000000000E+00  0.00000000000E+00  0.28193795521E+03  0.39687352126E+03  0.27931985480E+03 0.  0.
         25    1    3    3    0    0 -0.13391994097E+02 -0.69756530761E+02  0.13000200316E+03  0.19064584945E+03  0.12000000000E+03 0.  0.
         25    1    3    3    0    0  0.13391994097E+02  0.69756530761E+02  0.15193595206E+03  0.20622767180E+03  0.12000000000E+03 0.  0.
<mgrwt>
<rscale>  0 0.27931985E+03</rscale>
<asrwt>0</asrwt>
<pdfrwt beam="1">  1        2 0.52216266E-01 0.27931985E+03</pdfrwt>
<pdfrwt beam="2">  1       -2 0.88411976E-02 0.27931985E+03</pdfrwt>
<totfact> 0.76687107E+03</totfact>
</mgrwt>
</event>
<event>
 5    1  0.1111501E+001  0.2748617E+03  0.7818608E-02  0.1098529E+00
         -1   -1    0    0    0  501 -0.00000000000E+00  0.00000000000E+00  0.53395887258E+02  0.53395887258E+02  0.00000000000E+00 0.  1.
          1   -1    0    0  501    0  0.00000000000E+00 -0.00000000000E+00 -0.35372080939E+03  0.35372080939E+03  0.00000000000E+00 0.  1.
         35    2    1    2    0    0  0.00000000000E+00  0.00000000000E+00 -0.30032492213E+03  0.40711669665E+03  0.27486168492E+03 0.  0.
         25    1    3    3    0    0  0.24619819226E+02  0.60758097384E+02 -0.12976989723E+03  0.18851500769E+03  0.12000000000E+03 0.  0.
         25    1    3    3    0    0 -0.24619819226E+02 -0.60758097384E+02 -0.17055502490E+03  0.21860168896E+03  0.12000000000E+03 0.  0.
<mgrwt>
<rscale>  0 0.27486168E+03</rscale>
<asrwt>0</asrwt>
<pdfrwt beam="1">  1        1 0.54418586E-01 0.27486168E+03</pdfrwt>
<pdfrwt beam="2">  1       -1 0.82147519E-02 0.27486168E+03</pdfrwt>
<totfact> 0.58322701E+03</totfact>
</mgrwt>
</event>
<event>
 5    1  0.1111501E+001  0.2761412E+03  0.7818608E-02  0.1097815E+00
         -1   -1    0    0    0  501 -0.00000000000E+00  0.00000000000E+00  0.15761593458E+02  0.15761593458E+02  0.00000000000E+00 0. -1.
          1   -1    0    0  501    0  0.00000000000E+00 -0.00000000000E+00 -0.12094904193E+04  0.12094904193E+04  0.00000000000E+00 0. -1.
         35    2    1    2    0    0  0.00000000000E+00  0.00000000000E+00 -0.11937288259E+04  0.12252520128E+04  0.27614124126E+03 0.  0.
         25    1    3    3    0    0 -0.14619519724E+02  0.34043742991E+02 -0.85139747524E+03  0.86061046220E+03  0.12000000000E+03 0.  0.
         25    1    3    3    0    0  0.14619519724E+02 -0.34043742991E+02 -0.34233135063E+03  0.36464155059E+03  0.12000000000E+03 0.  0.
<mgrwt>
<rscale>  0 0.27614124E+03</rscale>
<asrwt>0</asrwt>
<pdfrwt beam="1">  1        1 0.18607544E+00 0.27614124E+03</pdfrwt>
<pdfrwt beam="2">  1       -1 0.24248607E-02 0.27614124E+03</pdfrwt>
<totfact> 0.58246215E+03</totfact>
</mgrwt>
</event>
<event>
 5    1  0.1111501E+001  0.2753920E+03  0.7818608E-02  0.1098233E+00
          2   -1    0    0  501    0  0.00000000000E+00  0.00000000000E+00  0.94164077797E+03  0.94164077797E+03  0.00000000000E+00 0.  1.
         -2   -1    0    0    0  501 -0.00000000000E+00 -0.00000000000E+00 -0.20135271683E+02  0.20135271683E+02  0.00000000000E+00 0.  1.
         35    2    1    2    0    0  0.00000000000E+00  0.00000000000E+00  0.92150550629E+03  0.96177604965E+03  0.27539203250E+03 0.  0.
         25    1    3    3    0    0  0.15027251534E+02 -0.52967519490E+02  0.59730544467E+03  0.61172311600E+03  0.12000000000E+03 0.  0.
         25    1    3    3    0    0 -0.15027251534E+02  0.52967519490E+02  0.32420006161E+03  0.35005293365E+03  0.12000000000E+03 0.  0.
<mgrwt>
<rscale>  0 0.27539203E+03</rscale>
<asrwt>0</asrwt>
<pdfrwt beam="1">  1        2 0.14486778E+00 0.27539203E+03</pdfrwt>
<pdfrwt beam="2">  1       -2 0.30977348E-02 0.27539203E+03</pdfrwt>
<totfact> 0.11500304E+04</totfact>
</mgrwt>
</event>
<event>
 5    1  0.1111501E+001  0.2760155E+03  0.7818608E-02  0.1097885E+00
          2   -1    0    0  501    0  0.00000000000E+00  0.00000000000E+00  0.26415774201E+04  0.26415774201E+04  0.00000000000E+00 0. -1.
         -2   -1    0    0    0  501 -0.00000000000E+00 -0.00000000000E+00 -0.72101401124E+01  0.72101401124E+01  0.00000000000E+00 0. -1.
         35    2    1    2    0    0  0.00000000000E+00  0.00000000000E+00  0.26343672800E+04  0.26487875602E+04  0.27601553084E+03 0.  0.
         25    1    3    3    0    0 -0.45883184169E+02  0.22192645601E+02  0.17515109037E+04  0.17563565201E+04  0.12000000000E+03 0.  0.
         25    1    3    3    0    0  0.45883184169E+02 -0.22192645601E+02  0.88285637632E+03  0.89243104009E+03  0.12000000000E+03 0.  0.
<mgrwt>
<rscale>  0 0.27601553E+03</rscale>
<asrwt>0</asrwt>
<pdfrwt beam="1">  1        2 0.40639575E+00 0.27601553E+03</pdfrwt>
<pdfrwt beam="2">  1       -2 0.11092544E-02 0.27601553E+03</pdfrwt>
<totfact> 0.61394369E+03</totfact>
</mgrwt>
</event>
<event>
 5    1  0.1111501E+001  0.2730397E+03  0.7818608E-02  0.1099552E+00
          2   -1    0    0  501    0  0.00000000000E+00  0.00000000000E+00  0.70658034244E+03  0.70658034244E+03  0.00000000000E+00 0.  1.
         -2   -1    0    0    0  501 -0.00000000000E+00 -0.00000000000E+00 -0.26377281388E+02  0.26377281388E+02  0.00000000000E+00 0.  1.
         35    2    1    2    0    0  0.00000000000E+00  0.00000000000E+00  0.68020306105E+03  0.73295762382E+03  0.27303969320E+03 0.  0.
         25    1    3    3    0    0 -0.61547077000E+02 -0.10418641383E+02  0.29052458480E+03  0.32047016265E+03  0.12000000000E+03 0.  0.
         25    1    3    3    0    0  0.61547077000E+02  0.10418641383E+02  0.38967847625E+03  0.41248746118E+03  0.12000000000E+03 0.  0.
<mgrwt>
<rscale>  0 0.27303969E+03</rscale>
<asrwt>0</asrwt>
<pdfrwt beam="1">  1        2 0.10870465E+00 0.27303969E+03</pdfrwt>
<pdfrwt beam="2">  1       -2 0.40580438E-02 0.27303969E+03</pdfrwt>
<totfact> 0.11101715E+04</totfact>
</mgrwt>
</event>
<event>
 5    1  0.1111501E+001  0.2772719E+03  0.7818608E-02  0.1097188E+00
         -2   -1    0    0    0  501 -0.00000000000E+00  0.00000000000E+00  0.74352343689E+02  0.74352343689E+02  0.00000000000E+00 0.  1.
          2   -1    0    0  501    0  0.00000000000E+00 -0.00000000000E+00 -0.25849786384E+03  0.25849786384E+03  0.00000000000E+00 0.  1.
         35    2    1    2    0    0  0.00000000000E+00  0.00000000000E+00 -0.18414552015E+03  0.33285020753E+03  0.27727186670E+03 0.  0.
         25    1    3    3    0    0 -0.22485169722E+02  0.37846153354E+01 -0.17079148553E+03  0.20997532641E+03  0.12000000000E+03 0.  0.
         25    1    3    3    0    0  0.22485169722E+02 -0.37846153354E+01 -0.13354034624E+02  0.12287488112E+03  0.12000000000E+03 0.  0.
<mgrwt>
<rscale>  0 0.27727187E+03</rscale>
<asrwt>0</asrwt>
<pdfrwt beam="1">  1        2 0.39768901E-01 0.27727187E+03</pdfrwt>
<pdfrwt beam="2">  1       -2 0.11438822E-01 0.27727187E+03</pdfrwt>
<totfact> 0.68227445E+03</totfact>
</mgrwt>
</event>
<event>
 5    1  0.1111501E+001  0.2747371E+03  0.7818608E-02  0.1098599E+00
          2   -1    0    0  501    0  0.00000000000E+00  0.00000000000E+00  0.26167154675E+04  0.26167154675E+04  0.00000000000E+00 0. -1.
         -2   -1    0    0    0  501 -0.00000000000E+00 -0.00000000000E+00 -0.72113743668E+01  0.72113743668E+01  0.00000000000E+00 0. -1.
         35    2    1    2    0    0  0.00000000000E+00  0.00000000000E+00  0.26095040931E+04  0.26239268419E+04  0.27473707320E+03 0.  0.
         25    1    3    3    0    0 -0.18152753879E+01  0.42964477433E+02  0.81580990739E+03  0.82570881462E+03  0.12000000000E+03 0.  0.
         25    1    3    3    0    0  0.18152753879E+01 -0.42964477433E+02  0.17936941857E+04  0.17982180272E+04  0.12000000000E+03 0.  0.
<mgrwt>
<rscale>  0 0.27473707E+03</rscale>
<asrwt>0</asrwt>
<pdfrwt beam="1">  1        2 0.40257085E+00 0.27473707E+03</pdfrwt>
<pdfrwt beam="2">  1       -2 0.11094443E-02 0.27473707E+03</pdfrwt>
<totfact> 0.63372439E+03</totfact>
</mgrwt>
</event>
<event>
 5    1  0.1111501E+001  0.2750480E+03  0.7818608E-02  0.1098425E+00
          1   -1    0    0  501    0  0.00000000000E+00  0.00000000000E+00  0.23935239694E+04  0.23935239694E+04  0.00000000000E+00 0.  1.
         -1   -1    0    0    0  501 -0.00000000000E+00 -0.00000000000E+00 -0.79016739744E+01  0.79016739744E+01  0.00000000000E+00 0.  1.
         35    2    1    2    0    0  0.00000000000E+00  0.00000000000E+00  0.23856222954E+04  0.24014256433E+04  0.27504796713E+03 0.  0.
         25    1    3    3    0    0 -0.56473649362E+02 -0.53640598551E+01  0.87864309231E+03  0.88861224945E+03  0.12000000000E+03 0.  0.
         25    1    3    3    0    0  0.56473649362E+02  0.53640598551E+01  0.15069792031E+04  0.15128133939E+04  0.12000000000E+03 0.  0.
<mgrwt>
<rscale>  0 0.27504797E+03</rscale>
<asrwt>0</asrwt>
<pdfrwt beam="1">  1        1 0.36823388E+00 0.27504797E+03</pdfrwt>
<pdfrwt beam="2">  1       -1 0.12156441E-02 0.27504797E+03</pdfrwt>
<totfact> 0.26435825E+03</totfact>
</mgrwt>
</event>
<event>
 5    1  0.1111501E+001  0.2750186E+03  0.7818608E-02  0.1098441E+00
         -2   -1    0    0    0  501 -0.00000000000E+00  0.00000000000E+00  0.13083629434E+03  0.13083629434E+03  0.00000000000E+00 0. -1.
          2   -1    0    0  501    0  0.00000000000E+00 -0.00000000000E+00 -0.14452260975E+03  0.14452260975E+03  0.00000000000E+00 0. -1.
         35    2    1    2    0    0  0.00000000000E+00  0.00000000000E+00 -0.13686315408E+02  0.27535890409E+03  0.27501856453E+03 0.  0.
         25    1    3    3    0    0  0.36732643436E+02  0.55602997753E+02 -0.15088776037E+02  0.13808928856E+03  0.12000000000E+03 0.  0.
         25    1    3    3    0    0 -0.36732643436E+02 -0.55602997753E+02  0.14024606298E+01  0.13726961553E+03  0.12000000000E+03 0.  0.
<mgrwt>
<rscale>  0 0.27501856E+03</rscale>
<asrwt>0</asrwt>
<pdfrwt beam="1">  1        2 0.22234248E-01 0.27501856E+03</pdfrwt>
<pdfrwt beam="2">  1       -2 0.20128661E-01 0.27501856E+03</pdfrwt>
<totfact> 0.50746955E+03</totfact>
</mgrwt>
</event>
<event>
 5    1  0.1111501E+001  0.2758044E+03  0.7818608E-02  0.1098003E+00
         -2   -1    0    0    0  501 -0.00000000000E+00  0.00000000000E+00  0.24761658222E+02  0.24761658222E+02  0.00000000000E+00 0. -1.
          2   -1    0    0  501    0  0.00000000000E+00 -0.00000000000E+00 -0.76800246610E+03  0.76800246610E+03  0.00000000000E+00 0. -1.
         35    2    1    2    0    0  0.00000000000E+00  0.00000000000E+00 -0.74324080788E+03  0.79276412433E+03  0.27580438415E+03 0.  0.
         25    1    3    3    0    0 -0.31592365467E+02  0.34520606489E+02 -0.23000796663E+03  0.26361603620E+03  0.12000000000E+03 0.  0.
         25    1    3    3    0    0  0.31592365467E+02 -0.34520606489E+02 -0.51323284126E+03  0.52914808813E+03  0.12000000000E+03 0.  0.
<mgrwt>
<rscale>  0 0.27580438E+03</rscale>
<asrwt>0</asrwt>
<pdfrwt beam="1">  1        2 0.11815424E+00 0.27580438E+03</pdfrwt>
<pdfrwt beam="2">  1       -2 0.38094853E-02 0.27580438E+03</pdfrwt>
<totfact> 0.11018373E+04</totfact>
</mgrwt>
</event>
<event>
 5    1  0.1111501E+001  0.2746314E+03  0.7818608E-02  0.1098658E+00
         -2   -1    0    0    0  501 -0.00000000000E+00  0.00000000000E+00  0.19313367667E+02  0.19313367667E+02  0.00000000000E+00 0.  1.
          2   -1    0    0  501    0  0.00000000000E+00 -0.00000000000E+00 -0.97629776679E+03  0.97629776679E+03  0.00000000000E+00 0.  1.
         35    2    1    2    0    0  0.00000000000E+00  0.00000000000E+00 -0.95698439912E+03  0.99561113445E+03  0.27463137274E+03 0.  0.
         25    1    3    3    0    0 -0.18186648062E+02  0.54836077801E+01 -0.24651006270E+03  0.27482364370E+03  0.12000000000E+03 0.  0.
         25    1    3    3    0    0  0.18186648062E+02 -0.54836077801E+01 -0.71047433642E+03  0.72078749076E+03  0.12000000000E+03 0.  0.
<mgrwt>
<rscale>  0 0.27463137E+03</rscale>
<asrwt>0</asrwt>
<pdfrwt beam="1">  1        2 0.15019969E+00 0.27463137E+03</pdfrwt>
<pdfrwt beam="2">  1       -2 0.29712866E-02 0.27463137E+03</pdfrwt>
<totfact> 0.11639977E+04</totfact>
</mgrwt>
</event>
<event>
 5    1  0.1111501E+001  0.2753533E+03  0.7818608E-02  0.1098254E+00
         -3   -1    0    0    0  501 -0.00000000000E+00  0.00000000000E+00  0.92790694016E+02  0.92790694016E+02  0.00000000000E+00 0. -1.
          3   -1    0    0  501    0  0.00000000000E+00 -0.00000000000E+00 -0.20427547446E+03  0.20427547446E+03  0.00000000000E+00 0. -1.
         35    2    1    2    0    0  0.00000000000E+00  0.00000000000E+00 -0.11148478044E+03  0.29706616847E+03  0.27535332244E+03 0.  0.
         25    1    3    3    0    0 -0.60329388961E+02  0.28580144458E+02 -0.66444453614E+02  0.15254941903E+03  0.12000000000E+03 0.  0.
         25    1    3    3    0    0  0.60329388961E+02 -0.28580144458E+02 -0.45040326828E+02  0.14451674945E+03  0.12000000000E+03 0.  0.
<mgrwt>
<rscale>  0 0.27535332E+03</rscale>
<asrwt>0</asrwt>
<pdfrwt beam="1">  1        3 0.31426996E-01 0.27535332E+03</pdfrwt>
<pdfrwt beam="2">  1       -3 0.14275491E-01 0.27535332E+03</pdfrwt>
<totfact> 0.10119698E+03</totfact>
</mgrwt>
</event>
<event>
 5    1  0.1111501E+001  0.2750588E+03  0.7818608E-02  0.1098419E+00
         -2   -1    0    0    0  501 -0.00000000000E+00  0.00000000000E+00  0.39484482844E+02  0.39484482844E+02  0.00000000000E+00 0.  1.
          2   -1    0    0  501    0  0.00000000000E+00 -0.00000000000E+00 -0.47903228452E+03  0.47903228452E+03  0.00000000000E+00 0.  1.
         35    2    1    2    0    0  0.00000000000E+00  0.00000000000E+00 -0.43954780168E+03  0.51851676737E+03  0.27505884476E+03 0.  0.
         25    1    3    3    0    0  0.36578889113E+01 -0.53135155408E+02 -0.14256211170E+03  0.19380578057E+03  0.12000000000E+03 0.  0.
         25    1    3    3    0    0 -0.36578889113E+01  0.53135155408E+02 -0.29698568998E+03  0.32471098679E+03  0.12000000000E+03 0.  0.
<mgrwt>
<rscale>  0 0.27505884E+03</rscale>
<asrwt>0</asrwt>
<pdfrwt beam="1">  1        2 0.73697280E-01 0.27505884E+03</pdfrwt>
<pdfrwt beam="2">  1       -2 0.60745354E-02 0.27505884E+03</pdfrwt>
<totfact> 0.94309707E+03</totfact>
</mgrwt>
</event>
<event>
 5    1  0.1111501E+001  0.2755211E+03  0.7818608E-02  0.1098161E+00
         -1   -1    0    0    0  501 -0.00000000000E+00  0.00000000000E+00  0.17274064048E+02  0.17274064048E+02  0.00000000000E+00 0. -1.
          1   -1    0    0  501    0  0.00000000000E+00 -0.00000000000E+00 -0.10986393226E+04  0.10986393226E+04  0.00000000000E+00 0. -1.
         35    2    1    2    0    0  0.00000000000E+00  0.00000000000E+00 -0.10813652585E+04  0.11159133866E+04  0.27552107741E+03 0.  0.
         25    1    3    3    0    0 -0.28585330064E+02  0.57841511140E+02 -0.62321165054E+03  0.63793065679E+03  0.12000000000E+03 0.  0.
         25    1    3    3    0    0  0.28585330064E+02 -0.57841511140E+02 -0.45815360798E+03  0.47798272983E+03  0.12000000000E+03 0.  0.
<mgrwt>
<rscale>  0 0.27552108E+03</rscale>
<asrwt>0</asrwt>
<pdfrwt beam="1">  1        1 0.16902148E+00 0.27552108E+03</pdfrwt>
<pdfrwt beam="2">  1       -1 0.26575476E-02 0.27552108E+03</pdfrwt>
<totfact> 0.61004896E+03</totfact>
</mgrwt>
</event>
<event>
 5    1  0.1111501E+001  0.2749548E+03  0.7818608E-02  0.1098477E+00
         -2   -1    0    0    0  501 -0.00000000000E+00  0.00000000000E+00  0.25703924844E+02  0.25703924844E+02  0.00000000000E+00 0. -1.
          2   -1    0    0  501    0  0.00000000000E+00 -0.00000000000E+00 -0.73529753446E+03  0.73529753446E+03  0.00000000000E+00 0. -1.
         35    2    1    2    0    0  0.00000000000E+00  0.00000000000E+00 -0.70959360962E+03  0.76100145931E+03  0.27495477856E+03 0.  0.
         25    1    3    3    0    0  0.66348955221E+02 -0.13971677015E+01 -0.32769327319E+03  0.35522811998E+03  0.12000000000E+03 0.  0.
         25    1    3    3    0    0 -0.66348955221E+02  0.13971677015E+01 -0.38190033644E+03  0.40577333932E+03  0.12000000000E+03 0.  0.
<mgrwt>
<rscale>  0 0.27495478E+03</rscale>
<asrwt>0</asrwt>
<pdfrwt beam="1">  1        2 0.11312270E+00 0.27495478E+03</pdfrwt>
<pdfrwt beam="2">  1       -2 0.39544500E-02 0.27495478E+03</pdfrwt>
<totfact> 0.10995045E+04</totfact>
</mgrwt>
</event>
<event>
 5    1  0.1111501E+001  0.2750698E+03  0.7818608E-02  0.1098413E+00
         -2   -1    0    0    0  501 -0.00000000000E+00  0.00000000000E+00  0.20069362013E+02  0.20069362013E+02  0.00000000000E+00 0.  1.
          2   -1    0    0  501    0  0.00000000000E+00 -0.00000000000E+00 -0.94252376635E+03  0.94252376635E+03  0.00000000000E+00 0.  1.
         35    2    1    2    0    0  0.00000000000E+00  0.00000000000E+00 -0.92245440434E+03  0.96259312837E+03  0.27506981421E+03 0.  0.
         25    1    3    3    0    0 -0.41972934878E+02  0.50542195383E+02 -0.51066861331E+03  0.52867634087E+03  0.12000000000E+03 0.  0.
         25    1    3    3    0    0  0.41972934878E+02 -0.50542195383E+02 -0.41178579103E+03  0.43391678750E+03  0.12000000000E+03 0.  0.
<mgrwt>
<rscale>  0 0.27506981E+03</rscale>
<asrwt>0</asrwt>
<pdfrwt beam="1">  1        2 0.14500369E+00 0.27506981E+03</pdfrwt>
<pdfrwt beam="2">  1       -2 0.30875935E-02 0.27506981E+03</pdfrwt>
<totfact> 0.11541370E+04</totfact>
</mgrwt>
</event>
<event>
 5    1  0.1111501E+001  0.2769770E+03  0.7818608E-02  0.1097352E+00
          2   -1    0    0  501    0  0.00000000000E+00  0.00000000000E+00  0.13875607901E+03  0.13875607901E+03  0.00000000000E+00 0. -1.
         -2   -1    0    0    0  501 -0.00000000000E+00 -0.00000000000E+00 -0.13822140552E+03  0.13822140552E+03  0.00000000000E+00 0. -1.
         35    2    1    2    0    0  0.00000000000E+00  0.00000000000E+00  0.53467348831E+00  0.27697748453E+03  0.27697696847E+03 0.  0.
         25    1    3    3    0    0 -0.61236901766E+02 -0.11049070121E+02  0.30384168524E+02  0.13854687938E+03  0.12000000000E+03 0.  0.
         25    1    3    3    0    0  0.61236901766E+02  0.11049070121E+02 -0.29849495036E+02  0.13843060515E+03  0.12000000000E+03 0.  0.
<mgrwt>
<rscale>  0 0.27697697E+03</rscale>
<asrwt>0</asrwt>
<pdfrwt beam="1">  1        2 0.21347089E-01 0.27697697E+03</pdfrwt>
<pdfrwt beam="2">  1       -2 0.21264832E-01 0.27697697E+03</pdfrwt>
<totfact> 0.48371881E+03</totfact>
</mgrwt>
</event>
<event>
 5    1  0.1111501E+001  0.2746945E+03  0.7818608E-02  0.1098622E+00
          3   -1    0    0  501    0  0.00000000000E+00  0.00000000000E+00  0.66874168946E+02  0.66874168946E+02  0.00000000000E+00 0. -1.
         -3   -1    0    0    0  501 -0.00000000000E+00 -0.00000000000E+00 -0.28208609136E+03  0.28208609136E+03  0.00000000000E+00 0. -1.
         35    2    1    2    0    0  0.00000000000E+00  0.00000000000E+00 -0.21521192242E+03  0.34896026031E+03  0.27469454258E+03 0.  0.
         25    1    3    3    0    0  0.53020643718E+01  0.54336431064E+02 -0.58673063300E+02  0.14430207200E+03  0.12000000000E+03 0.  0.
         25    1    3    3    0    0 -0.53020643718E+01 -0.54336431064E+02 -0.15653885912E+03  0.20465818831E+03  0.12000000000E+03 0.  0.
<mgrwt>
<rscale>  0 0.27469454E+03</rscale>
<asrwt>0</asrwt>
<pdfrwt beam="1">  1        3 0.10288334E-01 0.27469454E+03</pdfrwt>
<pdfrwt beam="2">  1       -3 0.43397859E-01 0.27469454E+03</pdfrwt>
<totfact> 0.94720981E+02</totfact>
</mgrwt>
</event>
<event>
 5    1  0.1111501E+001  0.2744734E+03  0.7818608E-02  0.1098746E+00
          1   -1    0    0  501    0  0.00000000000E+00  0.00000000000E+00  0.15681716633E+03  0.15681716633E+03  0.00000000000E+00 0.  1.
         -1   -1    0    0    0  501 -0.00000000000E+00 -0.00000000000E+00 -0.12010104870E+03  0.12010104870E+03  0.00000000000E+00 0.  1.
         35    2    1    2    0    0  0.00000000000E+00  0.00000000000E+00  0.36716117625E+02  0.27691821503E+03  0.27447335849E+03 0.  0.
         25    1    3    3    0    0  0.48022614086E+02  0.36452003615E+02  0.46876181880E+02  0.14224027720E+03  0.12000000000E+03 0.  0.
         25    1    3    3    0    0 -0.48022614086E+02 -0.36452003615E+02 -0.10160064255E+02  0.13467793783E+03  0.12000000000E+03 0.  0.
<mgrwt>
<rscale>  0 0.27447336E+03</rscale>
<asrwt>0</asrwt>
<pdfrwt beam="1">  1        1 0.24125718E-01 0.27447336E+03</pdfrwt>
<pdfrwt beam="2">  1       -1 0.18477084E-01 0.27447336E+03</pdfrwt>
<totfact> 0.45666333E+03</totfact>
</mgrwt>
</event>
<event>
 5    1  0.1111501E+001  0.2750269E+03  0.7818608E-02  0.1098437E+00
          1   -1    0    0  501    0  0.00000000000E+00  0.00000000000E+00  0.19055501411E+04  0.19055501411E+04  0.00000000000E+00 0. -1.
         -1   -1    0    0    0  501 -0.00000000000E+00 -0.00000000000E+00 -0.99236142512E+01  0.99236142512E+01  0.00000000000E+00 0. -1.
         35    2    1    2    0    0  0.00000000000E+00  0.00000000000E+00  0.18956265268E+04  0.19154737553E+04  0.27502686804E+03 0.  0.
         25    1    3    3    0    0 -0.28658153759E+02  0.33469938035E+02  0.59484639989E+03  0.60842728899E+03  0.12000000000E+03 0.  0.
         25    1    3    3    0    0  0.28658153759E+02 -0.33469938035E+02  0.13007801270E+04  0.13070464664E+04  0.12000000000E+03 0.  0.
<mgrwt>
<rscale>  0 0.27502687E+03</rscale>
<asrwt>0</asrwt>
<pdfrwt beam="1">  1        1 0.29316127E+00 0.27502687E+03</pdfrwt>
<pdfrwt beam="2">  1       -1 0.15267114E-02 0.27502687E+03</pdfrwt>
<totfact> 0.39524866E+03</totfact>
</mgrwt>
</event>
<event>
 5    1  0.1111501E+001  0.2751367E+03  0.7818608E-02  0.1098375E+00
         -1   -1    0    0    0  501 -0.00000000000E+00  0.00000000000E+00  0.41248037864E+03  0.41248037864E+03  0.00000000000E+00 0.  1.
          1   -1    0    0  501    0  0.00000000000E+00 -0.00000000000E+00 -0.45881097784E+02  0.45881097784E+02  0.00000000000E+00 0.  1.
         35    2    1    2    0    0  0.00000000000E+00  0.00000000000E+00  0.36659928086E+03  0.45836147643E+03  0.27513671210E+03 0.  0.
         25    1    3    3    0    0 -0.48682110407E+02 -0.14740560814E+02  0.25663549353E+03  0.28783503704E+03  0.12000000000E+03 0.  0.
         25    1    3    3    0    0  0.48682110407E+02  0.14740560814E+02  0.10996378733E+03  0.17052643939E+03  0.12000000000E+03 0.  0.
<mgrwt>
<rscale>  0 0.27513671E+03</rscale>
<asrwt>0</asrwt>
<pdfrwt beam="1">  1        1 0.70586307E-02 0.27513671E+03</pdfrwt>
<pdfrwt beam="2">  1       -1 0.63458517E-01 0.27513671E+03</pdfrwt>
<totfact> 0.26826306E+03</totfact>
</mgrwt>
</event>
<event>
 4    1  0.1111501E+001  0.2902423E+03  0.7818608E-02  0.1090223E+00
         -2   -1    0    0    0  501 -0.00000000000E+00  0.00000000000E+00  0.33851850669E+02  0.33851850669E+02  0.00000000000E+00 0.  1.
          2   -1    0    0  501    0  0.00000000000E+00 -0.00000000000E+00 -0.62212712030E+03  0.62212712030E+03  0.00000000000E+00 0.  1.
         25    1    1    2    0    0  0.79025988015E+02  0.19645944988E+01 -0.33996758038E+03  0.36908931456E+03  0.12000000000E+03 0.  0.
         25    1    1    2    0    0 -0.79025988015E+02 -0.19645944988E+01 -0.24830768925E+03  0.28688965641E+03  0.12000000000E+03 0.  0.
<mgrwt>
<rscale>  0 0.29024234E+03</rscale>
<asrwt>0</asrwt>
<pdfrwt beam="1">  1        2 0.95711860E-01 0.29024234E+03</pdfrwt>
<pdfrwt beam="2">  1       -2 0.52079773E-02 0.29024234E+03</pdfrwt>
<totfact> 0.88766669E+03</totfact>
</mgrwt>
</event>
<event>
 5    1  0.1111501E+001  0.2746042E+03  0.7818608E-02  0.1098673E+00
          2   -1    0    0  501    0  0.00000000000E+00  0.00000000000E+00  0.11737463072E+04  0.11737463072E+04  0.00000000000E+00 0.  1.
         -2   -1    0    0    0  501 -0.00000000000E+00 -0.00000000000E+00 -0.16061283911E+02  0.16061283911E+02  0.00000000000E+00 0.  1.
         35    2    1    2    0    0  0.00000000000E+00  0.00000000000E+00  0.11576850233E+04  0.11898075912E+04  0.27460424381E+03 0.  0.
         25    1    3    3    0    0 -0.10311613626E+02 -0.54943232031E+02  0.73666529383E+03  0.74846565937E+03  0.12000000000E+03 0.  0.
         25    1    3    3    0    0  0.10311613626E+02  0.54943232031E+02  0.42101972950E+03  0.44134193178E+03  0.12000000000E+03 0.  0.
<mgrwt>
<rscale>  0 0.27460424E+03</rscale>
<asrwt>0</asrwt>
<pdfrwt beam="1">  1        2 0.18057629E+00 0.27460424E+03</pdfrwt>
<pdfrwt beam="2">  1       -2 0.24709677E-02 0.27460424E+03</pdfrwt>
<totfact> 0.11679983E+04</totfact>
</mgrwt>
</event>
<event>
 5    1  0.1111501E+001  0.2750454E+03  0.7818608E-02  0.1098426E+00
         -3   -1    0    0    0  501 -0.00000000000E+00  0.00000000000E+00  0.84626319865E+03  0.84626319865E+03  0.00000000000E+00 0.  1.
          3   -1    0    0  501    0  0.00000000000E+00 -0.00000000000E+00 -0.22348236485E+02  0.22348236485E+02  0.00000000000E+00 0.  1.
         35    2    1    2    0    0  0.00000000000E+00  0.00000000000E+00  0.82391496216E+03  0.86861143513E+03  0.27504537874E+03 0.  0.
         25    1    3    3    0    0 -0.32396790190E+02  0.49543798162E+02  0.31167458402E+03  0.33918311614E+03  0.12000000000E+03 0.  0.
         25    1    3    3    0    0  0.32396790190E+02 -0.49543798162E+02  0.51224037814E+03  0.52942831899E+03  0.12000000000E+03 0.  0.
<mgrwt>
<rscale>  0 0.27504538E+03</rscale>
<asrwt>0</asrwt>
<pdfrwt beam="1">  1        3 0.34381909E-02 0.27504538E+03</pdfrwt>
<pdfrwt beam="2">  1       -3 0.13019431E+00 0.27504538E+03</pdfrwt>
<totfact> 0.50717492E+02</totfact>
</mgrwt>
</event>
<event>
 5    1  0.1111501E+001  0.2743188E+03  0.7818608E-02  0.1098833E+00
          2   -1    0    0  501    0  0.00000000000E+00  0.00000000000E+00  0.10491332402E+04  0.10491332402E+04  0.00000000000E+00 0.  1.
         -2   -1    0    0    0  501 -0.00000000000E+00 -0.00000000000E+00 -0.17931656382E+02  0.17931656382E+02  0.00000000000E+00 0.  1.
         35    2    1    2    0    0  0.00000000000E+00  0.00000000000E+00  0.10312015838E+04  0.10670648965E+04  0.27431876904E+03 0.  0.
         25    1    3    3    0    0 -0.13492738627E+02  0.60395250703E+02  0.42167375650E+03  0.44276223554E+03  0.12000000000E+03 0.  0.
         25    1    3    3    0    0  0.13492738627E+02 -0.60395250703E+02  0.60952782728E+03  0.62430266100E+03  0.12000000000E+03 0.  0.
<mgrwt>
<rscale>  0 0.27431877E+03</rscale>
<asrwt>0</asrwt>
<pdfrwt beam="1">  1        2 0.16140507E+00 0.27431877E+03</pdfrwt>
<pdfrwt beam="2">  1       -2 0.27587172E-02 0.27431877E+03</pdfrwt>
<totfact> 0.11734759E+04</totfact>
</mgrwt>
</event>
<event>
 5    1  0.1111501E+001  0.2740479E+03  0.7818608E-02  0.1098985E+00
          2   -1    0    0  501    0  0.00000000000E+00  0.00000000000E+00  0.17323702789E+03  0.17323702789E+03  0.00000000000E+00 0.  1.
         -2   -1    0    0    0  501 -0.00000000000E+00 -0.00000000000E+00 -0.10838077935E+03  0.10838077935E+03  0.00000000000E+00 0.  1.
         35    2    1    2    0    0  0.00000000000E+00  0.00000000000E+00  0.64856248532E+02  0.28161780724E+03  0.27404790892E+03 0.  0.
         25    1    3    3    0    0 -0.45166047169E+02  0.14120932677E+02  0.79923761111E+02  0.15174709271E+03  0.12000000000E+03 0.  0.
         25    1    3    3    0    0  0.45166047169E+02 -0.14120932677E+02 -0.15067512579E+02  0.12987071453E+03  0.12000000000E+03 0.  0.
<mgrwt>
<rscale>  0 0.27404791E+03</rscale>
<asrwt>0</asrwt>
<pdfrwt beam="1">  1        2 0.26651850E-01 0.27404791E+03</pdfrwt>
<pdfrwt beam="2">  1       -2 0.16673966E-01 0.27404791E+03</pdfrwt>
<totfact> 0.56945520E+03</totfact>
</mgrwt>
</event>
<event>
 5    1  0.1111501E+001  0.2748087E+03  0.7818608E-02  0.1098559E+00
          1   -1    0    0  501    0  0.00000000000E+00  0.00000000000E+00  0.13815650022E+03  0.13815650022E+03  0.00000000000E+00 0. -1.
         -1   -1    0    0    0  501 -0.00000000000E+00 -0.00000000000E+00 -0.13665633773E+03  0.13665633773E+03  0.00000000000E+00 0. -1.
         35    2    1    2    0    0  0.00000000000E+00  0.00000000000E+00  0.15001624844E+01  0.27481283795E+03  0.27480874334E+03 0.  0.
         25    1    3    3    0    0 -0.62982372703E+01  0.41551177643E+02  0.52844937690E+02  0.13769079706E+03  0.12000000000E+03 0.  0.
         25    1    3    3    0    0  0.62982372703E+01 -0.41551177643E+02 -0.51344775206E+02  0.13712204089E+03  0.12000000000E+03 0.  0.
<mgrwt>
<rscale>  0 0.27480874E+03</rscale>
<asrwt>0</asrwt>
<pdfrwt beam="1">  1        1 0.21254846E-01 0.27480874E+03</pdfrwt>
<pdfrwt beam="2">  1       -1 0.21024052E-01 0.27480874E+03</pdfrwt>
<totfact> 0.43546650E+03</totfact>
</mgrwt>
</event>
<event>
 5    1  0.1111501E+001  0.2752245E+03  0.7818608E-02  0.1098326E+00
          4   -1    0    0  501    0  0.00000000000E+00  0.00000000000E+00  0.15170015731E+03  0.15170015731E+03  0.00000000000E+00 0. -1.
         -4   -1    0    0    0  501 -0.00000000000E+00 -0.00000000000E+00 -0.12483262782E+03  0.12483262782E+03  0.00000000000E+00 0. -1.
         35    2    1    2    0    0  0.00000000000E+00  0.00000000000E+00  0.26867529490E+02  0.27653278513E+03  0.27522448494E+03 0.  0.
         25    1    3    3    0    0  0.59908740852E+02  0.22995274114E+02 -0.71401298069E+01  0.13626746242E+03  0.12000000000E+03 0.  0.
         25    1    3    3    0    0 -0.59908740852E+02 -0.22995274114E+02  0.34007659297E+02  0.14026532270E+03  0.12000000000E+03 0.  0.
<mgrwt>
<rscale>  0 0.27522448E+03</rscale>
<asrwt>0</asrwt>
<pdfrwt beam="1">  1        4 0.23338486E-01 0.27522448E+03</pdfrwt>
<pdfrwt beam="2">  1       -4 0.19205020E-01 0.27522448E+03</pdfrwt>
<totfact> 0.77487799E+02</totfact>
</mgrwt>
</event>
<event>
 5    1  0.1111501E+001  0.2745063E+03  0.7818608E-02  0.1098728E+00
         -2   -1    0    0    0  501 -0.00000000000E+00  0.00000000000E+00  0.93081471037E+02  0.93081471037E+02  0.00000000000E+00 0.  1.
          2   -1    0    0  501    0  0.00000000000E+00 -0.00000000000E+00 -0.20238649403E+03  0.20238649403E+03  0.00000000000E+00 0.  1.
         35    2    1    2    0    0  0.00000000000E+00  0.00000000000E+00 -0.10930502299E+03  0.29546796507E+03  0.27450633933E+03 0.  0.
         25    1    3    3    0    0  0.26292989410E+02 -0.37379076878E+02 -0.10683012157E+03  0.16703649767E+03  0.12000000000E+03 0.  0.
         25    1    3    3    0    0 -0.26292989410E+02  0.37379076878E+02 -0.24749014248E+01  0.12843146740E+03  0.12000000000E+03 0.  0.
<mgrwt>
<rscale>  0 0.27450634E+03</rscale>
<asrwt>0</asrwt>
<pdfrwt beam="1">  1        2 0.31136384E-01 0.27450634E+03</pdfrwt>
<pdfrwt beam="2">  1       -2 0.14320226E-01 0.27450634E+03</pdfrwt>
<totfact> 0.61749372E+03</totfact>
</mgrwt>
</event>
<event>
 5    1  0.1111501E+001  0.2737960E+03  0.7818608E-02  0.1099126E+00
          2   -1    0    0  501    0  0.00000000000E+00  0.00000000000E+00  0.14311488863E+04  0.14311488863E+04  0.00000000000E+00 0. -1.
         -2   -1    0    0    0  501 -0.00000000000E+00 -0.00000000000E+00 -0.13095118898E+02  0.13095118898E+02  0.00000000000E+00 0. -1.
         35    2    1    2    0    0  0.00000000000E+00  0.00000000000E+00  0.14180537674E+04  0.14442440052E+04  0.27379601770E+03 0.  0.
         25    1    3    3    0    0  0.55464241412E+01  0.23293786122E+02  0.10328081315E+04  0.10400317302E+04  0.12000000000E+03 0.  0.
         25    1    3    3    0    0 -0.55464241412E+01 -0.23293786122E+02  0.38524563589E+03  0.40421227501E+03  0.12000000000E+03 0.  0.
<mgrwt>
<rscale>  0 0.27379602E+03</rscale>
<asrwt>0</asrwt>
<pdfrwt beam="1">  1        2 0.22017663E+00 0.27379602E+03</pdfrwt>
<pdfrwt beam="2">  1       -2 0.20146348E-02 0.27379602E+03</pdfrwt>
<totfact> 0.11363357E+04</totfact>
</mgrwt>
</event>
<event>
 5    1  0.1111501E+001  0.2700509E+03  0.7818608E-02  0.1101250E+00
          1   -1    0    0  501    0  0.00000000000E+00  0.00000000000E+00  0.27469140191E+04  0.27469140191E+04  0.00000000000E+00 0. -1.
         -1   -1    0    0    0  501 -0.00000000000E+00 -0.00000000000E+00 -0.66372217446E+01  0.66372217446E+01  0.00000000000E+00 0. -1.
         35    2    1    2    0    0  0.00000000000E+00  0.00000000000E+00  0.27402767973E+04  0.27535512408E+04  0.27005093933E+03 0.  0.
         25    1    3    3    0    0 -0.11878241354E+02 -0.56497930428E+02  0.11424205537E+04  0.11501555678E+04  0.12000000000E+03 0.  0.
         25    1    3    3    0    0  0.11878241354E+02  0.56497930428E+02  0.15978562437E+04  0.16033956730E+04  0.12000000000E+03 0.  0.
<mgrwt>
<rscale>  0 0.27005094E+03</rscale>
<asrwt>0</asrwt>
<pdfrwt beam="1">  1        1 0.42260125E+00 0.27005094E+03</pdfrwt>
<pdfrwt beam="2">  1       -1 0.10211132E-02 0.27005094E+03</pdfrwt>
<totfact> 0.19751912E+03</totfact>
</mgrwt>
</event>
<event>
 5    1  0.1111501E+001  0.2747716E+03  0.7818608E-02  0.1098579E+00
          2   -1    0    0  501    0  0.00000000000E+00  0.00000000000E+00  0.89131220242E+03  0.89131220242E+03  0.00000000000E+00 0.  1.
         -2   -1    0    0    0  501 -0.00000000000E+00 -0.00000000000E+00 -0.21176481695E+02  0.21176481695E+02  0.00000000000E+00 0.  1.
         35    2    1    2    0    0  0.00000000000E+00  0.00000000000E+00  0.87013572072E+03  0.91248868411E+03  0.27477158906E+03 0.  0.
         25    1    3    3    0    0 -0.44133132206E+02 -0.50215616538E+02  0.42726902321E+03  0.44880748624E+03  0.12000000000E+03 0.  0.
         25    1    3    3    0    0  0.44133132206E+02  0.50215616538E+02  0.44286669751E+03  0.46368119788E+03  0.12000000000E+03 0.  0.
<mgrwt>
<rscale>  0 0.27477159E+03</rscale>
<asrwt>0</asrwt>
<pdfrwt beam="1">  1        2 0.13712493E+00 0.27477159E+03</pdfrwt>
<pdfrwt beam="2">  1       -2 0.32579209E-02 0.27477159E+03</pdfrwt>
<totfact> 0.11487658E+04</totfact>
</mgrwt>
</event>
<event>
 5    1  0.1111501E+001  0.2749756E+03  0.7818608E-02  0.1098465E+00
         -1   -1    0    0    0  501 -0.00000000000E+00  0.00000000000E+00  0.40892988205E+03  0.40892988205E+03  0.00000000000E+00 0. -1.
          1   -1    0    0  501    0  0.00000000000E+00 -0.00000000000E+00 -0.46225263863E+02  0.46225263863E+02  0.00000000000E+00 0. -1.
         35    2    1    2    0    0  0.00000000000E+00  0.00000000000E+00  0.36270461819E+03  0.45515514591E+03  0.27497557491E+03 0.  0.
         25    1    3    3    0    0  0.37351031505E+02  0.39284019564E+02  0.11587947122E+03  0.17540349369E+03  0.12000000000E+03 0.  0.
         25    1    3    3    0    0 -0.37351031505E+02 -0.39284019564E+02  0.24682514697E+03  0.27975165222E+03  0.12000000000E+03 0.  0.
<mgrwt>
<rscale>  0 0.27497557E+03</rscale>
<asrwt>0</asrwt>
<pdfrwt beam="1">  1        1 0.71115793E-02 0.27497557E+03</pdfrwt>
<pdfrwt beam="2">  1       -1 0.62912287E-01 0.27497557E+03</pdfrwt>
<totfact> 0.27004170E+03</totfact>
</mgrwt>
</event>
<event>
 5    1  0.1111501E+001  0.2744617E+03  0.7818608E-02  0.1098753E+00
          1   -1    0    0  501    0  0.00000000000E+00  0.00000000000E+00  0.10686440632E+04  0.10686440632E+04  0.00000000000E+00 0.  1.
         -1   -1    0    0    0  501 -0.00000000000E+00 -0.00000000000E+00 -0.17622614952E+02  0.17622614952E+02  0.00000000000E+00 0.  1.
         35    2    1    2    0    0  0.00000000000E+00  0.00000000000E+00  0.10510214483E+04  0.10862666782E+04  0.27446167563E+03 0.  0.
         25    1    3    3    0    0  0.47076858946E+02  0.44640573314E+02  0.58465200939E+03  0.60035571415E+03  0.12000000000E+03 0.  0.
         25    1    3    3    0    0 -0.47076858946E+02 -0.44640573314E+02  0.46636943891E+03  0.48591096405E+03  0.12000000000E+03 0.  0.
<mgrwt>
<rscale>  0 0.27446168E+03</rscale>
<asrwt>0</asrwt>
<pdfrwt beam="1">  1        1 0.16440673E+00 0.27446168E+03</pdfrwt>
<pdfrwt beam="2">  1       -1 0.27111724E-02 0.27446168E+03</pdfrwt>
<totfact> 0.62274421E+03</totfact>
</mgrwt>
</event>
<event>
 5    1  0.1111501E+001  0.2736292E+03  0.7818608E-02  0.1099220E+00
          2   -1    0    0  501    0  0.00000000000E+00  0.00000000000E+00  0.43364647910E+03  0.43364647910E+03  0.00000000000E+00 0. -1.
         -2   -1    0    0    0  501 -0.00000000000E+00 -0.00000000000E+00 -0.43164727770E+02  0.43164727770E+02  0.00000000000E+00 0. -1.
         35    2    1    2    0    0  0.00000000000E+00  0.00000000000E+00  0.39048175133E+03  0.47681120687E+03  0.27362918133E+03 0.  0.
         25    1    3    3    0    0  0.50122942320E+02  0.41150066144E+02  0.21373115439E+03  0.25354810914E+03  0.12000000000E+03 0.  0.
         25    1    3    3    0    0 -0.50122942320E+02 -0.41150066144E+02  0.17675059694E+03  0.22326309773E+03  0.12000000000E+03 0.  0.
<mgrwt>
<rscale>  0 0.27362918E+03</rscale>
<asrwt>0</asrwt>
<pdfrwt beam="1">  1        2 0.66714840E-01 0.27362918E+03</pdfrwt>
<pdfrwt beam="2">  1       -2 0.66407277E-02 0.27362918E+03</pdfrwt>
<totfact> 0.91743629E+03</totfact>
</mgrwt>
</event>
<event>
 5    1  0.1111501E+001  0.2751582E+03  0.7818608E-02  0.1098363E+00
         -2   -1    0    0    0  501 -0.00000000000E+00  0.00000000000E+00  0.18048616962E+02  0.18048616962E+02  0.00000000000E+00 0.  1.
          2   -1    0    0  501    0  0.00000000000E+00 -0.00000000000E+00 -0.10487237960E+04  0.10487237960E+04  0.00000000000E+00 0.  1.
         35    2    1    2    0    0  0.00000000000E+00  0.00000000000E+00 -0.10306751791E+04  0.10667724130E+04  0.27515823879E+03 0.  0.
         25    1    3    3    0    0 -0.66441500297E+02 -0.10670798767E+01 -0.55644093659E+03  0.57309870663E+03  0.12000000000E+03 0.  0.
         25    1    3    3    0    0  0.66441500297E+02  0.10670798767E+01 -0.47423424248E+03  0.49367370637E+03  0.12000000000E+03 0.  0.
<mgrwt>
<rscale>  0 0.27515824E+03</rscale>
<asrwt>0</asrwt>
<pdfrwt beam="1">  1        2 0.16134215E+00 0.27515824E+03</pdfrwt>
<pdfrwt beam="2">  1       -2 0.27767098E-02 0.27515824E+03</pdfrwt>
<totfact> 0.11629726E+04</totfact>
</mgrwt>
</event>
<event>
 5    1  0.1111501E+001  0.2761520E+03  0.7818608E-02  0.1097809E+00
          1   -1    0    0  501    0  0.00000000000E+00  0.00000000000E+00  0.19922310991E+02  0.19922310991E+02  0.00000000000E+00 0. -1.
         -1   -1    0    0    0  501 -0.00000000000E+00 -0.00000000000E+00 -0.95696648361E+03  0.95696648361E+03  0.00000000000E+00 0. -1.
         35    2    1    2    0    0  0.00000000000E+00  0.00000000000E+00 -0.93704417262E+03  0.97688879460E+03  0.27615201534E+03 0.  0.
         25    1    3    3    0    0  0.51397355484E+02  0.39211798623E+02 -0.39055799172E+03  0.41366024488E+03  0.12000000000E+03 0.  0.
         25    1    3    3    0    0 -0.51397355484E+02 -0.39211798623E+02 -0.54648618090E+03  0.56322854972E+03  0.12000000000E+03 0.  0.
<mgrwt>
<rscale>  0 0.27615202E+03</rscale>
<asrwt>0</asrwt>
<pdfrwt beam="1">  1        1 0.30649715E-02 0.27615202E+03</pdfrwt>
<pdfrwt beam="2">  1       -1 0.14722558E+00 0.27615202E+03</pdfrwt>
<totfact> 0.13126196E+03</totfact>
</mgrwt>
</event>
<event>
 5    1  0.1111501E+001  0.2724923E+03  0.7818608E-02  0.1099862E+00
         -1   -1    0    0    0  501 -0.00000000000E+00  0.00000000000E+00  0.23557379979E+02  0.23557379979E+02  0.00000000000E+00 0. -1.
          1   -1    0    0  501    0  0.00000000000E+00 -0.00000000000E+00 -0.78799140672E+03  0.78799140672E+03  0.00000000000E+00 0. -1.
         35    2    1    2    0    0  0.00000000000E+00  0.00000000000E+00 -0.76443402674E+03  0.81154878670E+03  0.27249229705E+03 0.  0.
         25    1    3    3    0    0  0.20587736074E+02  0.18008379948E+02 -0.20817799570E+03  0.24183927414E+03  0.12000000000E+03 0.  0.
         25    1    3    3    0    0 -0.20587736074E+02 -0.18008379948E+02 -0.55625603104E+03  0.56970951256E+03  0.12000000000E+03 0.  0.
<mgrwt>
<rscale>  0 0.27249230E+03</rscale>
<asrwt>0</asrwt>
<pdfrwt beam="1">  1        1 0.12122944E+00 0.27249230E+03</pdfrwt>
<pdfrwt beam="2">  1       -1 0.36242124E-02 0.27249230E+03</pdfrwt>
<totfact> 0.67041491E+03</totfact>
</mgrwt>
</event>
<event>
 5    1  0.1111501E+001  0.2700009E+03  0.7818608E-02  0.1101279E+00
          1   -1    0    0  501    0  0.00000000000E+00  0.00000000000E+00  0.17016740350E+03  0.17016740350E+03  0.00000000000E+00 0. -1.
         -1   -1    0    0    0  501 -0.00000000000E+00 -0.00000000000E+00 -0.10710112902E+03  0.10710112902E+03  0.00000000000E+00 0. -1.
         35    2    1    2    0    0  0.00000000000E+00  0.00000000000E+00  0.63066274478E+02  0.27726853252E+03  0.27000089657E+03 0.  0.
         25    1    3    3    0    0  0.12479956589E+02  0.60013686910E+02  0.23081846510E+02  0.13671197304E+03  0.12000000000E+03 0.  0.
         25    1    3    3    0    0 -0.12479956589E+02 -0.60013686910E+02  0.39984427968E+02  0.14055655948E+03  0.12000000000E+03 0.  0.
<mgrwt>
<rscale>  0 0.27000090E+03</rscale>
<asrwt>0</asrwt>
<pdfrwt beam="1">  1        1 0.26179601E-01 0.27000090E+03</pdfrwt>
<pdfrwt beam="2">  1       -1 0.16477097E-01 0.27000090E+03</pdfrwt>
<totfact> 0.49442720E+03</totfact>
</mgrwt>
</event>
<event>
 5    1  0.1111501E+001  0.2749065E+03  0.7818608E-02  0.1098504E+00
         -1   -1    0    0    0  501 -0.00000000000E+00  0.00000000000E+00  0.19733893110E+02  0.19733893110E+02  0.00000000000E+00 0.  1.
          1   -1    0    0  501    0  0.00000000000E+00 -0.00000000000E+00 -0.95740858431E+03  0.95740858431E+03  0.00000000000E+00 0.  1.
         35    2    1    2    0    0  0.00000000000E+00  0.00000000000E+00 -0.93767469120E+03  0.97714247742E+03  0.27490651986E+03 0.  0.
         25    1    3    3    0    0  0.58714608346E+02  0.69469369814E+01 -0.35656310407E+03  0.38083186887E+03  0.12000000000E+03 0.  0.
         25    1    3    3    0    0 -0.58714608346E+02 -0.69469369814E+01 -0.58111158713E+03  0.59631060855E+03  0.12000000000E+03 0.  0.
<mgrwt>
<rscale>  0 0.27490652E+03</rscale>
<asrwt>0</asrwt>
<pdfrwt beam="1">  1        1 0.14729360E+00 0.27490652E+03</pdfrwt>
<pdfrwt beam="2">  1       -1 0.30359842E-02 0.27490652E+03</pdfrwt>
<totfact> 0.63791549E+03</totfact>
</mgrwt>
</event>
<event>
 5    1  0.1111501E+001  0.2761032E+03  0.7818608E-02  0.1097837E+00
          2   -1    0    0  501    0  0.00000000000E+00  0.00000000000E+00  0.24649065523E+03  0.24649065523E+03  0.00000000000E+00 0.  1.
         -2   -1    0    0    0  501 -0.00000000000E+00 -0.00000000000E+00 -0.77318339065E+02  0.77318339065E+02  0.00000000000E+00 0.  1.
         35    2    1    2    0    0  0.00000000000E+00  0.00000000000E+00  0.16917231616E+03  0.32380899429E+03  0.27610322749E+03 0.  0.
         25    1    3    3    0    0 -0.59312922873E+02 -0.23000996135E+02  0.11357973407E+03  0.17705203934E+03  0.12000000000E+03 0.  0.
         25    1    3    3    0    0  0.59312922873E+02  0.23000996135E+02  0.55592582091E+02  0.14675695495E+03  0.12000000000E+03 0.  0.
<mgrwt>
<rscale>  0 0.27610323E+03</rscale>
<asrwt>0</asrwt>
<pdfrwt beam="1">  1        2 0.37921639E-01 0.27610323E+03</pdfrwt>
<pdfrwt beam="2">  1       -2 0.11895129E-01 0.27610323E+03</pdfrwt>
<totfact> 0.67428632E+03</totfact>
</mgrwt>
</event>
<event>
 5    1  0.1111501E+001  0.2748028E+03  0.7818608E-02  0.1098562E+00
          2   -1    0    0  501    0  0.00000000000E+00  0.00000000000E+00  0.11415973070E+04  0.11415973070E+04  0.00000000000E+00 0. -1.
         -2   -1    0    0    0  501 -0.00000000000E+00 -0.00000000000E+00 -0.16537484173E+02  0.16537484173E+02  0.00000000000E+00 0. -1.
         35    2    1    2    0    0  0.00000000000E+00  0.00000000000E+00  0.11250598228E+04  0.11581347912E+04  0.27480281946E+03 0.  0.
         25    1    3    3    0    0 -0.40420774466E+02 -0.35718285209E+02  0.39556688355E+03  0.41687263555E+03  0.12000000000E+03 0.  0.
         25    1    3    3    0    0  0.40420774466E+02  0.35718285209E+02  0.72949293926E+03  0.74126215561E+03  0.12000000000E+03 0.  0.
<mgrwt>
<rscale>  0 0.27480282E+03</rscale>
<asrwt>0</asrwt>
<pdfrwt beam="1">  1        2 0.17563029E+00 0.27480282E+03</pdfrwt>
<pdfrwt beam="2">  1       -2 0.25442292E-02 0.27480282E+03</pdfrwt>
<totfact> 0.11672919E+04</totfact>
</mgrwt>
</event>
<event>
 5    1  0.1111501E+001  0.2769796E+03  0.7818608E-02  0.1097350E+00
          2   -1    0    0  501    0  0.00000000000E+00  0.00000000000E+00  0.12826688457E+03  0.12826688457E+03  0.00000000000E+00 0. -1.
         -2   -1    0    0    0  501 -0.00000000000E+00 -0.00000000000E+00 -0.14952751150E+03  0.14952751150E+03  0.00000000000E+00 0. -1.
         35    2    1    2    0    0  0.00000000000E+00  0.00000000000E+00 -0.21260626931E+02  0.27779439607E+03  0.27697962421E+03 0.  0.
         25    1    3    3    0    0  0.21198799825E+02 -0.49100330689E+02  0.33307190020E+02  0.13553449928E+03  0.12000000000E+03 0.  0.
         25    1    3    3    0    0 -0.21198799825E+02  0.49100330689E+02 -0.54567816951E+02  0.14225989679E+03  0.12000000000E+03 0.  0.
<mgrwt>
<rscale>  0 0.27697962E+03</rscale>
<asrwt>0</asrwt>
<pdfrwt beam="1">  1        2 0.19733367E-01 0.27697962E+03</pdfrwt>
<pdfrwt beam="2">  1       -2 0.23004232E-01 0.27697962E+03</pdfrwt>
<totfact> 0.46169978E+03</totfact>
</mgrwt>
</event>
<event>
 5    1  0.1111501E+001  0.2743021E+03  0.7818608E-02  0.1098842E+00
          3   -1    0    0  501    0  0.00000000000E+00  0.00000000000E+00  0.81515242558E+02  0.81515242558E+02  0.00000000000E+00 0. -1.
         -3   -1    0    0    0  501 -0.00000000000E+00 -0.00000000000E+00 -0.23075944462E+03  0.23075944462E+03  0.00000000000E+00 0. -1.
         35    2    1    2    0    0  0.00000000000E+00  0.00000000000E+00 -0.14924420206E+03  0.31227468718E+03  0.27430211156E+03 0.  0.
         25    1    3    3    0    0 -0.46201685236E+02 -0.47362723480E+02 -0.81121031060E+02  0.15924335143E+03  0.12000000000E+03 0.  0.
         25    1    3    3    0    0  0.46201685236E+02  0.47362723480E+02 -0.68123171004E+02  0.15303133575E+03  0.12000000000E+03 0.  0.
<mgrwt>
<rscale>  0 0.27430211E+03</rscale>
<asrwt>0</asrwt>
<pdfrwt beam="1">  1        3 0.12540807E-01 0.27430211E+03</pdfrwt>
<pdfrwt beam="2">  1       -3 0.35501453E-01 0.27430211E+03</pdfrwt>
<totfact> 0.10016824E+03</totfact>
</mgrwt>
</event>
<event>
 5    1  0.1111501E+001  0.2773944E+03  0.7818608E-02  0.1097121E+00
          1   -1    0    0  501    0  0.00000000000E+00  0.00000000000E+00  0.10948871572E+04  0.10948871572E+04  0.00000000000E+00 0.  1.
         -1   -1    0    0    0  501 -0.00000000000E+00 -0.00000000000E+00 -0.17569770816E+02  0.17569770816E+02  0.00000000000E+00 0.  1.
         35    2    1    2    0    0  0.00000000000E+00  0.00000000000E+00  0.10773173864E+04  0.11124569281E+04  0.27739442260E+03 0.  0.
         25    1    3    3    0    0 -0.88911336171E+01 -0.48069700163E+02  0.73704759847E+03  0.74835079391E+03  0.12000000000E+03 0.  0.
         25    1    3    3    0    0  0.88911336171E+01  0.48069700163E+02  0.34026978796E+03  0.36410613416E+03  0.12000000000E+03 0.  0.
<mgrwt>
<rscale>  0 0.27739442E+03</rscale>
<asrwt>0</asrwt>
<pdfrwt beam="1">  1        1 0.16844412E+00 0.27739442E+03</pdfrwt>
<pdfrwt beam="2">  1       -1 0.27030425E-02 0.27739442E+03</pdfrwt>
<totfact> 0.59879534E+03</totfact>
</mgrwt>
</event>
<event>
 4    1  0.1111501E+001  0.2553291E+03  0.7818608E-02  0.1109983E+00
         -2   -1    0    0    0  501 -0.00000000000E+00  0.00000000000E+00  0.88454701758E+01  0.88454701758E+01  0.00000000000E+00 0. -1.
          2   -1    0    0  501    0  0.00000000000E+00 -0.00000000000E+00 -0.18425519839E+04  0.18425519839E+04  0.00000000000E+00 0. -1.
         25    1    1    2    0    0 -0.26910022845E+02 -0.33486398305E+02 -0.86418944494E+03  0.87353814167E+03  0.12000000000E+03 0.  0.
         25    1    1    2    0    0  0.26910022845E+02  0.33486398305E+02 -0.96951706876E+03  0.97785931239E+03  0.12000000000E+03 0.  0.
<mgrwt>
<rscale>  0 0.25532911E+03</rscale>
<asrwt>0</asrwt>
<pdfrwt beam="1">  1        2 0.28346961E+00 0.25532911E+03</pdfrwt>
<pdfrwt beam="2">  1       -2 0.13608412E-02 0.25532911E+03</pdfrwt>
<totfact> 0.12208082E+04</totfact>
</mgrwt>
</event>
<event>
 5    1  0.1111501E+001  0.2744949E+03  0.7818608E-02  0.1098734E+00
          2   -1    0    0  501    0  0.00000000000E+00  0.00000000000E+00  0.42223193844E+03  0.42223193844E+03  0.00000000000E+00 0. -1.
         -2   -1    0    0    0  501 -0.00000000000E+00 -0.00000000000E+00 -0.44612606030E+02  0.44612606030E+02  0.00000000000E+00 0. -1.
         35    2    1    2    0    0  0.00000000000E+00  0.00000000000E+00  0.37761933241E+03  0.46684454447E+03  0.27449493345E+03 0.  0.
         25    1    3    3    0    0 -0.50000948802E+02  0.18956983403E+02  0.12126212191E+03  0.17878468701E+03  0.12000000000E+03 0.  0.
         25    1    3    3    0    0  0.50000948802E+02 -0.18956983403E+02  0.25635721050E+03  0.28805985746E+03  0.12000000000E+03 0.  0.
<mgrwt>
<rscale>  0 0.27449493E+03</rscale>
<asrwt>0</asrwt>
<pdfrwt beam="1">  1        2 0.64958757E-01 0.27449493E+03</pdfrwt>
<pdfrwt beam="2">  1       -2 0.68634781E-02 0.27449493E+03</pdfrwt>
<totfact> 0.89777664E+03</totfact>
</mgrwt>
</event>
<event>
 5    1  0.1111501E+001  0.2747093E+03  0.7818608E-02  0.1098614E+00
          3   -1    0    0  501    0  0.00000000000E+00  0.00000000000E+00  0.13874087344E+03  0.13874087344E+03  0.00000000000E+00 0.  1.
         -3   -1    0    0    0  501 -0.00000000000E+00 -0.00000000000E+00 -0.13598229006E+03  0.13598229006E+03  0.00000000000E+00 0.  1.
         35    2    1    2    0    0  0.00000000000E+00  0.00000000000E+00  0.27585833770E+01  0.27472316349E+03  0.27470931323E+03 0.  0.
         25    1    3    3    0    0  0.26805102495E+02  0.11169586513E+02 -0.58815341393E+02  0.13675714813E+03  0.12000000000E+03 0.  0.
         25    1    3    3    0    0 -0.26805102495E+02 -0.11169586513E+02  0.61573924770E+02  0.13796601536E+03  0.12000000000E+03 0.  0.
<mgrwt>
<rscale>  0 0.27470931E+03</rscale>
<asrwt>0</asrwt>
<pdfrwt beam="1">  1        3 0.21344750E-01 0.27470931E+03</pdfrwt>
<pdfrwt beam="2">  1       -3 0.20920352E-01 0.27470931E+03</pdfrwt>
<totfact> 0.10527344E+03</totfact>
</mgrwt>
</event>
<event>
 5    1  0.1111501E+001  0.2756589E+03  0.7818608E-02  0.1098084E+00
          2   -1    0    0  501    0  0.00000000000E+00  0.00000000000E+00  0.26582426930E+04  0.26582426930E+04  0.00000000000E+00 0. -1.
         -2   -1    0    0    0  501 -0.00000000000E+00 -0.00000000000E+00 -0.71464336355E+01  0.71464336355E+01  0.00000000000E+00 0. -1.
         35    2    1    2    0    0  0.00000000000E+00  0.00000000000E+00  0.26510962594E+04  0.26653891267E+04  0.27565888335E+03 0.  0.
         25    1    3    3    0    0 -0.17278491815E+02 -0.51961177829E+02  0.17121264002E+04  0.17171998487E+04  0.12000000000E+03 0.  0.
         25    1    3    3    0    0  0.17278491815E+02  0.51961177829E+02  0.93896985922E+03  0.94818927794E+03  0.12000000000E+03 0.  0.
<mgrwt>
<rscale>  0 0.27565888E+03</rscale>
<asrwt>0</asrwt>
<pdfrwt beam="1">  1        2 0.40895963E+00 0.27565888E+03</pdfrwt>
<pdfrwt beam="2">  1       -2 0.10994534E-02 0.27565888E+03</pdfrwt>
<totfact> 0.60872795E+03</totfact>
</mgrwt>
</event>
<event>
 5    1  0.1111501E+001  0.2741779E+03  0.7818608E-02  0.1098912E+00
          2   -1    0    0  501    0  0.00000000000E+00  0.00000000000E+00  0.47204792702E+03  0.47204792702E+03  0.00000000000E+00 0.  1.
         -2   -1    0    0    0  501 -0.00000000000E+00 -0.00000000000E+00 -0.39812440392E+02  0.39812440392E+02  0.00000000000E+00 0.  1.
         35    2    1    2    0    0  0.00000000000E+00  0.00000000000E+00  0.43223548663E+03  0.51186036742E+03  0.27417789814E+03 0.  0.
         25    1    3    3    0    0  0.53636463499E+02  0.12852516665E+02  0.14749018078E+03  0.19797830898E+03  0.12000000000E+03 0.  0.
         25    1    3    3    0    0 -0.53636463499E+02 -0.12852516665E+02  0.28474530585E+03  0.31388205843E+03  0.12000000000E+03 0.  0.
<mgrwt>
<rscale>  0 0.27417790E+03</rscale>
<asrwt>0</asrwt>
<pdfrwt beam="1">  1        2 0.72622754E-01 0.27417790E+03</pdfrwt>
<pdfrwt beam="2">  1       -2 0.61249912E-02 0.27417790E+03</pdfrwt>
<totfact> 0.94637902E+03</totfact>
</mgrwt>
</event>
<event>
 5    1  0.1111501E+001  0.2743964E+03  0.7818608E-02  0.1098789E+00
         -2   -1    0    0    0  501 -0.00000000000E+00  0.00000000000E+00  0.70155201051E+01  0.70155201051E+01  0.00000000000E+00 0.  1.
          2   -1    0    0  501    0  0.00000000000E+00 -0.00000000000E+00 -0.26830997583E+04  0.26830997583E+04  0.00000000000E+00 0.  1.
         35    2    1    2    0    0  0.00000000000E+00  0.00000000000E+00 -0.26760842382E+04  0.26901152784E+04  0.27439635784E+03 0.  0.
         25    1    3    3    0    0  0.22396198608E+02 -0.46752479955E+01 -0.19502781353E+04  0.19541003692E+04  0.12000000000E+03 0.  0.
         25    1    3    3    0    0 -0.22396198608E+02  0.46752479955E+01 -0.72580610286E+03  0.73601490923E+03  0.12000000000E+03 0.  0.
<mgrwt>
<rscale>  0 0.27439636E+03</rscale>
<asrwt>0</asrwt>
<pdfrwt beam="1">  1        2 0.41278400E+00 0.27439636E+03</pdfrwt>
<pdfrwt beam="2">  1       -2 0.10793123E-02 0.27439636E+03</pdfrwt>
<totfact> 0.60559616E+03</totfact>
</mgrwt>
</event>
<event>
 5    1  0.1111501E+001  0.2750869E+03  0.7818608E-02  0.1098403E+00
          3   -1    0    0  501    0  0.00000000000E+00  0.00000000000E+00  0.25667023666E+03  0.25667023666E+03  0.00000000000E+00 0. -1.
         -3   -1    0    0    0  501 -0.00000000000E+00 -0.00000000000E+00 -0.73706246592E+02  0.73706246592E+02  0.00000000000E+00 0. -1.
         35    2    1    2    0    0  0.00000000000E+00  0.00000000000E+00  0.18296399007E+03  0.33037648326E+03  0.27508689359E+03 0.  0.
         25    1    3    3    0    0  0.63659687648E+02 -0.18073070425E+02  0.10564186298E+03  0.17303004051E+03  0.12000000000E+03 0.  0.
         25    1    3    3    0    0 -0.63659687648E+02  0.18073070425E+02  0.77322127092E+02  0.15734644274E+03  0.12000000000E+03 0.  0.
<mgrwt>
<rscale>  0 0.27508689E+03</rscale>
<asrwt>0</asrwt>
<pdfrwt beam="1">  1        3 0.39487728E-01 0.27508689E+03</pdfrwt>
<pdfrwt beam="2">  1       -3 0.11339423E-01 0.27508689E+03</pdfrwt>
<totfact> 0.96818553E+02</totfact>
</mgrwt>
</event>
<event>
 5    1  0.1111501E+001  0.2727587E+03  0.7818608E-02  0.1099711E+00
         -2   -1    0    0    0  501 -0.00000000000E+00  0.00000000000E+00  0.95322358805E+02  0.95322358805E+02  0.00000000000E+00 0.  1.
          2   -1    0    0  501    0  0.00000000000E+00 -0.00000000000E+00 -0.19512032847E+03  0.19512032847E+03  0.00000000000E+00 0.  1.
         35    2    1    2    0    0  0.00000000000E+00  0.00000000000E+00 -0.99797969662E+02  0.29044268727E+03  0.27275872093E+03 0.  0.
         25    1    3    3    0    0  0.40058398795E+01 -0.99819264758E+01 -0.11794547936E+03  0.16860255547E+03  0.12000000000E+03 0.  0.
         25    1    3    3    0    0 -0.40058398795E+01  0.99819264758E+01  0.18147509699E+02  0.12184013180E+03  0.12000000000E+03 0.  0.
<mgrwt>
<rscale>  0 0.27275872E+03</rscale>
<asrwt>0</asrwt>
<pdfrwt beam="1">  1        2 0.30018512E-01 0.27275872E+03</pdfrwt>
<pdfrwt beam="2">  1       -2 0.14664979E-01 0.27275872E+03</pdfrwt>
<totfact> 0.61790975E+03</totfact>
</mgrwt>
</event>
<event>
 5    1  0.1111501E+001  0.2663612E+03  0.7818608E-02  0.1103380E+00
          2   -1    0    0  501    0  0.00000000000E+00  0.00000000000E+00  0.95327738224E+03  0.95327738224E+03  0.00000000000E+00 0. -1.
         -2   -1    0    0    0  501 -0.00000000000E+00 -0.00000000000E+00 -0.18606409409E+02  0.18606409409E+02  0.00000000000E+00 0. -1.
         35    2    1    2    0    0  0.00000000000E+00  0.00000000000E+00  0.93467097283E+03  0.97188379164E+03  0.26636117776E+03 0.  0.
         25    1    3    3    0    0  0.32517847588E+02 -0.31321506134E+02  0.33584788386E+03  0.35948887083E+03  0.12000000000E+03 0.  0.
         25    1    3    3    0    0 -0.32517847588E+02  0.31321506134E+02  0.59882308896E+03  0.61239492081E+03  0.12000000000E+03 0.  0.
<mgrwt>
<rscale>  0 0.26636118E+03</rscale>
<asrwt>0</asrwt>
<pdfrwt beam="1">  1        2 0.14665802E+00 0.26636118E+03</pdfrwt>
<pdfrwt beam="2">  1       -2 0.28625253E-02 0.26636118E+03</pdfrwt>
<totfact> 0.12703298E+04</totfact>
</mgrwt>
</event>
<event>
 5    1  0.1111501E+001  0.2752751E+03  0.7818608E-02  0.1098298E+00
         -1   -1    0    0    0  501 -0.00000000000E+00  0.00000000000E+00  0.66879416314E+03  0.66879416314E+03  0.00000000000E+00 0.  1.
          1   -1    0    0  501    0  0.00000000000E+00 -0.00000000000E+00 -0.28325749149E+02  0.28325749149E+02  0.00000000000E+00 0.  1.
         35    2    1    2    0    0  0.00000000000E+00  0.00000000000E+00  0.64046841399E+03  0.69711991228E+03  0.27527510383E+03 0.  0.
         25    1    3    3    0    0 -0.54560208303E+02 -0.11425467310E+02  0.22424346433E+03  0.26036990788E+03  0.12000000000E+03 0.  0.
         25    1    3    3    0    0  0.54560208303E+02  0.11425467310E+02  0.41622494966E+03  0.43675000441E+03  0.12000000000E+03 0.  0.
<mgrwt>
<rscale>  0 0.27527510E+03</rscale>
<asrwt>0</asrwt>
<pdfrwt beam="1">  1        1 0.43578081E-02 0.27527510E+03</pdfrwt>
<pdfrwt beam="2">  1       -1 0.10289140E+00 0.27527510E+03</pdfrwt>
<totfact> 0.19045974E+03</totfact>
</mgrwt>
</event>
<event>
 5    1  0.1111501E+001  0.2755814E+03  0.7818608E-02  0.1098127E+00
         -2   -1    0    0    0  501 -0.00000000000E+00  0.00000000000E+00  0.83320992358E+01  0.83320992358E+01  0.00000000000E+00 0. -1.
          2   -1    0    0  501    0  0.00000000000E+00 -0.00000000000E+00 -0.22786905879E+04  0.22786905879E+04  0.00000000000E+00 0. -1.
         35    2    1    2    0    0  0.00000000000E+00  0.00000000000E+00 -0.22703584886E+04  0.22870226871E+04  0.27558139346E+03 0.  0.
         25    1    3    3    0    0 -0.58242442300E+02  0.10966746457E+02 -0.86323038982E+03  0.87354402151E+03  0.12000000000E+03 0.  0.
         25    1    3    3    0    0  0.58242442300E+02 -0.10966746457E+02 -0.14071280988E+04  0.14134786656E+04  0.12000000000E+03 0.  0.
<mgrwt>
<rscale>  0 0.27558139E+03</rscale>
<asrwt>0</asrwt>
<pdfrwt beam="1">  1        2 0.35056753E+00 0.27558139E+03</pdfrwt>
<pdfrwt beam="2">  1       -2 0.12818623E-02 0.27558139E+03</pdfrwt>
<totfact> 0.78479077E+03</totfact>
</mgrwt>
</event>
<event>
 5    1  0.1111501E+001  0.2756800E+03  0.7818608E-02  0.1098072E+00
         -2   -1    0    0    0  501 -0.00000000000E+00  0.00000000000E+00  0.21717610190E+02  0.21717610190E+02  0.00000000000E+00 0. -1.
          2   -1    0    0  501    0  0.00000000000E+00 -0.00000000000E+00 -0.87485963533E+03  0.87485963533E+03  0.00000000000E+00 0. -1.
         35    2    1    2    0    0  0.00000000000E+00  0.00000000000E+00 -0.85314202514E+03  0.89657724552E+03  0.27567996322E+03 0.  0.
         25    1    3    3    0    0 -0.65467467059E+02 -0.21554017130E+01 -0.36938100124E+03  0.39386921570E+03  0.12000000000E+03 0.  0.
         25    1    3    3    0    0  0.65467467059E+02  0.21554017130E+01 -0.48376102390E+03  0.50270802982E+03  0.12000000000E+03 0.  0.
<mgrwt>
<rscale>  0 0.27567996E+03</rscale>
<asrwt>0</asrwt>
<pdfrwt beam="1">  1        2 0.13459378E+00 0.27567996E+03</pdfrwt>
<pdfrwt beam="2">  1       -2 0.33411710E-02 0.27567996E+03</pdfrwt>
<totfact> 0.11341111E+04</totfact>
</mgrwt>
</event>
<event>
 5    1  0.1111501E+001  0.2747759E+03  0.7818608E-02  0.1098577E+00
         -2   -1    0    0    0  501 -0.00000000000E+00  0.00000000000E+00  0.13105008829E+03  0.13105008829E+03  0.00000000000E+00 0. -1.
          2   -1    0    0  501    0  0.00000000000E+00 -0.00000000000E+00 -0.14403234087E+03  0.14403234087E+03  0.00000000000E+00 0. -1.
         35    2    1    2    0    0  0.00000000000E+00  0.00000000000E+00 -0.12982252581E+02  0.27508242916E+03  0.27477591588E+03 0.  0.
         25    1    3    3    0    0 -0.32442445884E+02 -0.96570705744E+01  0.51276618660E+02  0.13481492101E+03  0.12000000000E+03 0.  0.
         25    1    3    3    0    0  0.32442445884E+02  0.96570705744E+01 -0.64258871241E+02  0.14026750814E+03  0.12000000000E+03 0.  0.
<mgrwt>
<rscale>  0 0.27477592E+03</rscale>
<asrwt>0</asrwt>
<pdfrwt beam="1">  1        2 0.22158822E-01 0.27477592E+03</pdfrwt>
<pdfrwt beam="2">  1       -2 0.20161552E-01 0.27477592E+03</pdfrwt>
<totfact> 0.50798695E+03</totfact>
</mgrwt>
</event>
<event>
 5    1  0.1111501E+001  0.2751301E+03  0.7818608E-02  0.1098379E+00
          2   -1    0    0  501    0  0.00000000000E+00  0.00000000000E+00  0.34071419078E+03  0.34071419078E+03  0.00000000000E+00 0.  1.
         -2   -1    0    0    0  501 -0.00000000000E+00 -0.00000000000E+00 -0.55542589408E+02  0.55542589408E+02  0.00000000000E+00 0.  1.
         35    2    1    2    0    0  0.00000000000E+00  0.00000000000E+00  0.28517160137E+03  0.39625678019E+03  0.27513013942E+03 0.  0.
         25    1    3    3    0    0 -0.48477632337E+02 -0.29597633150E+02  0.19447582337E+03  0.23547175330E+03  0.12000000000E+03 0.  0.
         25    1    3    3    0    0  0.48477632337E+02  0.29597633150E+02  0.90695778001E+02  0.16078502689E+03  0.12000000000E+03 0.  0.
<mgrwt>
<rscale>  0 0.27513014E+03</rscale>
<asrwt>0</asrwt>
<pdfrwt beam="1">  1        2 0.52417566E-01 0.27513014E+03</pdfrwt>
<pdfrwt beam="2">  1       -2 0.85450140E-02 0.27513014E+03</pdfrwt>
<totfact> 0.80525235E+03</totfact>
</mgrwt>
</event>
<event>
 5    1  0.1111501E+001  0.2751296E+03  0.7818608E-02  0.1098379E+00
         -1   -1    0    0    0  501 -0.00000000000E+00  0.00000000000E+00  0.72392429350E+01  0.72392429350E+01  0.00000000000E+00 0. -1.
          1   -1    0    0  501    0  0.00000000000E+00 -0.00000000000E+00 -0.26140960998E+04  0.26140960998E+04  0.00000000000E+00 0. -1.
         35    2    1    2    0    0  0.00000000000E+00  0.00000000000E+00 -0.26068568569E+04  0.26213353428E+04  0.27512961834E+03 0.  0.
         25    1    3    3    0    0 -0.77521863189E+01 -0.54207449642E+02 -0.16755595592E+04  0.16807434011E+04  0.12000000000E+03 0.  0.
         25    1    3    3    0    0  0.77521863189E+01  0.54207449642E+02 -0.93129729772E+03  0.94059194166E+03  0.12000000000E+03 0.  0.
<mgrwt>
<rscale>  0 0.27512962E+03</rscale>
<asrwt>0</asrwt>
<pdfrwt beam="1">  1        1 0.40216870E+00 0.27512962E+03</pdfrwt>
<pdfrwt beam="2">  1       -1 0.11137295E-02 0.27512962E+03</pdfrwt>
<totfact> 0.21406524E+03</totfact>
</mgrwt>
</event>
<event>
 5    1  0.1111501E+001  0.2752075E+03  0.7818608E-02  0.1098336E+00
         -2   -1    0    0    0  501 -0.00000000000E+00  0.00000000000E+00  0.11188225599E+02  0.11188225599E+02  0.00000000000E+00 0.  1.
          2   -1    0    0  501    0  0.00000000000E+00 -0.00000000000E+00 -0.16923855924E+04  0.16923855924E+04  0.00000000000E+00 0.  1.
         35    2    1    2    0    0  0.00000000000E+00  0.00000000000E+00 -0.16811973668E+04  0.17035738180E+04  0.27520749850E+03 0.  0.
         25    1    3    3    0    0  0.56592889911E+02 -0.17992642244E+02 -0.10371590207E+04  0.10457654252E+04  0.12000000000E+03 0.  0.
         25    1    3    3    0    0 -0.56592889911E+02  0.17992642244E+02 -0.64403834613E+03  0.65780839281E+03  0.12000000000E+03 0.  0.
<mgrwt>
<rscale>  0 0.27520750E+03</rscale>
<asrwt>0</asrwt>
<pdfrwt beam="1">  1        2 0.26036701E+00 0.27520750E+03</pdfrwt>
<pdfrwt beam="2">  1       -2 0.17212655E-02 0.27520750E+03</pdfrwt>
<totfact> 0.10396374E+04</totfact>
</mgrwt>
</event>
<event>
 5    1  0.1111501E+001  0.2797106E+03  0.7818608E-02  0.1095847E+00
         -2   -1    0    0    0  501 -0.00000000000E+00  0.00000000000E+00  0.10436990608E+02  0.10436990608E+02  0.00000000000E+00 0. -1.
          2   -1    0    0  501    0  0.00000000000E+00 -0.00000000000E+00 -0.18740562014E+04  0.18740562014E+04  0.00000000000E+00 0. -1.
         35    2    1    2    0    0  0.00000000000E+00  0.00000000000E+00 -0.18636192108E+04  0.18844931920E+04  0.27971061455E+03 0.  0.
         25    1    3    3    0    0  0.17326045448E+02 -0.63372478165E+02 -0.73616751716E+03  0.74877157809E+03  0.12000000000E+03 0.  0.
         25    1    3    3    0    0 -0.17326045448E+02  0.63372478165E+02 -0.11274516937E+04  0.11357216139E+04  0.12000000000E+03 0.  0.
<mgrwt>
<rscale>  0 0.27971061E+03</rscale>
<asrwt>0</asrwt>
<pdfrwt beam="1">  1        2 0.28831663E+00 0.27971061E+03</pdfrwt>
<pdfrwt beam="2">  1       -2 0.16056893E-02 0.27971061E+03</pdfrwt>
<totfact> 0.92415214E+03</totfact>
</mgrwt>
</event>
<event>
 5    1  0.1111501E+001  0.2754848E+03  0.7818608E-02  0.1098181E+00
          2   -1    0    0  501    0  0.00000000000E+00  0.00000000000E+00  0.26477225077E+04  0.26477225077E+04  0.00000000000E+00 0.  1.
         -2   -1    0    0    0  501 -0.00000000000E+00 -0.00000000000E+00 -0.71657688049E+01  0.71657688049E+01  0.00000000000E+00 0.  1.
         35    2    1    2    0    0  0.00000000000E+00  0.00000000000E+00  0.26405567389E+04  0.26548882765E+04  0.27548478978E+03 0.  0.
         25    1    3    3    0    0 -0.60063030440E+02 -0.15676232918E+02  0.10617483776E+04  0.10703097352E+04  0.12000000000E+03 0.  0.
         25    1    3    3    0    0  0.60063030440E+02  0.15676232918E+02  0.15788083613E+04  0.15845785413E+04  0.12000000000E+03 0.  0.
<mgrwt>
<rscale>  0 0.27548479E+03</rscale>
<asrwt>0</asrwt>
<pdfrwt beam="1">  1        2 0.40734114E+00 0.27548479E+03</pdfrwt>
<pdfrwt beam="2">  1       -2 0.11024281E-02 0.27548479E+03</pdfrwt>
<totfact> 0.61461649E+03</totfact>
</mgrwt>
</event>
<event>
 5    1  0.1111501E+001  0.2743551E+03  0.7818608E-02  0.1098813E+00
          2   -1    0    0  501    0  0.00000000000E+00  0.00000000000E+00  0.14242573148E+04  0.14242573148E+04  0.00000000000E+00 0. -1.
         -2   -1    0    0    0  501 -0.00000000000E+00 -0.00000000000E+00 -0.13212278208E+02  0.13212278208E+02  0.00000000000E+00 0. -1.
         35    2    1    2    0    0  0.00000000000E+00  0.00000000000E+00  0.14110450366E+04  0.14374695930E+04  0.27435512668E+03 0.  0.
         25    1    3    3    0    0 -0.64688261897E+01  0.54460000110E+02  0.90225991161E+03  0.91185562751E+03  0.12000000000E+03 0.  0.
         25    1    3    3    0    0  0.64688261897E+01 -0.54460000110E+02  0.50878512501E+03  0.52561396552E+03  0.12000000000E+03 0.  0.
<mgrwt>
<rscale>  0 0.27435513E+03</rscale>
<asrwt>0</asrwt>
<pdfrwt beam="1">  1        2 0.21911639E+00 0.27435513E+03</pdfrwt>
<pdfrwt beam="2">  1       -2 0.20326593E-02 0.27435513E+03</pdfrwt>
<totfact> 0.11312520E+04</totfact>
</mgrwt>
</event>
<event>
 5    1  0.1111501E+001  0.2740696E+03  0.7818608E-02  0.1098973E+00
         -2   -1    0    0    0  501 -0.00000000000E+00  0.00000000000E+00  0.16864579665E+02  0.16864579665E+02  0.00000000000E+00 0.  1.
          2   -1    0    0  501    0  0.00000000000E+00 -0.00000000000E+00 -0.11134899980E+04  0.11134899980E+04  0.00000000000E+00 0.  1.
         35    2    1    2    0    0  0.00000000000E+00  0.00000000000E+00 -0.10966254183E+04  0.11303545777E+04  0.27406963187E+03 0.  0.
         25    1    3    3    0    0  0.51874841519E+02  0.39805179187E+02 -0.59018826520E+03  0.60580330129E+03  0.12000000000E+03 0.  0.
         25    1    3    3    0    0 -0.51874841519E+02 -0.39805179187E+02 -0.50643715314E+03  0.52455127638E+03  0.12000000000E+03 0.  0.
<mgrwt>
<rscale>  0 0.27406963E+03</rscale>
<asrwt>0</asrwt>
<pdfrwt beam="1">  1        2 0.17130620E+00 0.27406963E+03</pdfrwt>
<pdfrwt beam="2">  1       -2 0.25945499E-02 0.27406963E+03</pdfrwt>
<totfact> 0.11773182E+04</totfact>
</mgrwt>
</event>
<event>
 5    1  0.1111501E+001  0.2712128E+03  0.7818608E-02  0.1100587E+00
         -1   -1    0    0    0  501 -0.00000000000E+00  0.00000000000E+00  0.15426174366E+02  0.15426174366E+02  0.00000000000E+00 0.  1.
          1   -1    0    0  501    0  0.00000000000E+00 -0.00000000000E+00 -0.11920714307E+04  0.11920714307E+04  0.00000000000E+00 0.  1.
         35    2    1    2    0    0  0.00000000000E+00  0.00000000000E+00 -0.11766452563E+04  0.12074976051E+04  0.27121284444E+03 0.  0.
         25    1    3    3    0    0 -0.55745961342E+02  0.27228899135E+02 -0.53562891420E+03  0.55240144721E+03  0.12000000000E+03 0.  0.
         25    1    3    3    0    0  0.55745961342E+02 -0.27228899135E+02 -0.64101634213E+03  0.65509615785E+03  0.12000000000E+03 0.  0.
<mgrwt>
<rscale>  0 0.27121284E+03</rscale>
<asrwt>0</asrwt>
<pdfrwt beam="1">  1        1 0.18339556E+00 0.27121284E+03</pdfrwt>
<pdfrwt beam="2">  1       -1 0.23732581E-02 0.27121284E+03</pdfrwt>
<totfact> 0.61806489E+03</totfact>
</mgrwt>
</event>
<event>
 5    1  0.1111501E+001  0.2749802E+03  0.7818608E-02  0.1098463E+00
          2   -1    0    0  501    0  0.00000000000E+00  0.00000000000E+00  0.25843500261E+02  0.25843500261E+02  0.00000000000E+00 0. -1.
         -2   -1    0    0    0  501 -0.00000000000E+00 -0.00000000000E+00 -0.73146175357E+03  0.73146175357E+03  0.00000000000E+00 0. -1.
         35    2    1    2    0    0  0.00000000000E+00  0.00000000000E+00 -0.70561825331E+03  0.75730525383E+03  0.27498023216E+03 0.  0.
         25    1    3    3    0    0 -0.11162658515E+02  0.81906576272E+01 -0.17196649257E+03  0.21015272157E+03  0.12000000000E+03 0.  0.
         25    1    3    3    0    0  0.11162658515E+02 -0.81906576272E+01 -0.53365176074E+03  0.54715253226E+03  0.12000000000E+03 0.  0.
<mgrwt>
<rscale>  0 0.27498023E+03</rscale>
<asrwt>0</asrwt>
<pdfrwt beam="1">  1        2 0.39759235E-02 0.27498023E+03</pdfrwt>
<pdfrwt beam="2">  1       -2 0.11253257E+00 0.27498023E+03</pdfrwt>
<totfact> 0.13851407E+03</totfact>
</mgrwt>
</event>
<event>
 5    1  0.1111501E+001  0.2754723E+03  0.7818608E-02  0.1098188E+00
         -2   -1    0    0    0  501 -0.00000000000E+00  0.00000000000E+00  0.17493388309E+03  0.17493388309E+03  0.00000000000E+00 0. -1.
          2   -1    0    0  501    0  0.00000000000E+00 -0.00000000000E+00 -0.10844813709E+03  0.10844813709E+03  0.00000000000E+00 0. -1.
         35    2    1    2    0    0  0.00000000000E+00  0.00000000000E+00  0.66485745997E+02  0.28338202017E+03  0.27547234877E+03 0.  0.
         25    1    3    3    0    0  0.44258526320E+02 -0.48584114764E+02  0.16911898275E+02  0.13785951423E+03  0.12000000000E+03 0.  0.
         25    1    3    3    0    0 -0.44258526320E+02  0.48584114764E+02  0.49573847722E+02  0.14552250595E+03  0.12000000000E+03 0.  0.
<mgrwt>
<rscale>  0 0.27547235E+03</rscale>
<asrwt>0</asrwt>
<pdfrwt beam="1">  1        2 0.16684329E-01 0.27547235E+03</pdfrwt>
<pdfrwt beam="2">  1       -2 0.26912905E-01 0.27547235E+03</pdfrwt>
<totfact> 0.42517012E+03</totfact>
</mgrwt>
</event>
<event>
 5    1  0.1111501E+001  0.2741328E+03  0.7818608E-02  0.1098937E+00
          2   -1    0    0  501    0  0.00000000000E+00  0.00000000000E+00  0.39574250448E+03  0.39574250448E+03  0.00000000000E+00 0. -1.
         -2   -1    0    0    0  501 -0.00000000000E+00 -0.00000000000E+00 -0.47473304177E+02  0.47473304177E+02  0.00000000000E+00 0. -1.
         35    2    1    2    0    0  0.00000000000E+00  0.00000000000E+00  0.34826920030E+03  0.44321580866E+03  0.27413284583E+03 0.  0.
         25    1    3    3    0    0 -0.24550082196E+02 -0.46266219148E+02  0.10858101448E+03  0.17009734353E+03  0.12000000000E+03 0.  0.
         25    1    3    3    0    0  0.24550082196E+02  0.46266219148E+02  0.23968818583E+03  0.27311846513E+03  0.12000000000E+03 0.  0.
<mgrwt>
<rscale>  0 0.27413285E+03</rscale>
<asrwt>0</asrwt>
<pdfrwt beam="1">  1        2 0.60883460E-01 0.27413285E+03</pdfrwt>
<pdfrwt beam="2">  1       -2 0.73035855E-02 0.27413285E+03</pdfrwt>
<totfact> 0.87491410E+03</totfact>
</mgrwt>
</event>
<event>
 5    1  0.1111501E+001  0.2745544E+03  0.7818608E-02  0.1098701E+00
         -1   -1    0    0    0  501 -0.00000000000E+00  0.00000000000E+00  0.51487447384E+02  0.51487447384E+02  0.00000000000E+00 0. -1.
          1   -1    0    0  501    0  0.00000000000E+00 -0.00000000000E+00 -0.36601217357E+03  0.36601217357E+03  0.00000000000E+00 0. -1.
         35    2    1    2    0    0  0.00000000000E+00  0.00000000000E+00 -0.31452472619E+03  0.41749962096E+03  0.27455442104E+03 0.  0.
         25    1    3    3    0    0  0.42727101561E+02  0.37586321964E+02 -0.21008578491E+03  0.24854451076E+03  0.12000000000E+03 0.  0.
         25    1    3    3    0    0 -0.42727101561E+02 -0.37586321964E+02 -0.10443894128E+03  0.16895511020E+03  0.12000000000E+03 0.  0.
<mgrwt>
<rscale>  0 0.27455442E+03</rscale>
<asrwt>0</asrwt>
<pdfrwt beam="1">  1        1 0.56309563E-01 0.27455442E+03</pdfrwt>
<pdfrwt beam="2">  1       -1 0.79211460E-02 0.27455442E+03</pdfrwt>
<totfact> 0.59036554E+03</totfact>
</mgrwt>
</event>
<event>
 5    1  0.1111501E+001  0.2761134E+03  0.7818608E-02  0.1097831E+00
          3   -1    0    0  501    0  0.00000000000E+00  0.00000000000E+00  0.63011418091E+03  0.63011418091E+03  0.00000000000E+00 0.  1.
         -3   -1    0    0    0  501 -0.00000000000E+00 -0.00000000000E+00 -0.30247931752E+02  0.30247931752E+02  0.00000000000E+00 0.  1.
         35    2    1    2    0    0  0.00000000000E+00  0.00000000000E+00  0.59986624916E+03  0.66036211266E+03  0.27611338787E+03 0.  0.
         25    1    3    3    0    0 -0.31302680496E+02 -0.22131815900E+02  0.16485395933E+03  0.20747651190E+03  0.12000000000E+03 0.  0.
         25    1    3    3    0    0  0.31302680496E+02  0.22131815900E+02  0.43501228983E+03  0.45288560077E+03  0.12000000000E+03 0.  0.
<mgrwt>
<rscale>  0 0.27611339E+03</rscale>
<asrwt>0</asrwt>
<pdfrwt beam="1">  1        3 0.96940633E-01 0.27611339E+03</pdfrwt>
<pdfrwt beam="2">  1       -3 0.46535284E-02 0.27611339E+03</pdfrwt>
<totfact> 0.63159088E+02</totfact>
</mgrwt>
</event>
<event>
 5    1  0.1111501E+001  0.2755487E+03  0.7818608E-02  0.1098145E+00
         -3   -1    0    0    0  501 -0.00000000000E+00  0.00000000000E+00  0.44478442299E+02  0.44478442299E+02  0.00000000000E+00 0.  1.
          3   -1    0    0  501    0  0.00000000000E+00 -0.00000000000E+00 -0.42676337383E+03  0.42676337383E+03  0.00000000000E+00 0.  1.
         35    2    1    2    0    0  0.00000000000E+00  0.00000000000E+00 -0.38228493153E+03  0.47124181613E+03  0.27554868970E+03 0.  0.
         25    1    3    3    0    0  0.78389129777E+01  0.14113321232E+02 -0.30356268390E+03  0.32681942637E+03  0.12000000000E+03 0.  0.
         25    1    3    3    0    0 -0.78389129777E+01 -0.14113321232E+02 -0.78722247629E+02  0.14442238976E+03  0.12000000000E+03 0.  0.
<mgrwt>
<rscale>  0 0.27554869E+03</rscale>
<asrwt>0</asrwt>
<pdfrwt beam="1">  1        3 0.65655903E-01 0.27554869E+03</pdfrwt>
<pdfrwt beam="2">  1       -3 0.68428374E-02 0.27554869E+03</pdfrwt>
<totfact> 0.79817234E+02</totfact>
</mgrwt>
</event>
<event>
 5    1  0.1111501E+001  0.2765638E+03  0.7818608E-02  0.1097581E+00
          3   -1    0    0  501    0  0.00000000000E+00  0.00000000000E+00  0.19570540506E+02  0.19570540506E+02  0.00000000000E+00 0. -1.
         -3   -1    0    0    0  501 -0.00000000000E+00 -0.00000000000E+00 -0.97707490646E+03  0.97707490646E+03  0.00000000000E+00 0. -1.
         35    2    1    2    0    0  0.00000000000E+00  0.00000000000E+00 -0.95750436595E+03  0.99664544696E+03  0.27656380120E+03 0.  0.
         25    1    3    3    0    0 -0.23215986452E+02 -0.64508096316E+02 -0.46200091135E+03  0.48222932159E+03  0.12000000000E+03 0.  0.
         25    1    3    3    0    0  0.23215986452E+02  0.64508096316E+02 -0.49550345460E+03  0.51441612537E+03  0.12000000000E+03 0.  0.
<mgrwt>
<rscale>  0 0.27656380E+03</rscale>
<asrwt>0</asrwt>
<pdfrwt beam="1">  1        3 0.30108515E-02 0.27656380E+03</pdfrwt>
<pdfrwt beam="2">  1       -3 0.15031926E+00 0.27656380E+03</pdfrwt>
<totfact> 0.43707294E+02</totfact>
</mgrwt>
</event>
<event>
 5    1  0.1111501E+001  0.2747766E+03  0.7818608E-02  0.1098577E+00
          2   -1    0    0  501    0  0.00000000000E+00  0.00000000000E+00  0.22519510651E+04  0.22519510651E+04  0.00000000000E+00 0. -1.
         -2   -1    0    0    0  501 -0.00000000000E+00 -0.00000000000E+00 -0.83818636020E+01  0.83818636020E+01  0.00000000000E+00 0. -1.
         35    2    1    2    0    0  0.00000000000E+00  0.00000000000E+00  0.22435692015E+04  0.22603329287E+04  0.27477661229E+03 0.  0.
         25    1    3    3    0    0  0.53911632135E+02  0.39557533315E+02  0.11388110741E+04  0.11470666611E+04  0.12000000000E+03 0.  0.
         25    1    3    3    0    0 -0.53911632135E+02 -0.39557533315E+02  0.11047581273E+04  0.11132662675E+04  0.12000000000E+03 0.  0.
<mgrwt>
<rscale>  0 0.27477661E+03</rscale>
<asrwt>0</asrwt>
<pdfrwt beam="1">  1        2 0.34645353E+00 0.27477661E+03</pdfrwt>
<pdfrwt beam="2">  1       -2 0.12895193E-02 0.27477661E+03</pdfrwt>
<totfact> 0.80404202E+03</totfact>
</mgrwt>
</event>
<event>
 5    1  0.1111501E+001  0.2755820E+03  0.7818608E-02  0.1098127E+00
          1   -1    0    0  501    0  0.00000000000E+00  0.00000000000E+00  0.24940156792E+03  0.24940156792E+03  0.00000000000E+00 0.  1.
         -1   -1    0    0    0  501 -0.00000000000E+00 -0.00000000000E+00 -0.76127660257E+02  0.76127660257E+02  0.00000000000E+00 0.  1.
         35    2    1    2    0    0  0.00000000000E+00  0.00000000000E+00  0.17327390767E+03  0.32552922818E+03  0.27558198657E+03 0.  0.
         25    1    3    3    0    0 -0.55202659307E+01  0.98647041096E+01  0.77623738834E+01  0.12078095947E+03  0.12000000000E+03 0.  0.
         25    1    3    3    0    0  0.55202659307E+01 -0.98647041096E+01  0.16551153378E+03  0.20474826871E+03  0.12000000000E+03 0.  0.
<mgrwt>
<rscale>  0 0.27558199E+03</rscale>
<asrwt>0</asrwt>
<pdfrwt beam="1">  1        1 0.38369472E-01 0.27558199E+03</pdfrwt>
<pdfrwt beam="2">  1       -1 0.11711948E-01 0.27558199E+03</pdfrwt>
<totfact> 0.52370008E+03</totfact>
</mgrwt>
</event>
<event>
 5    1  0.1111501E+001  0.2751679E+03  0.7818608E-02  0.1098358E+00
          2   -1    0    0  501    0  0.00000000000E+00  0.00000000000E+00  0.22036853894E+03  0.22036853894E+03  0.00000000000E+00 0. -1.
         -2   -1    0    0    0  501 -0.00000000000E+00 -0.00000000000E+00 -0.85898597783E+02  0.85898597783E+02  0.00000000000E+00 0. -1.
         35    2    1    2    0    0  0.00000000000E+00  0.00000000000E+00  0.13446994116E+03  0.30626713672E+03  0.27516793774E+03 0.  0.
         25    1    3    3    0    0 -0.16668038763E+02  0.56087997352E+02  0.30225432178E+02  0.13688412513E+03  0.12000000000E+03 0.  0.
         25    1    3    3    0    0  0.16668038763E+02 -0.56087997352E+02  0.10424450898E+03  0.16938301159E+03  0.12000000000E+03 0.  0.
<mgrwt>
<rscale>  0 0.27516794E+03</rscale>
<asrwt>0</asrwt>
<pdfrwt beam="1">  1        2 0.33902852E-01 0.27516794E+03</pdfrwt>
<pdfrwt beam="2">  1       -2 0.13215169E-01 0.27516794E+03</pdfrwt>
<totfact> 0.64185668E+03</totfact>
</mgrwt>
</event>
<event>
 5    1  0.1111501E+001  0.2742059E+03  0.7818608E-02  0.1098896E+00
          2   -1    0    0  501    0  0.00000000000E+00  0.00000000000E+00  0.13103703522E+04  0.13103703522E+04  0.00000000000E+00 0. -1.
         -2   -1    0    0    0  501 -0.00000000000E+00 -0.00000000000E+00 -0.14344964076E+02  0.14344964076E+02  0.00000000000E+00 0. -1.
         35    2    1    2    0    0  0.00000000000E+00  0.00000000000E+00  0.12960253881E+04  0.13247153163E+04  0.27420587615E+03 0.  0.
         25    1    3    3    0    0 -0.21167940081E+02  0.49245707678E+02  0.45941453044E+03  0.47784404589E+03  0.12000000000E+03 0.  0.
         25    1    3    3    0    0  0.21167940081E+02 -0.49245707678E+02  0.83661085769E+03  0.84687127039E+03  0.12000000000E+03 0.  0.
<mgrwt>
<rscale>  0 0.27420588E+03</rscale>
<asrwt>0</asrwt>
<pdfrwt beam="1">  1        2 0.20159534E+00 0.27420588E+03</pdfrwt>
<pdfrwt beam="2">  1       -2 0.22069186E-02 0.27420588E+03</pdfrwt>
<totfact> 0.11564950E+04</totfact>
</mgrwt>
</event>
<event>
 5    1  0.1111501E+001  0.2740640E+03  0.7818608E-02  0.1098976E+00
         -2   -1    0    0    0  501 -0.00000000000E+00  0.00000000000E+00  0.13051046280E+02  0.13051046280E+02  0.00000000000E+00 0.  1.
          2   -1    0    0  501    0  0.00000000000E+00 -0.00000000000E+00 -0.14387942620E+04  0.14387942620E+04  0.00000000000E+00 0.  1.
         35    2    1    2    0    0  0.00000000000E+00  0.00000000000E+00 -0.14257432157E+04  0.14518453083E+04  0.27406401078E+03 0.  0.
         25    1    3    3    0    0 -0.18053052458E+02 -0.56663247051E+02 -0.86651043751E+03  0.87679927839E+03  0.12000000000E+03 0.  0.
         25    1    3    3    0    0  0.18053052458E+02  0.56663247051E+02 -0.55923277823E+03  0.57504602991E+03  0.12000000000E+03 0.  0.
<mgrwt>
<rscale>  0 0.27406401E+03</rscale>
<asrwt>0</asrwt>
<pdfrwt beam="1">  1        2 0.22135295E+00 0.27406401E+03</pdfrwt>
<pdfrwt beam="2">  1       -2 0.20078534E-02 0.27406401E+03</pdfrwt>
<totfact> 0.11312077E+04</totfact>
</mgrwt>
</event>
<event>
 5    1  0.1111501E+001  0.2761313E+03  0.7818608E-02  0.1097821E+00
         -1   -1    0    0    0  501 -0.00000000000E+00  0.00000000000E+00  0.15600285760E+02  0.15600285760E+02  0.00000000000E+00 0.  1.
          1   -1    0    0  501    0  0.00000000000E+00 -0.00000000000E+00 -0.12219083130E+04  0.12219083130E+04  0.00000000000E+00 0.  1.
         35    2    1    2    0    0  0.00000000000E+00  0.00000000000E+00 -0.12063080272E+04  0.12375085987E+04  0.27613126484E+03 0.  0.
         25    1    3    3    0    0  0.50171109092E+02 -0.32093410941E+02 -0.45350686403E+03  0.47288011476E+03  0.12000000000E+03 0.  0.
         25    1    3    3    0    0 -0.50171109092E+02  0.32093410941E+02 -0.75280116320E+03  0.76462848399E+03  0.12000000000E+03 0.  0.
<mgrwt>
<rscale>  0 0.27613126E+03</rscale>
<asrwt>0</asrwt>
<pdfrwt beam="1">  1        1 0.18798592E+00 0.27613126E+03</pdfrwt>
<pdfrwt beam="2">  1       -1 0.24000436E-02 0.27613126E+03</pdfrwt>
<totfact> 0.57965658E+03</totfact>
</mgrwt>
</event>
<event>
 5    1  0.1111501E+001  0.2753729E+03  0.7818608E-02  0.1098243E+00
         -2   -1    0    0    0  501 -0.00000000000E+00  0.00000000000E+00  0.15994460142E+02  0.15994460142E+02  0.00000000000E+00 0. -1.
          2   -1    0    0  501    0  0.00000000000E+00 -0.00000000000E+00 -0.11852577057E+04  0.11852577057E+04  0.00000000000E+00 0. -1.
         35    2    1    2    0    0  0.00000000000E+00  0.00000000000E+00 -0.11692632456E+04  0.12012521659E+04  0.27537288997E+03 0.  0.
         25    1    3    3    0    0 -0.55633442654E+02 -0.15634695958E+02 -0.43238677197E+03  0.45243545864E+03  0.12000000000E+03 0.  0.
         25    1    3    3    0    0  0.55633442654E+02  0.15634695958E+02 -0.73687647363E+03  0.74881670725E+03  0.12000000000E+03 0.  0.
<mgrwt>
<rscale>  0 0.27537289E+03</rscale>
<asrwt>0</asrwt>
<pdfrwt beam="1">  1        2 0.18234739E+00 0.27537289E+03</pdfrwt>
<pdfrwt beam="2">  1       -2 0.24606855E-02 0.27537289E+03</pdfrwt>
<totfact> 0.11576388E+04</totfact>
</mgrwt>
</event>
<event>
 5    1  0.1111501E+001  0.2744440E+03  0.7818608E-02  0.1098763E+00
         -4   -1    0    0    0  501 -0.00000000000E+00  0.00000000000E+00  0.14139920573E+03  0.14139920573E+03  0.00000000000E+00 0.  1.
          4   -1    0    0  501    0  0.00000000000E+00 -0.00000000000E+00 -0.13316823162E+03  0.13316823162E+03  0.00000000000E+00 0.  1.
         35    2    1    2    0    0  0.00000000000E+00  0.00000000000E+00  0.82309741143E+01  0.27456743736E+03  0.27444403568E+03 0.  0.
         25    1    3    3    0    0  0.55144304891E+02  0.31239356135E+02 -0.16218278361E+02  0.13667415369E+03  0.12000000000E+03 0.  0.
         25    1    3    3    0    0 -0.55144304891E+02 -0.31239356135E+02  0.24449252475E+02  0.13789328367E+03  0.12000000000E+03 0.  0.
<mgrwt>
<rscale>  0 0.27444404E+03</rscale>
<asrwt>0</asrwt>
<pdfrwt beam="1">  1        4 0.20487420E-01 0.27444404E+03</pdfrwt>
<pdfrwt beam="2">  1       -4 0.21753724E-01 0.27444404E+03</pdfrwt>
<totfact> 0.78404148E+02</totfact>
</mgrwt>
</event>
<event>
 5    1  0.1111501E+001  0.2751372E+03  0.7818608E-02  0.1098375E+00
         -2   -1    0    0    0  501 -0.00000000000E+00  0.00000000000E+00  0.37546020697E+02  0.37546020697E+02  0.00000000000E+00 0.  1.
          2   -1    0    0  501    0  0.00000000000E+00 -0.00000000000E+00 -0.50405144255E+03  0.50405144255E+03  0.00000000000E+00 0.  1.
         35    2    1    2    0    0  0.00000000000E+00  0.00000000000E+00 -0.46650542186E+03  0.54159746325E+03  0.27513724499E+03 0.  0.
         25    1    3    3    0    0 -0.66515698374E+02 -0.90932312059E+01 -0.22487785294E+03  0.26358504079E+03  0.12000000000E+03 0.  0.
         25    1    3    3    0    0  0.66515698374E+02  0.90932312059E+01 -0.24162756891E+03  0.27801242246E+03  0.12000000000E+03 0.  0.
<mgrwt>
<rscale>  0 0.27513724E+03</rscale>
<asrwt>0</asrwt>
<pdfrwt beam="1">  1        2 0.77546376E-01 0.27513724E+03</pdfrwt>
<pdfrwt beam="2">  1       -2 0.57763109E-02 0.27513724E+03</pdfrwt>
<totfact> 0.96252260E+03</totfact>
</mgrwt>
</event>
<event>
 5    1  0.1111501E+001  0.2758601E+03  0.7818608E-02  0.1097972E+00
         -2   -1    0    0    0  501 -0.00000000000E+00  0.00000000000E+00  0.53133739290E+01  0.53133739290E+01  0.00000000000E+00 0.  1.
          2   -1    0    0  501    0  0.00000000000E+00 -0.00000000000E+00 -0.35805299724E+04  0.35805299724E+04  0.00000000000E+00 0.  1.
         35    2    1    2    0    0  0.00000000000E+00  0.00000000000E+00 -0.35752165984E+04  0.35858433463E+04  0.27586007038E+03 0.  0.
         25    1    3    3    0    0 -0.51871038712E+02  0.27570470688E+02 -0.13422301024E+04  0.13488633671E+04  0.12000000000E+03 0.  0.
         25    1    3    3    0    0  0.51871038712E+02 -0.27570470688E+02 -0.22329864961E+04  0.22369799791E+04  0.12000000000E+03 0.  0.
<mgrwt>
<rscale>  0 0.27586007E+03</rscale>
<asrwt>0</asrwt>
<pdfrwt beam="1">  1        2 0.55085114E+00 0.27586007E+03</pdfrwt>
<pdfrwt beam="2">  1       -2 0.81744158E-03 0.27586007E+03</pdfrwt>
<totfact> 0.25584894E+03</totfact>
</mgrwt>
</event>
<event>
 5    1  0.1111501E+001  0.2745555E+03  0.7818608E-02  0.1098700E+00
          2   -1    0    0  501    0  0.00000000000E+00  0.00000000000E+00  0.44532460996E+03  0.44532460996E+03  0.00000000000E+00 0. -1.
         -2   -1    0    0    0  501 -0.00000000000E+00 -0.00000000000E+00 -0.42317864679E+02  0.42317864679E+02  0.00000000000E+00 0. -1.
         35    2    1    2    0    0  0.00000000000E+00  0.00000000000E+00  0.40300674528E+03  0.48764247463E+03  0.27455554325E+03 0.  0.
         25    1    3    3    0    0  0.15822661660E+01 -0.65003121298E+02  0.22768390213E+03  0.26545784719E+03  0.12000000000E+03 0.  0.
         25    1    3    3    0    0 -0.15822661660E+01  0.65003121298E+02  0.17532284315E+03  0.22218462745E+03  0.12000000000E+03 0.  0.
<mgrwt>
<rscale>  0 0.27455554E+03</rscale>
<asrwt>0</asrwt>
<pdfrwt beam="1">  1        2 0.68511475E-01 0.27455554E+03</pdfrwt>
<pdfrwt beam="2">  1       -2 0.65104410E-02 0.27455554E+03</pdfrwt>
<totfact> 0.91883715E+03</totfact>
</mgrwt>
</event>
<event>
 5    1  0.1111501E+001  0.2749583E+03  0.7818608E-02  0.1098475E+00
          2   -1    0    0  501    0  0.00000000000E+00  0.00000000000E+00  0.32932160076E+03  0.32932160076E+03  0.00000000000E+00 0.  1.
         -2   -1    0    0    0  501 -0.00000000000E+00 -0.00000000000E+00 -0.57392263252E+02  0.57392263252E+02  0.00000000000E+00 0.  1.
         35    2    1    2    0    0  0.00000000000E+00  0.00000000000E+00  0.27192933751E+03  0.38671386401E+03  0.27495826596E+03 0.  0.
         25    1    3    3    0    0  0.43910936830E+02 -0.47054466082E+02  0.10934533498E+03  0.17463875696E+03  0.12000000000E+03 0.  0.
         25    1    3    3    0    0 -0.43910936830E+02  0.47054466082E+02  0.16258400253E+03  0.21207510705E+03  0.12000000000E+03 0.  0.
<mgrwt>
<rscale>  0 0.27495827E+03</rscale>
<asrwt>0</asrwt>
<pdfrwt beam="1">  1        2 0.50664861E-01 0.27495827E+03</pdfrwt>
<pdfrwt beam="2">  1       -2 0.88295791E-02 0.27495827E+03</pdfrwt>
<totfact> 0.79337566E+03</totfact>
</mgrwt>
</event>
<event>
 5    1  0.1111501E+001  0.2862465E+03  0.7818608E-02  0.1092325E+00
         -2   -1    0    0    0  501 -0.00000000000E+00  0.00000000000E+00  0.28687911835E+03  0.28687911835E+03  0.00000000000E+00 0.  1.
          2   -1    0    0  501    0  0.00000000000E+00 -0.00000000000E+00 -0.71403795391E+02  0.71403795391E+02  0.00000000000E+00 0.  1.
         35    2    1    2    0    0  0.00000000000E+00  0.00000000000E+00  0.21547532296E+03  0.35828291374E+03  0.28624645234E+03 0.  0.
         25    1    3    3    0    0 -0.71278629630E+01 -0.12830665995E+02  0.20362506992E+03  0.23680920911E+03  0.12000000000E+03 0.  0.
         25    1    3    3    0    0  0.71278629630E+01  0.12830665995E+02  0.11850253045E+02  0.12147370463E+03  0.12000000000E+03 0.  0.
<mgrwt>
<rscale>  0 0.28624645E+03</rscale>
<asrwt>0</asrwt>
<pdfrwt beam="1">  1        2 0.10985199E-01 0.28624645E+03</pdfrwt>
<pdfrwt beam="2">  1       -2 0.44135248E-01 0.28624645E+03</pdfrwt>
<totfact> 0.27986472E+03</totfact>
</mgrwt>
</event>
<event>
 5    1  0.1111501E+001  0.2753745E+03  0.7818608E-02  0.1098242E+00
         -3   -1    0    0    0  501 -0.00000000000E+00  0.00000000000E+00  0.42213577056E+03  0.42213577056E+03  0.00000000000E+00 0. -1.
          3   -1    0    0  501    0  0.00000000000E+00 -0.00000000000E+00 -0.44909195646E+02  0.44909195646E+02  0.00000000000E+00 0. -1.
         35    2    1    2    0    0  0.00000000000E+00  0.00000000000E+00  0.37722657491E+03  0.46704496621E+03  0.27537449344E+03 0.  0.
         25    1    3    3    0    0 -0.41898249215E+02 -0.41211874723E+02  0.24496395498E+03  0.27903623625E+03  0.12000000000E+03 0.  0.
         25    1    3    3    0    0  0.41898249215E+02  0.41211874723E+02  0.13226261994E+03  0.18800872995E+03  0.12000000000E+03 0.  0.
<mgrwt>
<rscale>  0 0.27537449E+03</rscale>
<asrwt>0</asrwt>
<pdfrwt beam="1">  1        3 0.69091073E-02 0.27537449E+03</pdfrwt>
<pdfrwt beam="2">  1       -3 0.64943962E-01 0.27537449E+03</pdfrwt>
<totfact> 0.80324706E+02</totfact>
</mgrwt>
</event>
<event>
 5    1  0.1111501E+001  0.2746558E+03  0.7818608E-02  0.1098644E+00
          1   -1    0    0  501    0  0.00000000000E+00  0.00000000000E+00  0.13576204938E+04  0.13576204938E+04  0.00000000000E+00 0. -1.
         -1   -1    0    0    0  501 -0.00000000000E+00 -0.00000000000E+00 -0.13891182168E+02  0.13891182168E+02  0.00000000000E+00 0. -1.
         35    2    1    2    0    0  0.00000000000E+00  0.00000000000E+00  0.13437293116E+04  0.13715116760E+04  0.27465581074E+03 0.  0.
         25    1    3    3    0    0  0.53484938188E+02 -0.27556701313E+02  0.81650085314E+03  0.82746217653E+03  0.12000000000E+03 0.  0.
         25    1    3    3    0    0 -0.53484938188E+02  0.27556701313E+02  0.52722845848E+03  0.54404949944E+03  0.12000000000E+03 0.  0.
<mgrwt>
<rscale>  0 0.27465581E+03</rscale>
<asrwt>0</asrwt>
<pdfrwt beam="1">  1        1 0.20886459E+00 0.27465581E+03</pdfrwt>
<pdfrwt beam="2">  1       -1 0.21371060E-02 0.27465581E+03</pdfrwt>
<totfact> 0.55460663E+03</totfact>
</mgrwt>
</event>
<event>
 5    1  0.1111501E+001  0.2756465E+03  0.7818608E-02  0.1098091E+00
         -1   -1    0    0    0  501 -0.00000000000E+00  0.00000000000E+00  0.57303857690E+03  0.57303857690E+03  0.00000000000E+00 0.  1.
          1   -1    0    0  501    0  0.00000000000E+00 -0.00000000000E+00 -0.33148282367E+02  0.33148282367E+02  0.00000000000E+00 0.  1.
         35    2    1    2    0    0  0.00000000000E+00  0.00000000000E+00  0.53989029454E+03  0.60618685927E+03  0.27564647325E+03 0.  0.
         25    1    3    3    0    0  0.26914170101E+02  0.31697396511E+02  0.38767953024E+03  0.40795160946E+03  0.12000000000E+03 0.  0.
         25    1    3    3    0    0 -0.26914170101E+02 -0.31697396511E+02  0.15221076430E+03  0.19823524981E+03  0.12000000000E+03 0.  0.
<mgrwt>
<rscale>  0 0.27564647E+03</rscale>
<asrwt>0</asrwt>
<pdfrwt beam="1">  1        1 0.50997362E-02 0.27564647E+03</pdfrwt>
<pdfrwt beam="2">  1       -1 0.88159774E-01 0.27564647E+03</pdfrwt>
<totfact> 0.21480771E+03</totfact>
</mgrwt>
</event>
<event>
 5    1  0.1111501E+001  0.2754745E+03  0.7818608E-02  0.1098187E+00
          2   -1    0    0  501    0  0.00000000000E+00  0.00000000000E+00  0.95940433358E+03  0.95940433358E+03  0.00000000000E+00 0.  1.
         -2   -1    0    0    0  501 -0.00000000000E+00 -0.00000000000E+00 -0.19774298573E+02  0.19774298573E+02  0.00000000000E+00 0.  1.
         35    2    1    2    0    0  0.00000000000E+00  0.00000000000E+00  0.93963003501E+03  0.97917863215E+03  0.27547448335E+03 0.  0.
         25    1    3    3    0    0 -0.33215793231E+02  0.55897917775E+02  0.53571096384E+03  0.55282375393E+03  0.12000000000E+03 0.  0.
         25    1    3    3    0    0  0.33215793231E+02 -0.55897917775E+02  0.40391907117E+03  0.42635487822E+03  0.12000000000E+03 0.  0.
<mgrwt>
<rscale>  0 0.27547448E+03</rscale>
<asrwt>0</asrwt>
<pdfrwt beam="1">  1        2 0.14760063E+00 0.27547448E+03</pdfrwt>
<pdfrwt beam="2">  1       -2 0.30422005E-02 0.27547448E+03</pdfrwt>
<totfact> 0.11514927E+04</totfact>
</mgrwt>
</event>
<event>
 5    1  0.1111501E+001  0.2754517E+03  0.7818608E-02  0.1098199E+00
          1   -1    0    0  501    0  0.00000000000E+00  0.00000000000E+00  0.46158797137E+03  0.46158797137E+03  0.00000000000E+00 0. -1.
         -1   -1    0    0    0  501 -0.00000000000E+00 -0.00000000000E+00 -0.41093817960E+02  0.41093817960E+02  0.00000000000E+00 0. -1.
         35    2    1    2    0    0  0.00000000000E+00  0.00000000000E+00  0.42049415341E+03  0.50268178933E+03  0.27545171677E+03 0.  0.
         25    1    3    3    0    0  0.23429020346E+02  0.31655107829E+02  0.31049318234E+03  0.33519692887E+03  0.12000000000E+03 0.  0.
         25    1    3    3    0    0 -0.23429020346E+02 -0.31655107829E+02  0.11000097107E+03  0.16748486046E+03  0.12000000000E+03 0.  0.
<mgrwt>
<rscale>  0 0.27545172E+03</rscale>
<asrwt>0</asrwt>
<pdfrwt beam="1">  1        1 0.71013530E-01 0.27545172E+03</pdfrwt>
<pdfrwt beam="2">  1       -1 0.63221262E-02 0.27545172E+03</pdfrwt>
<totfact> 0.61675790E+03</totfact>
</mgrwt>
</event>
<event>
 5    1  0.1111501E+001  0.2750673E+03  0.7818608E-02  0.1098414E+00
         -2   -1    0    0    0  501 -0.00000000000E+00  0.00000000000E+00  0.50854982768E+02  0.50854982768E+02  0.00000000000E+00 0. -1.
          2   -1    0    0  501    0  0.00000000000E+00 -0.00000000000E+00 -0.37194977752E+03  0.37194977752E+03  0.00000000000E+00 0. -1.
         35    2    1    2    0    0  0.00000000000E+00  0.00000000000E+00 -0.32109479475E+03  0.42280476029E+03  0.27506726106E+03 0.  0.
         25    1    3    3    0    0  0.40389918323E+02  0.74700262387E+00 -0.24308810226E+03  0.27408708283E+03  0.12000000000E+03 0.  0.
         25    1    3    3    0    0 -0.40389918323E+02 -0.74700262387E+00 -0.78006692496E+02  0.14871767746E+03  0.12000000000E+03 0.  0.
<mgrwt>
<rscale>  0 0.27506726E+03</rscale>
<asrwt>0</asrwt>
<pdfrwt beam="1">  1        2 0.57223045E-01 0.27506726E+03</pdfrwt>
<pdfrwt beam="2">  1       -2 0.78238432E-02 0.27506726E+03</pdfrwt>
<totfact> 0.84079136E+03</totfact>
</mgrwt>
</event>
<event>
 5    1  0.1111501E+001  0.2751256E+03  0.7818608E-02  0.1098381E+00
         -1   -1    0    0    0  501 -0.00000000000E+00  0.00000000000E+00  0.99845691246E+01  0.99845691246E+01  0.00000000000E+00 0.  1.
          1   -1    0    0  501    0  0.00000000000E+00 -0.00000000000E+00 -0.18952768822E+04  0.18952768822E+04  0.00000000000E+00 0.  1.
         35    2    1    2    0    0  0.00000000000E+00  0.00000000000E+00 -0.18852923131E+04  0.19052614513E+04  0.27512559343E+03 0.  0.
         25    1    3    3    0    0 -0.14692216989E+02  0.19921713000E+02 -0.50957857154E+03  0.52410214316E+03  0.12000000000E+03 0.  0.
         25    1    3    3    0    0  0.14692216989E+02 -0.19921713000E+02 -0.13757137415E+04  0.13811593082E+04  0.12000000000E+03 0.  0.
<mgrwt>
<rscale>  0 0.27512559E+03</rscale>
<asrwt>0</asrwt>
<pdfrwt beam="1">  1        1 0.29158062E+00 0.27512559E+03</pdfrwt>
<pdfrwt beam="2">  1       -1 0.15360899E-02 0.27512559E+03</pdfrwt>
<totfact> 0.39780165E+03</totfact>
</mgrwt>
</event>
<event>
 5    1  0.1111501E+001  0.2744162E+03  0.7818608E-02  0.1098778E+00
         -2   -1    0    0    0  501 -0.00000000000E+00  0.00000000000E+00  0.10728966802E+02  0.10728966802E+02  0.00000000000E+00 0. -1.
          2   -1    0    0  501    0  0.00000000000E+00 -0.00000000000E+00 -0.17546954253E+04  0.17546954253E+04  0.00000000000E+00 0. -1.
         35    2    1    2    0    0  0.00000000000E+00  0.00000000000E+00 -0.17439664585E+04  0.17654243921E+04  0.27441624563E+03 0.  0.
         25    1    3    3    0    0 -0.64494857920E+02  0.16030489027E+02 -0.85214827902E+03  0.86311833066E+03  0.12000000000E+03 0.  0.
         25    1    3    3    0    0  0.64494857920E+02 -0.16030489027E+02 -0.89181817946E+03  0.90230606143E+03  0.12000000000E+03 0.  0.
<mgrwt>
<rscale>  0 0.27441625E+03</rscale>
<asrwt>0</asrwt>
<pdfrwt beam="1">  1        2 0.26995314E+00 0.27441625E+03</pdfrwt>
<pdfrwt beam="2">  1       -2 0.16506103E-02 0.27441625E+03</pdfrwt>
<totfact> 0.10250922E+04</totfact>
</mgrwt>
</event>
<event>
 5    1  0.1111501E+001  0.2747464E+03  0.7818608E-02  0.1098593E+00
          1   -1    0    0  501    0  0.00000000000E+00  0.00000000000E+00  0.12247360577E+04  0.12247360577E+04  0.00000000000E+00 0.  1.
         -1   -1    0    0    0  501 -0.00000000000E+00 -0.00000000000E+00 -0.15408542977E+02  0.15408542977E+02  0.00000000000E+00 0.  1.
         35    2    1    2    0    0  0.00000000000E+00  0.00000000000E+00  0.12093275147E+04  0.12401446006E+04  0.27474641530E+03 0.  0.
         25    1    3    3    0    0 -0.10810080691E+02 -0.83224953045E+01  0.30918265405E+03  0.33193378156E+03  0.12000000000E+03 0.  0.
         25    1    3    3    0    0  0.10810080691E+02  0.83224953045E+01  0.90014486063E+03  0.90821081908E+03  0.12000000000E+03 0.  0.
<mgrwt>
<rscale>  0 0.27474642E+03</rscale>
<asrwt>0</asrwt>
<pdfrwt beam="1">  1        1 0.18842086E+00 0.27474642E+03</pdfrwt>
<pdfrwt beam="2">  1       -1 0.23705460E-02 0.27474642E+03</pdfrwt>
<totfact> 0.58756140E+03</totfact>
</mgrwt>
</event>
<event>
 5    1  0.1111501E+001  0.2750469E+03  0.7818608E-02  0.1098425E+00
          2   -1    0    0  501    0  0.00000000000E+00  0.00000000000E+00  0.16773872000E+04  0.16773872000E+04  0.00000000000E+00 0. -1.
         -2   -1    0    0    0  501 -0.00000000000E+00 -0.00000000000E+00 -0.11275098089E+02  0.11275098089E+02  0.00000000000E+00 0. -1.
         35    2    1    2    0    0  0.00000000000E+00  0.00000000000E+00  0.16661121019E+04  0.16886622980E+04  0.27504694300E+03 0.  0.
         25    1    3    3    0    0  0.43428507660E+01  0.48021433549E+02  0.54588643872E+03  0.56099636577E+03  0.12000000000E+03 0.  0.
         25    1    3    3    0    0 -0.43428507660E+01 -0.48021433549E+02  0.11202256632E+04  0.11276659323E+04  0.12000000000E+03 0.  0.
<mgrwt>
<rscale>  0 0.27504694E+03</rscale>
<asrwt>0</asrwt>
<pdfrwt beam="1">  1        2 0.25805937E+00 0.27504694E+03</pdfrwt>
<pdfrwt beam="2">  1       -2 0.17346318E-02 0.27504694E+03</pdfrwt>
<totfact> 0.10467815E+04</totfact>
</mgrwt>
</event>
<event>
 5    1  0.1111501E+001  0.2763078E+03  0.7818608E-02  0.1097723E+00
         -1   -1    0    0    0  501 -0.00000000000E+00  0.00000000000E+00  0.15324509350E+03  0.15324509350E+03  0.00000000000E+00 0.  1.
          1   -1    0    0  501    0  0.00000000000E+00 -0.00000000000E+00 -0.12454882839E+03  0.12454882839E+03  0.00000000000E+00 0.  1.
         35    2    1    2    0    0  0.00000000000E+00  0.00000000000E+00  0.28696265110E+02  0.27779392190E+03  0.27630777661E+03 0.  0.
         25    1    3    3    0    0 -0.71108623697E+01  0.65926926151E+02  0.31456500704E+02  0.14066426480E+03  0.12000000000E+03 0.  0.
         25    1    3    3    0    0  0.71108623697E+01 -0.65926926151E+02 -0.27602355938E+01  0.13712965710E+03  0.12000000000E+03 0.  0.
<mgrwt>
<rscale>  0 0.27630778E+03</rscale>
<asrwt>0</asrwt>
<pdfrwt beam="1">  1        1 0.19161358E-01 0.27630778E+03</pdfrwt>
<pdfrwt beam="2">  1       -1 0.23576168E-01 0.27630778E+03</pdfrwt>
<totfact> 0.41235722E+03</totfact>
</mgrwt>
</event>
<event>
 5    1  0.1111501E+001  0.2760520E+03  0.7818608E-02  0.1097865E+00
         -2   -1    0    0    0  501 -0.00000000000E+00  0.00000000000E+00  0.79256844697E+02  0.79256844697E+02  0.00000000000E+00 0. -1.
          2   -1    0    0  501    0  0.00000000000E+00 -0.00000000000E+00 -0.24037271620E+03  0.24037271620E+03  0.00000000000E+00 0. -1.
         35    2    1    2    0    0  0.00000000000E+00  0.00000000000E+00 -0.16111587150E+03  0.31962956089E+03  0.27605204609E+03 0.  0.
         25    1    3    3    0    0  0.10926613439E+02 -0.67166374455E+02 -0.85796569712E+02  0.16245542193E+03  0.12000000000E+03 0.  0.
         25    1    3    3    0    0 -0.10926613439E+02  0.67166374455E+02 -0.75319301789E+02  0.15717413897E+03  0.12000000000E+03 0.  0.
<mgrwt>
<rscale>  0 0.27605205E+03</rscale>
<asrwt>0</asrwt>
<pdfrwt beam="1">  1        2 0.36980417E-01 0.27605205E+03</pdfrwt>
<pdfrwt beam="2">  1       -2 0.12193361E-01 0.27605205E+03</pdfrwt>
<totfact> 0.66570500E+03</totfact>
</mgrwt>
</event>
<event>
 5    1  0.1111501E+001  0.2747896E+03  0.7818608E-02  0.1098569E+00
         -2   -1    0    0    0  501 -0.00000000000E+00  0.00000000000E+00  0.31471676743E+03  0.31471676743E+03  0.00000000000E+00 0. -1.
          2   -1    0    0  501    0  0.00000000000E+00 -0.00000000000E+00 -0.59981959823E+02  0.59981959823E+02  0.00000000000E+00 0. -1.
         35    2    1    2    0    0  0.00000000000E+00  0.00000000000E+00  0.25473480761E+03  0.37469872726E+03  0.27478958131E+03 0.  0.
         25    1    3    3    0    0  0.38540252790E+02  0.24844102368E+02  0.19381675121E+03  0.23252422144E+03  0.12000000000E+03 0.  0.
         25    1    3    3    0    0 -0.38540252790E+02 -0.24844102368E+02  0.60918056398E+02  0.14217450581E+03  0.12000000000E+03 0.  0.
<mgrwt>
<rscale>  0 0.27478958E+03</rscale>
<asrwt>0</asrwt>
<pdfrwt beam="1">  1        2 0.92279940E-02 0.27478958E+03</pdfrwt>
<pdfrwt beam="2">  1       -2 0.48417963E-01 0.27478958E+03</pdfrwt>
<totfact> 0.28937115E+03</totfact>
</mgrwt>
</event>
<event>
 5    1  0.1111501E+001  0.2778222E+03  0.7818608E-02  0.1096884E+00
         -3   -1    0    0    0  501 -0.00000000000E+00  0.00000000000E+00  0.62464602513E+02  0.62464602513E+02  0.00000000000E+00 0. -1.
          3   -1    0    0  501    0  0.00000000000E+00 -0.00000000000E+00 -0.30891564561E+03  0.30891564561E+03  0.00000000000E+00 0. -1.
         35    2    1    2    0    0  0.00000000000E+00  0.00000000000E+00 -0.24645104310E+03  0.37138024812E+03  0.27782219503E+03 0.  0.
         25    1    3    3    0    0  0.57050622620E+02 -0.59429181262E+01 -0.69651797518E+02  0.15013815210E+03  0.12000000000E+03 0.  0.
         25    1    3    3    0    0 -0.57050622620E+02  0.59429181262E+01 -0.17679924558E+03  0.22124209603E+03  0.12000000000E+03 0.  0.
<mgrwt>
<rscale>  0 0.27782220E+03</rscale>
<asrwt>0</asrwt>
<pdfrwt beam="1">  1        3 0.47525483E-01 0.27782220E+03</pdfrwt>
<pdfrwt beam="2">  1       -3 0.96099389E-02 0.27782220E+03</pdfrwt>
<totfact> 0.88769578E+02</totfact>
</mgrwt>
</event>
<event>
 5    1  0.1111501E+001  0.2740982E+03  0.7818608E-02  0.1098957E+00
         -2   -1    0    0    0  501 -0.00000000000E+00  0.00000000000E+00  0.49113620495E+01  0.49113620495E+01  0.00000000000E+00 0.  1.
          2   -1    0    0  501    0  0.00000000000E+00 -0.00000000000E+00 -0.38242855676E+04  0.38242855676E+04  0.00000000000E+00 0.  1.
         35    2    1    2    0    0  0.00000000000E+00  0.00000000000E+00 -0.38193742055E+04  0.38291969296E+04  0.27409816492E+03 0.  0.
         25    1    3    3    0    0  0.27606838076E+02 -0.59044901091E+02 -0.20714114033E+04  0.20759079073E+04  0.12000000000E+03 0.  0.
         25    1    3    3    0    0 -0.27606838076E+02  0.59044901091E+02 -0.17479628022E+04  0.17532890223E+04  0.12000000000E+03 0.  0.
<mgrwt>
<rscale>  0 0.27409816E+03</rscale>
<asrwt>0</asrwt>
<pdfrwt beam="1">  1        2 0.58834852E+00 0.27409816E+03</pdfrwt>
<pdfrwt beam="2">  1       -2 0.75559815E-03 0.27409816E+03</pdfrwt>
<totfact> 0.19362289E+03</totfact>
</mgrwt>
</event>
<event>
 5    1  0.1111501E+001  0.2750103E+03  0.7818608E-02  0.1098446E+00
         -2   -1    0    0    0  501 -0.00000000000E+00  0.00000000000E+00  0.16518915580E+03  0.16518915580E+03  0.00000000000E+00 0. -1.
          2   -1    0    0  501    0  0.00000000000E+00 -0.00000000000E+00 -0.11446073336E+03  0.11446073336E+03  0.00000000000E+00 0. -1.
         35    2    1    2    0    0  0.00000000000E+00  0.00000000000E+00  0.50728422435E+02  0.27964988916E+03  0.27501034101E+03 0.  0.
         25    1    3    3    0    0 -0.56186047509E+02 -0.27427609158E+02  0.50241739207E+02  0.14433772216E+03  0.12000000000E+03 0.  0.
         25    1    3    3    0    0  0.56186047509E+02  0.27427609158E+02  0.48668322799E+00  0.13531216700E+03  0.12000000000E+03 0.  0.
<mgrwt>
<rscale>  0 0.27501034E+03</rscale>
<asrwt>0</asrwt>
<pdfrwt beam="1">  1        2 0.17609343E-01 0.27501034E+03</pdfrwt>
<pdfrwt beam="2">  1       -2 0.25413716E-01 0.27501034E+03</pdfrwt>
<totfact> 0.44199188E+03</totfact>
</mgrwt>
</event>
<event>
 5    1  0.1111501E+001  0.2755408E+03  0.7818608E-02  0.1098150E+00
          1   -1    0    0  501    0  0.00000000000E+00  0.00000000000E+00  0.81492579310E+02  0.81492579310E+02  0.00000000000E+00 0. -1.
         -1   -1    0    0    0  501 -0.00000000000E+00 -0.00000000000E+00 -0.23291309976E+03  0.23291309976E+03  0.00000000000E+00 0. -1.
         35    2    1    2    0    0  0.00000000000E+00  0.00000000000E+00 -0.15142052045E+03  0.31440567907E+03  0.27554084455E+03 0.  0.
         25    1    3    3    0    0 -0.10757737850E+01 -0.25475730548E+02 -0.14724703454E+03  0.19165557471E+03  0.12000000000E+03 0.  0.
         25    1    3    3    0    0  0.10757737850E+01  0.25475730548E+02 -0.41734859102E+01  0.12275010436E+03  0.12000000000E+03 0.  0.
<mgrwt>
<rscale>  0 0.27554084E+03</rscale>
<asrwt>0</asrwt>
<pdfrwt beam="1">  1        1 0.12537320E-01 0.27554084E+03</pdfrwt>
<pdfrwt beam="2">  1       -1 0.35832784E-01 0.27554084E+03</pdfrwt>
<totfact> 0.35336125E+03</totfact>
</mgrwt>
</event>
<event>
 5    1  0.1111501E+001  0.2750781E+03  0.7818608E-02  0.1098408E+00
          2   -1    0    0  501    0  0.00000000000E+00  0.00000000000E+00  0.20031182219E+04  0.20031182219E+04  0.00000000000E+00 0.  1.
         -2   -1    0    0    0  501 -0.00000000000E+00 -0.00000000000E+00 -0.94437701651E+01  0.94437701651E+01  0.00000000000E+00 0.  1.
         35    2    1    2    0    0  0.00000000000E+00  0.00000000000E+00  0.19936744517E+04  0.20125619920E+04  0.27507808419E+03 0.  0.
         25    1    3    3    0    0  0.47727311119E+02  0.46148684906E+02  0.92031570615E+03  0.93047761731E+03  0.12000000000E+03 0.  0.
         25    1    3    3    0    0 -0.47727311119E+02 -0.46148684906E+02  0.10733587455E+04  0.10820843747E+04  0.12000000000E+03 0.  0.
<mgrwt>
<rscale>  0 0.27507808E+03</rscale>
<asrwt>0</asrwt>
<pdfrwt beam="1">  1        2 0.30817170E+00 0.27507808E+03</pdfrwt>
<pdfrwt beam="2">  1       -2 0.14528893E-02 0.27507808E+03</pdfrwt>
<totfact> 0.91498666E+03</totfact>
</mgrwt>
</event>
<event>
 5    1  0.1111501E+001  0.2754303E+03  0.7818608E-02  0.1098211E+00
         -2   -1    0    0    0  501 -0.00000000000E+00  0.00000000000E+00  0.91260360802E+02  0.91260360802E+02  0.00000000000E+00 0.  1.
          2   -1    0    0  501    0  0.00000000000E+00 -0.00000000000E+00 -0.20781703501E+03  0.20781703501E+03  0.00000000000E+00 0.  1.
         35    2    1    2    0    0  0.00000000000E+00  0.00000000000E+00 -0.11655667421E+03  0.29907739582E+03  0.27543026411E+03 0.  0.
         25    1    3    3    0    0 -0.22870594027E+02  0.14503751742E+02  0.89398273649E+01  0.12334238282E+03  0.12000000000E+03 0.  0.
         25    1    3    3    0    0  0.22870594027E+02 -0.14503751742E+02 -0.12549650158E+03  0.17573501300E+03  0.12000000000E+03 0.  0.
<mgrwt>
<rscale>  0 0.27543026E+03</rscale>
<asrwt>0</asrwt>
<pdfrwt beam="1">  1        2 0.31971851E-01 0.27543026E+03</pdfrwt>
<pdfrwt beam="2">  1       -2 0.14040056E-01 0.27543026E+03</pdfrwt>
<totfact> 0.61973572E+03</totfact>
</mgrwt>
</event>
<event>
 5    1  0.1111501E+001  0.2753306E+03  0.7818608E-02  0.1098267E+00
         -3   -1    0    0    0  501 -0.00000000000E+00  0.00000000000E+00  0.44152945200E+02  0.44152945200E+02  0.00000000000E+00 0.  1.
          3   -1    0    0  501    0  0.00000000000E+00 -0.00000000000E+00 -0.42922931666E+03  0.42922931666E+03  0.00000000000E+00 0.  1.
         35    2    1    2    0    0  0.00000000000E+00  0.00000000000E+00 -0.38507637146E+03  0.47338226186E+03  0.27533062668E+03 0.  0.
         25    1    3    3    0    0 -0.60443659746E+02  0.22379924845E+01 -0.24392534820E+03  0.27849240584E+03  0.12000000000E+03 0.  0.
         25    1    3    3    0    0  0.60443659746E+02 -0.22379924845E+01 -0.14115102326E+03  0.19488985602E+03  0.12000000000E+03 0.  0.
<mgrwt>
<rscale>  0 0.27533063E+03</rscale>
<asrwt>0</asrwt>
<pdfrwt beam="1">  1        3 0.66035283E-01 0.27533063E+03</pdfrwt>
<pdfrwt beam="2">  1       -3 0.67927604E-02 0.27533063E+03</pdfrwt>
<totfact> 0.79791579E+02</totfact>
</mgrwt>
</event>
<event>
 5    1  0.1111501E+001  0.2777465E+03  0.7818608E-02  0.1096926E+00
          2   -1    0    0  501    0  0.00000000000E+00  0.00000000000E+00  0.21932106508E+04  0.21932106508E+04  0.00000000000E+00 0.  1.
         -2   -1    0    0    0  501 -0.00000000000E+00 -0.00000000000E+00 -0.87933989114E+01  0.87933989114E+01  0.00000000000E+00 0.  1.
         35    2    1    2    0    0  0.00000000000E+00  0.00000000000E+00  0.21844172519E+04  0.22020040497E+04  0.27774647540E+03 0.  0.
         25    1    3    3    0    0  0.26289648443E+02  0.53317713465E+02  0.80071160197E+03  0.81183310706E+03  0.12000000000E+03 0.  0.
         25    1    3    3    0    0 -0.26289648443E+02 -0.53317713465E+02  0.13837056499E+04  0.13901709427E+04  0.12000000000E+03 0.  0.
<mgrwt>
<rscale>  0 0.27774648E+03</rscale>
<asrwt>0</asrwt>
<pdfrwt beam="1">  1        2 0.33741659E+00 0.27774648E+03</pdfrwt>
<pdfrwt beam="2">  1       -2 0.13528323E-02 0.27774648E+03</pdfrwt>
<totfact> 0.80577926E+03</totfact>
</mgrwt>
</event>
<event>
 5    1  0.1111501E+001  0.2750170E+03  0.7818608E-02  0.1098442E+00
         -1   -1    0    0    0  501 -0.00000000000E+00  0.00000000000E+00  0.89524000715E+02  0.89524000715E+02  0.00000000000E+00 0. -1.
          1   -1    0    0  501    0  0.00000000000E+00 -0.00000000000E+00 -0.21121244174E+03  0.21121244174E+03  0.00000000000E+00 0. -1.
         35    2    1    2    0    0  0.00000000000E+00  0.00000000000E+00 -0.12168844102E+03  0.30073644245E+03  0.27501696519E+03 0.  0.
         25    1    3    3    0    0  0.20981533751E+01 -0.59995389439E+02 -0.27952470836E+02  0.13705907350E+03  0.12000000000E+03 0.  0.
         25    1    3    3    0    0 -0.20981533751E+01  0.59995389439E+02 -0.93735970185E+02  0.16367736896E+03  0.12000000000E+03 0.  0.
<mgrwt>
<rscale>  0 0.27501697E+03</rscale>
<asrwt>0</asrwt>
<pdfrwt beam="1">  1        1 0.32494222E-01 0.27501697E+03</pdfrwt>
<pdfrwt beam="2">  1       -1 0.13772923E-01 0.27501697E+03</pdfrwt>
<totfact> 0.50046582E+03</totfact>
</mgrwt>
</event>
<event>
 5    1  0.1111501E+001  0.2750868E+03  0.7818608E-02  0.1098403E+00
          2   -1    0    0  501    0  0.00000000000E+00  0.00000000000E+00  0.17229692036E+02  0.17229692036E+02  0.00000000000E+00 0.  1.
         -2   -1    0    0    0  501 -0.00000000000E+00 -0.00000000000E+00 -0.10979995062E+04  0.10979995062E+04  0.00000000000E+00 0.  1.
         35    2    1    2    0    0  0.00000000000E+00  0.00000000000E+00 -0.10807698142E+04  0.11152291983E+04  0.27508684700E+03 0.  0.
         25    1    3    3    0    0 -0.16722891983E+02  0.51394469189E+02 -0.70240419509E+03  0.71462766519E+03  0.12000000000E+03 0.  0.
         25    1    3    3    0    0  0.16722891983E+02 -0.51394469189E+02 -0.37836561909E+03  0.40060153306E+03  0.12000000000E+03 0.  0.
<mgrwt>
<rscale>  0 0.27508685E+03</rscale>
<asrwt>0</asrwt>
<pdfrwt beam="1">  1        2 0.26507221E-02 0.27508685E+03</pdfrwt>
<pdfrwt beam="2">  1       -2 0.16892298E+00 0.27508685E+03</pdfrwt>
<totfact> 0.85979206E+02</totfact>
</mgrwt>
</event>
<event>
 5    1  0.1111501E+001  0.2729233E+03  0.7818608E-02  0.1099618E+00
         -1   -1    0    0    0  501 -0.00000000000E+00  0.00000000000E+00  0.42869025107E+02  0.42869025107E+02  0.00000000000E+00 0.  1.
          1   -1    0    0  501    0  0.00000000000E+00 -0.00000000000E+00 -0.43438794047E+03  0.43438794047E+03  0.00000000000E+00 0.  1.
         35    2    1    2    0    0  0.00000000000E+00  0.00000000000E+00 -0.39151891537E+03  0.47725696558E+03  0.27292334108E+03 0.  0.
         25    1    3    3    0    0  0.22165977213E+02 -0.32864540560E+02 -0.28578496629E+03  0.31248112827E+03  0.12000000000E+03 0.  0.
         25    1    3    3    0    0 -0.22165977213E+02  0.32864540560E+02 -0.10573394908E+03  0.16477583731E+03  0.12000000000E+03 0.  0.
<mgrwt>
<rscale>  0 0.27292334E+03</rscale>
<asrwt>0</asrwt>
<pdfrwt beam="1">  1        1 0.66828913E-01 0.27292334E+03</pdfrwt>
<pdfrwt beam="2">  1       -1 0.65952347E-02 0.27292334E+03</pdfrwt>
<totfact> 0.62597899E+03</totfact>
</mgrwt>
</event>
<event>
 5    1  0.1111501E+001  0.2751233E+03  0.7818608E-02  0.1098383E+00
         -2   -1    0    0    0  501 -0.00000000000E+00  0.00000000000E+00  0.15644752106E+02  0.15644752106E+02  0.00000000000E+00 0. -1.
          2   -1    0    0  501    0  0.00000000000E+00 -0.00000000000E+00 -0.12095565127E+04  0.12095565127E+04  0.00000000000E+00 0. -1.
         35    2    1    2    0    0  0.00000000000E+00  0.00000000000E+00 -0.11939117606E+04  0.12252012648E+04  0.27512333089E+03 0.  0.
         25    1    3    3    0    0 -0.37930667402E+02 -0.95522087264E+01 -0.35331499167E+03  0.37518190729E+03  0.12000000000E+03 0.  0.
         25    1    3    3    0    0  0.37930667402E+02  0.95522087264E+01 -0.84059676895E+03  0.85001935754E+03  0.12000000000E+03 0.  0.
<mgrwt>
<rscale>  0 0.27512333E+03</rscale>
<asrwt>0</asrwt>
<pdfrwt beam="1">  1        2 0.18608564E+00 0.27512333E+03</pdfrwt>
<pdfrwt beam="2">  1       -2 0.24068847E-02 0.27512333E+03</pdfrwt>
<totfact> 0.11586192E+04</totfact>
</mgrwt>
</event>
<event>
 5    1  0.1111501E+001  0.2763546E+03  0.7818608E-02  0.1097697E+00
          1   -1    0    0  501    0  0.00000000000E+00  0.00000000000E+00  0.13670062898E+04  0.13670062898E+04  0.00000000000E+00 0.  1.
         -1   -1    0    0    0  501 -0.00000000000E+00 -0.00000000000E+00 -0.13966992003E+02  0.13966992003E+02  0.00000000000E+00 0.  1.
         35    2    1    2    0    0  0.00000000000E+00  0.00000000000E+00  0.13530392978E+04  0.13809732818E+04  0.27635459771E+03 0.  0.
         25    1    3    3    0    0  0.37160989546E+02 -0.37710488865E+02  0.89376138116E+03  0.90333406144E+03  0.12000000000E+03 0.  0.
         25    1    3    3    0    0 -0.37160989546E+02  0.37710488865E+02  0.45927791666E+03  0.47763922038E+03  0.12000000000E+03 0.  0.
<mgrwt>
<rscale>  0 0.27635460E+03</rscale>
<asrwt>0</asrwt>
<pdfrwt beam="1">  1        1 0.21030855E+00 0.27635460E+03</pdfrwt>
<pdfrwt beam="2">  1       -1 0.21487691E-02 0.27635460E+03</pdfrwt>
<totfact> 0.54226389E+03</totfact>
</mgrwt>
</event>
<event>
 5    1  0.1111501E+001  0.2725921E+03  0.7818608E-02  0.1099805E+00
         -2   -1    0    0    0  501 -0.00000000000E+00  0.00000000000E+00  0.65962003752E+01  0.65962003752E+01  0.00000000000E+00 0.  1.
          2   -1    0    0  501    0  0.00000000000E+00 -0.00000000000E+00 -0.28162605623E+04  0.28162605623E+04  0.00000000000E+00 0.  1.
         35    2    1    2    0    0  0.00000000000E+00  0.00000000000E+00 -0.28096643620E+04  0.28228567627E+04  0.27259214206E+03 0.  0.
         25    1    3    3    0    0 -0.55420096575E+02 -0.14309672059E+02 -0.10940837344E+04  0.11021321934E+04  0.12000000000E+03 0.  0.
         25    1    3    3    0    0  0.55420096575E+02  0.14309672059E+02 -0.17155806275E+04  0.17207245693E+04  0.12000000000E+03 0.  0.
<mgrwt>
<rscale>  0 0.27259214E+03</rscale>
<asrwt>0</asrwt>
<pdfrwt beam="1">  1        2 0.43327136E+00 0.27259214E+03</pdfrwt>
<pdfrwt beam="2">  1       -2 0.10147989E-02 0.27259214E+03</pdfrwt>
<totfact> 0.55660187E+03</totfact>
</mgrwt>
</event>
<event>
 5    1  0.1111501E+001  0.2768868E+03  0.7818608E-02  0.1097402E+00
         -1   -1    0    0    0  501 -0.00000000000E+00  0.00000000000E+00  0.66805132475E+02  0.66805132475E+02  0.00000000000E+00 0. -1.
          1   -1    0    0  501    0  0.00000000000E+00 -0.00000000000E+00 -0.28690268978E+03  0.28690268978E+03  0.00000000000E+00 0. -1.
         35    2    1    2    0    0  0.00000000000E+00  0.00000000000E+00 -0.22009755730E+03  0.35370782225E+03  0.27688677973E+03 0.  0.
         25    1    3    3    0    0 -0.44143699564E+02 -0.75432272986E+01 -0.17717251088E+03  0.21862219719E+03  0.12000000000E+03 0.  0.
         25    1    3    3    0    0  0.44143699564E+02  0.75432272986E+01 -0.42925046417E+02  0.13508562506E+03  0.12000000000E+03 0.  0.
<mgrwt>
<rscale>  0 0.27688678E+03</rscale>
<asrwt>0</asrwt>
<pdfrwt beam="1">  1        1 0.44138874E-01 0.27688678E+03</pdfrwt>
<pdfrwt beam="2">  1       -1 0.10277713E-01 0.27688678E+03</pdfrwt>
<totfact> 0.53820460E+03</totfact>
</mgrwt>
</event>
<event>
 5    1  0.1111501E+001  0.2750274E+03  0.7818608E-02  0.1098436E+00
         -1   -1    0    0    0  501 -0.00000000000E+00  0.00000000000E+00  0.15618241856E+02  0.15618241856E+02  0.00000000000E+00 0. -1.
          1   -1    0    0  501    0  0.00000000000E+00 -0.00000000000E+00 -0.12107649682E+04  0.12107649682E+04  0.00000000000E+00 0. -1.
         35    2    1    2    0    0  0.00000000000E+00  0.00000000000E+00 -0.11951467264E+04  0.12263832101E+04  0.27502741757E+03 0.  0.
         25    1    3    3    0    0  0.63231701669E+02  0.17110358622E+02 -0.53158310408E+03  0.54888214492E+03  0.12000000000E+03 0.  0.
         25    1    3    3    0    0 -0.63231701669E+02 -0.17110358622E+02 -0.66356362227E+03  0.67750106514E+03  0.12000000000E+03 0.  0.
<mgrwt>
<rscale>  0 0.27502742E+03</rscale>
<asrwt>0</asrwt>
<pdfrwt beam="1">  1        1 0.18627159E+00 0.27502742E+03</pdfrwt>
<pdfrwt beam="2">  1       -1 0.24028058E-02 0.27502742E+03</pdfrwt>
<totfact> 0.58908227E+03</totfact>
</mgrwt>
</event>
<event>
 5    1  0.1111501E+001  0.2747840E+03  0.7818608E-02  0.1098572E+00
         -2   -1    0    0    0  501 -0.00000000000E+00  0.00000000000E+00  0.80910789499E+02  0.80910789499E+02  0.00000000000E+00 0.  1.
          2   -1    0    0  501    0  0.00000000000E+00 -0.00000000000E+00 -0.23330086485E+03  0.23330086485E+03  0.00000000000E+00 0.  1.
         35    2    1    2    0    0  0.00000000000E+00  0.00000000000E+00 -0.15239007535E+03  0.31421165435E+03  0.27478396726E+03 0.  0.
         25    1    3    3    0    0 -0.86163060491E+01 -0.54763147303E+02 -0.33359092954E+02  0.13633074530E+03  0.12000000000E+03 0.  0.
         25    1    3    3    0    0  0.86163060491E+01  0.54763147303E+02 -0.11903098240E+03  0.17788090905E+03  0.12000000000E+03 0.  0.
<mgrwt>
<rscale>  0 0.27478397E+03</rscale>
<asrwt>0</asrwt>
<pdfrwt beam="1">  1        2 0.35892441E-01 0.27478397E+03</pdfrwt>
<pdfrwt beam="2">  1       -2 0.12447814E-01 0.27478397E+03</pdfrwt>
<totfact> 0.66487584E+03</totfact>
</mgrwt>
</event>
<event>
 5    1  0.1111501E+001  0.2732366E+03  0.7818608E-02  0.1099441E+00
         -3   -1    0    0    0  501 -0.00000000000E+00  0.00000000000E+00  0.16927407796E+02  0.16927407796E+02  0.00000000000E+00 0. -1.
          3   -1    0    0  501    0  0.00000000000E+00 -0.00000000000E+00 -0.11026238540E+04  0.11026238540E+04  0.00000000000E+00 0. -1.
         35    2    1    2    0    0  0.00000000000E+00  0.00000000000E+00 -0.10856964462E+04  0.11195512618E+04  0.27323662728E+03 0.  0.
         25    1    3    3    0    0  0.43758995661E+02 -0.48378950833E+02 -0.55527010324E+03  0.57182187798E+03  0.12000000000E+03 0.  0.
         25    1    3    3    0    0 -0.43758995661E+02  0.48378950833E+02 -0.53042634298E+03  0.54772938383E+03  0.12000000000E+03 0.  0.
<mgrwt>
<rscale>  0 0.27323663E+03</rscale>
<asrwt>0</asrwt>
<pdfrwt beam="1">  1        3 0.16963451E+00 0.27323663E+03</pdfrwt>
<pdfrwt beam="2">  1       -3 0.26042155E-02 0.27323663E+03</pdfrwt>
<totfact> 0.40241582E+02</totfact>
</mgrwt>
</event>
<event>
 5    1  0.1111501E+001  0.2746001E+03  0.7818608E-02  0.1098675E+00
         -4   -1    0    0    0  501 -0.00000000000E+00  0.00000000000E+00  0.85301139522E+02  0.85301139522E+02  0.00000000000E+00 0.  1.
          4   -1    0    0  501    0  0.00000000000E+00 -0.00000000000E+00 -0.22099714991E+03  0.22099714991E+03  0.00000000000E+00 0.  1.
         35    2    1    2    0    0  0.00000000000E+00  0.00000000000E+00 -0.13569601039E+03  0.30629828943E+03  0.27460013633E+03 0.  0.
         25    1    3    3    0    0 -0.53656442058E+02  0.21540675046E+02 -0.30714036630E+02  0.13669808522E+03  0.12000000000E+03 0.  0.
         25    1    3    3    0    0  0.53656442058E+02 -0.21540675046E+02 -0.10498197376E+03  0.16960020421E+03  0.12000000000E+03 0.  0.
<mgrwt>
<rscale>  0 0.27460014E+03</rscale>
<asrwt>0</asrwt>
<pdfrwt beam="1">  1        4 0.33999562E-01 0.27460014E+03</pdfrwt>
<pdfrwt beam="2">  1       -4 0.13123252E-01 0.27460014E+03</pdfrwt>
<totfact> 0.74633005E+02</totfact>
</mgrwt>
</event>
<event>
 5    1  0.1111501E+001  0.2751128E+03  0.7818608E-02  0.1098389E+00
         -2   -1    0    0    0  501 -0.00000000000E+00  0.00000000000E+00  0.78752637631E+01  0.78752637631E+01  0.00000000000E+00 0.  1.
          2   -1    0    0  501    0  0.00000000000E+00 -0.00000000000E+00 -0.24026838712E+04  0.24026838712E+04  0.00000000000E+00 0.  1.
         35    2    1    2    0    0  0.00000000000E+00  0.00000000000E+00 -0.23948086075E+04  0.24105591350E+04  0.27511284394E+03 0.  0.
         25    1    3    3    0    0 -0.30344167513E+02  0.48958455845E+02 -0.15014457922E+04  0.15073344572E+04  0.12000000000E+03 0.  0.
         25    1    3    3    0    0  0.30344167513E+02 -0.48958455845E+02 -0.89336281526E+03  0.90322467780E+03  0.12000000000E+03 0.  0.
<mgrwt>
<rscale>  0 0.27511284E+03</rscale>
<asrwt>0</asrwt>
<pdfrwt beam="1">  1        2 0.36964396E+00 0.27511284E+03</pdfrwt>
<pdfrwt beam="2">  1       -2 0.12115781E-02 0.27511284E+03</pdfrwt>
<totfact> 0.73060077E+03</totfact>
</mgrwt>
</event>
<event>
 5    1  0.1111501E+001  0.2746168E+03  0.7818608E-02  0.1098666E+00
         -2   -1    0    0    0  501 -0.00000000000E+00  0.00000000000E+00  0.10434078012E+03  0.10434078012E+03  0.00000000000E+00 0.  1.
          2   -1    0    0  501    0  0.00000000000E+00 -0.00000000000E+00 -0.18069251879E+03  0.18069251879E+03  0.00000000000E+00 0.  1.
         35    2    1    2    0    0  0.00000000000E+00  0.00000000000E+00 -0.76351738665E+02  0.28503329891E+03  0.27461681210E+03 0.  0.
         25    1    3    3    0    0 -0.42753274524E+02  0.42384413918E+02 -0.68066071520E+02  0.15052332417E+03  0.12000000000E+03 0.  0.
         25    1    3    3    0    0  0.42753274524E+02 -0.42384413918E+02 -0.82856671448E+01  0.13450997474E+03  0.12000000000E+03 0.  0.
<mgrwt>
<rscale>  0 0.27461681E+03</rscale>
<asrwt>0</asrwt>
<pdfrwt beam="1">  1        2 0.27798849E-01 0.27461681E+03</pdfrwt>
<pdfrwt beam="2">  1       -2 0.16052428E-01 0.27461681E+03</pdfrwt>
<totfact> 0.57908942E+03</totfact>
</mgrwt>
</event>
<event>
 5    1  0.1111501E+001  0.2749655E+03  0.7818608E-02  0.1098471E+00
          4   -1    0    0  501    0  0.00000000000E+00  0.00000000000E+00  0.10355567400E+04  0.10355567400E+04  0.00000000000E+00 0.  1.
         -4   -1    0    0    0  501 -0.00000000000E+00 -0.00000000000E+00 -0.18252502487E+02  0.18252502487E+02  0.00000000000E+00 0.  1.
         35    2    1    2    0    0  0.00000000000E+00  0.00000000000E+00  0.10173042375E+04  0.10538092425E+04  0.27496546672E+03 0.  0.
         25    1    3    3    0    0  0.56111837891E+02 -0.53469497566E+01  0.64812479406E+03  0.66154582373E+03  0.12000000000E+03 0.  0.
         25    1    3    3    0    0 -0.56111837891E+02  0.53469497566E+01  0.36917944342E+03  0.39226341872E+03  0.12000000000E+03 0.  0.
<mgrwt>
<rscale>  0 0.27496547E+03</rscale>
<asrwt>0</asrwt>
<pdfrwt beam="1">  1        4 0.15931638E+00 0.27496547E+03</pdfrwt>
<pdfrwt beam="2">  1       -4 0.28080781E-02 0.27496547E+03</pdfrwt>
<totfact> 0.30264119E+02</totfact>
</mgrwt>
</event>
<event>
 5    1  0.1111501E+001  0.2753240E+03  0.7818608E-02  0.1098271E+00
         -1   -1    0    0    0  501 -0.00000000000E+00  0.00000000000E+00  0.70770938927E+02  0.70770938927E+02  0.00000000000E+00 0.  1.
          1   -1    0    0  501    0  0.00000000000E+00 -0.00000000000E+00 -0.26777686953E+03  0.26777686953E+03  0.00000000000E+00 0.  1.
         35    2    1    2    0    0  0.00000000000E+00  0.00000000000E+00 -0.19700593061E+03  0.33854780846E+03  0.27532395813E+03 0.  0.
         25    1    3    3    0    0 -0.53935818762E+02 -0.33477962594E+02 -0.12656919068E+03  0.18560605204E+03  0.12000000000E+03 0.  0.
         25    1    3    3    0    0  0.53935818762E+02  0.33477962594E+02 -0.70436739928E+02  0.15294175642E+03  0.12000000000E+03 0.  0.
<mgrwt>
<rscale>  0 0.27532396E+03</rscale>
<asrwt>0</asrwt>
<pdfrwt beam="1">  1        1 0.41196442E-01 0.27532396E+03</pdfrwt>
<pdfrwt beam="2">  1       -1 0.10887837E-01 0.27532396E+03</pdfrwt>
<totfact> 0.53659325E+03</totfact>
</mgrwt>
</event>
<event>
 5    1  0.1111501E+001  0.2849733E+03  0.7818608E-02  0.1093003E+00
          1   -1    0    0  501    0  0.00000000000E+00  0.00000000000E+00  0.80218104423E+03  0.80218104423E+03  0.00000000000E+00 0. -1.
         -1   -1    0    0    0  501 -0.00000000000E+00 -0.00000000000E+00 -0.25309061327E+02  0.25309061327E+02  0.00000000000E+00 0. -1.
         35    2    1    2    0    0  0.00000000000E+00  0.00000000000E+00  0.77687198290E+03  0.82749010555E+03  0.28497332678E+03 0.  0.
         25    1    3    3    0    0 -0.55535638893E+02 -0.17854053129E+02  0.24326395062E+03  0.27745328269E+03  0.12000000000E+03 0.  0.
         25    1    3    3    0    0  0.55535638893E+02  0.17854053129E+02  0.53360803228E+03  0.55003682287E+03  0.12000000000E+03 0.  0.
<mgrwt>
<rscale>  0 0.28497333E+03</rscale>
<asrwt>0</asrwt>
<pdfrwt beam="1">  1        1 0.12341245E+00 0.28497333E+03</pdfrwt>
<pdfrwt beam="2">  1       -1 0.38937024E-02 0.28497333E+03</pdfrwt>
<totfact> 0.58700888E+03</totfact>
</mgrwt>
</event>
<event>
 5    1  0.1111501E+001  0.2747347E+03  0.7818608E-02  0.1098600E+00
          2   -1    0    0  501    0  0.00000000000E+00  0.00000000000E+00  0.62037127231E+03  0.62037127231E+03  0.00000000000E+00 0.  1.
         -2   -1    0    0    0  501 -0.00000000000E+00 -0.00000000000E+00 -0.30416919051E+02  0.30416919051E+02  0.00000000000E+00 0.  1.
         35    2    1    2    0    0  0.00000000000E+00  0.00000000000E+00  0.58995435326E+03  0.65078819136E+03  0.27473465578E+03 0.  0.
         25    1    3    3    0    0  0.29424710380E+02 -0.40252455709E+01  0.15309158070E+03  0.19677156365E+03  0.12000000000E+03 0.  0.
         25    1    3    3    0    0 -0.29424710380E+02  0.40252455709E+01  0.43686277257E+03  0.45401662771E+03  0.12000000000E+03 0.  0.
<mgrwt>
<rscale>  0 0.27473466E+03</rscale>
<asrwt>0</asrwt>
<pdfrwt beam="1">  1        2 0.95441725E-01 0.27473466E+03</pdfrwt>
<pdfrwt beam="2">  1       -2 0.46795265E-02 0.27473466E+03</pdfrwt>
<totfact> 0.10458930E+04</totfact>
</mgrwt>
</event>
<event>
 5    1  0.1111501E+001  0.2756930E+03  0.7818608E-02  0.1098065E+00
          2   -1    0    0  501    0  0.00000000000E+00  0.00000000000E+00  0.48996533779E+03  0.48996533779E+03  0.00000000000E+00 0.  1.
         -2   -1    0    0    0  501 -0.00000000000E+00 -0.00000000000E+00 -0.38781630317E+02  0.38781630317E+02  0.00000000000E+00 0.  1.
         35    2    1    2    0    0  0.00000000000E+00  0.00000000000E+00  0.45118370747E+03  0.52874696810E+03  0.27569297850E+03 0.  0.
         25    1    3    3    0    0  0.54531490146E+02 -0.16112762168E+02  0.29653669070E+03  0.32491123935E+03  0.12000000000E+03 0.  0.
         25    1    3    3    0    0 -0.54531490146E+02  0.16112762168E+02  0.15464701677E+03  0.20383572876E+03  0.12000000000E+03 0.  0.
<mgrwt>
<rscale>  0 0.27569298E+03</rscale>
<asrwt>0</asrwt>
<pdfrwt beam="1">  1        2 0.75379279E-01 0.27569298E+03</pdfrwt>
<pdfrwt beam="2">  1       -2 0.59664050E-02 0.27569298E+03</pdfrwt>
<totfact> 0.94548691E+03</totfact>
</mgrwt>
</event>
<event>
 5    1  0.1111501E+001  0.2748936E+03  0.7818608E-02  0.1098511E+00
          1   -1    0    0  501    0  0.00000000000E+00  0.00000000000E+00  0.24333038587E+04  0.24333038587E+04  0.00000000000E+00 0. -1.
         -1   -1    0    0    0  501 -0.00000000000E+00 -0.00000000000E+00 -0.77637725763E+01  0.77637725763E+01  0.00000000000E+00 0. -1.
         35    2    1    2    0    0  0.00000000000E+00  0.00000000000E+00  0.24255400861E+04  0.24410676313E+04  0.27489356317E+03 0.  0.
         25    1    3    3    0    0 -0.62649359554E+02  0.80565010900E+01  0.10138553545E+04  0.10228844164E+04  0.12000000000E+03 0.  0.
         25    1    3    3    0    0  0.62649359554E+02 -0.80565010900E+01  0.14116847316E+04  0.14181832148E+04  0.12000000000E+03 0.  0.
<mgrwt>
<rscale>  0 0.27489356E+03</rscale>
<asrwt>0</asrwt>
<pdfrwt beam="1">  1        1 0.37435383E+00 0.27489356E+03</pdfrwt>
<pdfrwt beam="2">  1       -1 0.11944285E-02 0.27489356E+03</pdfrwt>
<totfact> 0.25526893E+03</totfact>
</mgrwt>
</event>
<event>
 5    1  0.1111501E+001  0.2760226E+03  0.7818608E-02  0.1097881E+00
         -3   -1    0    0    0  501 -0.00000000000E+00  0.00000000000E+00  0.32889964589E+02  0.32889964589E+02  0.00000000000E+00 0.  1.
          3   -1    0    0  501    0  0.00000000000E+00 -0.00000000000E+00 -0.57911637836E+03  0.57911637836E+03  0.00000000000E+00 0.  1.
         35    2    1    2    0    0  0.00000000000E+00  0.00000000000E+00 -0.54622641377E+03  0.61200634294E+03  0.27602258731E+03 0.  0.
         25    1    3    3    0    0  0.46881642544E+02 -0.30013019346E+02 -0.36036202143E+03  0.38387427138E+03  0.12000000000E+03 0.  0.
         25    1    3    3    0    0 -0.46881642544E+02  0.30013019346E+02 -0.18586439234E+03  0.22813207157E+03  0.12000000000E+03 0.  0.
<mgrwt>
<rscale>  0 0.27602259E+03</rscale>
<asrwt>0</asrwt>
<pdfrwt beam="1">  1        3 0.89094827E-01 0.27602259E+03</pdfrwt>
<pdfrwt beam="2">  1       -3 0.50599946E-02 0.27602259E+03</pdfrwt>
<totfact> 0.66860016E+02</totfact>
</mgrwt>
</event>
<event>
 5    1  0.1111501E+001  0.2758287E+03  0.7818608E-02  0.1097989E+00
          2   -1    0    0  501    0  0.00000000000E+00  0.00000000000E+00  0.66217778932E+03  0.66217778932E+03  0.00000000000E+00 0. -1.
         -2   -1    0    0    0  501 -0.00000000000E+00 -0.00000000000E+00 -0.28723960530E+02  0.28723960530E+02  0.00000000000E+00 0. -1.
         35    2    1    2    0    0  0.00000000000E+00  0.00000000000E+00  0.63345382879E+03  0.69090174985E+03  0.27582870543E+03 0.  0.
         25    1    3    3    0    0  0.41643678402E+02 -0.25694433824E+02  0.19854898720E+03  0.23709934669E+03  0.12000000000E+03 0.  0.
         25    1    3    3    0    0 -0.41643678402E+02  0.25694433824E+02  0.43490484158E+03  0.45380240316E+03  0.12000000000E+03 0.  0.
<mgrwt>
<rscale>  0 0.27582871E+03</rscale>
<asrwt>0</asrwt>
<pdfrwt beam="1">  1        2 0.10187349E+00 0.27582871E+03</pdfrwt>
<pdfrwt beam="2">  1       -2 0.44190714E-02 0.27582871E+03</pdfrwt>
<totfact> 0.10560841E+04</totfact>
</mgrwt>
</event>
<event>
 5    1  0.1111501E+001  0.2730289E+03  0.7818608E-02  0.1099558E+00
         -1   -1    0    0    0  501 -0.00000000000E+00  0.00000000000E+00  0.62562829964E+02  0.62562829964E+02  0.00000000000E+00 0.  1.
          1   -1    0    0  501    0  0.00000000000E+00 -0.00000000000E+00 -0.29787974321E+03  0.29787974321E+03  0.00000000000E+00 0.  1.
         35    2    1    2    0    0  0.00000000000E+00  0.00000000000E+00 -0.23531691324E+03  0.36044257317E+03  0.27302893417E+03 0.  0.
         25    1    3    3    0    0  0.27573599588E+02  0.92468086452E+01 -0.19452766703E+03  0.23040577272E+03  0.12000000000E+03 0.  0.
         25    1    3    3    0    0 -0.27573599588E+02 -0.92468086452E+01 -0.40789246217E+02  0.13003680045E+03  0.12000000000E+03 0.  0.
<mgrwt>
<rscale>  0 0.27302893E+03</rscale>
<asrwt>0</asrwt>
<pdfrwt beam="1">  1        1 0.45827653E-01 0.27302893E+03</pdfrwt>
<pdfrwt beam="2">  1       -1 0.96250507E-02 0.27302893E+03</pdfrwt>
<totfact> 0.56790915E+03</totfact>
</mgrwt>
</event>
<event>
 5    1  0.1111501E+001  0.2739307E+03  0.7818608E-02  0.1099051E+00
          1   -1    0    0  501    0  0.00000000000E+00  0.00000000000E+00  0.80013365908E+03  0.80013365908E+03  0.00000000000E+00 0.  1.
         -1   -1    0    0    0  501 -0.00000000000E+00 -0.00000000000E+00 -0.23445460825E+02  0.23445460825E+02  0.00000000000E+00 0.  1.
         35    2    1    2    0    0  0.00000000000E+00  0.00000000000E+00  0.77668819825E+03  0.82357911990E+03  0.27393066538E+03 0.  0.
         25    1    3    3    0    0  0.59507133926E+02  0.27735001346E+02  0.40942690170E+03  0.43167200178E+03  0.12000000000E+03 0.  0.
         25    1    3    3    0    0 -0.59507133926E+02 -0.27735001346E+02  0.36726129655E+03  0.39190711812E+03  0.12000000000E+03 0.  0.
<mgrwt>
<rscale>  0 0.27393067E+03</rscale>
<asrwt>0</asrwt>
<pdfrwt beam="1">  1        1 0.12309747E+00 0.27393067E+03</pdfrwt>
<pdfrwt beam="2">  1       -1 0.36069946E-02 0.27393067E+03</pdfrwt>
<totfact> 0.65959415E+03</totfact>
</mgrwt>
</event>
<event>
 5    1  0.1111501E+001  0.2748339E+03  0.7818608E-02  0.1098545E+00
         -1   -1    0    0    0  501 -0.00000000000E+00  0.00000000000E+00  0.10467827775E+02  0.10467827775E+02  0.00000000000E+00 0. -1.
          1   -1    0    0  501    0  0.00000000000E+00 -0.00000000000E+00 -0.18039474983E+04  0.18039474983E+04  0.00000000000E+00 0. -1.
         35    2    1    2    0    0  0.00000000000E+00  0.00000000000E+00 -0.17934796705E+04  0.18144153261E+04  0.27483385328E+03 0.  0.
         25    1    3    3    0    0  0.53466172956E+02 -0.25565241787E+00 -0.11628460616E+04  0.11702434191E+04  0.12000000000E+03 0.  0.
         25    1    3    3    0    0 -0.53466172956E+02  0.25565241787E+00 -0.63063360896E+03  0.64417190699E+03  0.12000000000E+03 0.  0.
<mgrwt>
<rscale>  0 0.27483385E+03</rscale>
<asrwt>0</asrwt>
<pdfrwt beam="1">  1        1 0.27753024E+00 0.27483385E+03</pdfrwt>
<pdfrwt beam="2">  1       -1 0.16104359E-02 0.27483385E+03</pdfrwt>
<totfact> 0.42567912E+03</totfact>
</mgrwt>
</event>
<event>
 5    1  0.1111501E+001  0.2757238E+03  0.7818608E-02  0.1098048E+00
          2   -1    0    0  501    0  0.00000000000E+00  0.00000000000E+00  0.32968596686E+02  0.32968596686E+02  0.00000000000E+00 0.  1.
         -2   -1    0    0    0  501 -0.00000000000E+00 -0.00000000000E+00 -0.57648522339E+03  0.57648522339E+03  0.00000000000E+00 0.  1.
         35    2    1    2    0    0  0.00000000000E+00  0.00000000000E+00 -0.54351662670E+03  0.60945382007E+03  0.27572383883E+03 0.  0.
         25    1    3    3    0    0 -0.48719007515E+02 -0.32167756891E+02 -0.34825151571E+03  0.37294426457E+03  0.12000000000E+03 0.  0.
         25    1    3    3    0    0  0.48719007515E+02  0.32167756891E+02 -0.19526511099E+03  0.23650955551E+03  0.12000000000E+03 0.  0.
<mgrwt>
<rscale>  0 0.27572384E+03</rscale>
<asrwt>0</asrwt>
<pdfrwt beam="1">  1        2 0.50720918E-02 0.27572384E+03</pdfrwt>
<pdfrwt beam="2">  1       -2 0.88690035E-01 0.27572384E+03</pdfrwt>
<totfact> 0.17411600E+03</totfact>
</mgrwt>
</event>
<event>
 5    1  0.1111501E+001  0.2748049E+03  0.7818608E-02  0.1098561E+00
          2   -1    0    0  501    0  0.00000000000E+00  0.00000000000E+00  0.10668206344E+04  0.10668206344E+04  0.00000000000E+00 0. -1.
         -2   -1    0    0    0  501 -0.00000000000E+00 -0.00000000000E+00 -0.17696913394E+02  0.17696913394E+02  0.00000000000E+00 0. -1.
         35    2    1    2    0    0  0.00000000000E+00  0.00000000000E+00  0.10491237210E+04  0.10845175478E+04  0.27480489351E+03 0.  0.
         25    1    3    3    0    0 -0.31764024416E+02 -0.35945956961E+02  0.70875679238E+03  0.72044240285E+03  0.12000000000E+03 0.  0.
         25    1    3    3    0    0  0.31764024416E+02  0.35945956961E+02  0.34036692863E+03  0.36407514495E+03  0.12000000000E+03 0.  0.
<mgrwt>
<rscale>  0 0.27480489E+03</rscale>
<asrwt>0</asrwt>
<pdfrwt beam="1">  1        2 0.16412620E+00 0.27480489E+03</pdfrwt>
<pdfrwt beam="2">  1       -2 0.27226029E-02 0.27480489E+03</pdfrwt>
<totfact> 0.11679612E+04</totfact>
</mgrwt>
</event>
<event>
 5    1  0.1111501E+001  0.2740672E+03  0.7818608E-02  0.1098974E+00
          2   -1    0    0  501    0  0.00000000000E+00  0.00000000000E+00  0.42644353741E+02  0.42644353741E+02  0.00000000000E+00 0. -1.
         -2   -1    0    0    0  501 -0.00000000000E+00 -0.00000000000E+00 -0.44034437692E+03  0.44034437692E+03  0.00000000000E+00 0. -1.
         35    2    1    2    0    0  0.00000000000E+00  0.00000000000E+00 -0.39770002318E+03  0.48298873066E+03  0.27406715511E+03 0.  0.
         25    1    3    3    0    0 -0.12811223839E+01 -0.24495608502E+02 -0.30714944968E+03  0.33066971520E+03  0.12000000000E+03 0.  0.
         25    1    3    3    0    0  0.12811223839E+01  0.24495608502E+02 -0.90550573499E+02  0.15231901546E+03  0.12000000000E+03 0.  0.
<mgrwt>
<rscale>  0 0.27406716E+03</rscale>
<asrwt>0</asrwt>
<pdfrwt beam="1">  1        2 0.65606704E-02 0.27406716E+03</pdfrwt>
<pdfrwt beam="2">  1       -2 0.67745282E-01 0.27406716E+03</pdfrwt>
<totfact> 0.22431792E+03</totfact>
</mgrwt>
</event>
<event>
 5    1  0.1111501E+001  0.2744901E+03  0.7818608E-02  0.1098737E+00
         -2   -1    0    0    0  501 -0.00000000000E+00  0.00000000000E+00  0.48852252574E+02  0.48852252574E+02  0.00000000000E+00 0.  1.
          2   -1    0    0  501    0  0.00000000000E+00 -0.00000000000E+00 -0.38557488264E+03  0.38557488264E+03  0.00000000000E+00 0.  1.
         35    2    1    2    0    0  0.00000000000E+00  0.00000000000E+00 -0.33672263006E+03  0.43442713521E+03  0.27449008399E+03 0.  0.
         25    1    3    3    0    0  0.54339732006E+02  0.34777360014E+02 -0.14216680208E+03  0.19691031171E+03  0.12000000000E+03 0.  0.
         25    1    3    3    0    0 -0.54339732006E+02 -0.34777360014E+02 -0.19455582798E+03  0.23751682350E+03  0.12000000000E+03 0.  0.
<mgrwt>
<rscale>  0 0.27449008E+03</rscale>
<asrwt>0</asrwt>
<pdfrwt beam="1">  1        2 0.59319212E-01 0.27449008E+03</pdfrwt>
<pdfrwt beam="2">  1       -2 0.75157312E-02 0.27449008E+03</pdfrwt>
<totfact> 0.86084171E+03</totfact>
</mgrwt>
</event>
<event>
 5    1  0.1111501E+001  0.2753921E+03  0.7818608E-02  0.1098233E+00
          2   -1    0    0  501    0  0.00000000000E+00  0.00000000000E+00  0.17213514251E+04  0.17213514251E+04  0.00000000000E+00 0.  1.
         -2   -1    0    0    0  501 -0.00000000000E+00 -0.00000000000E+00 -0.11014721435E+02  0.11014721435E+02  0.00000000000E+00 0.  1.
         35    2    1    2    0    0  0.00000000000E+00  0.00000000000E+00  0.17103367036E+04  0.17323661465E+04  0.27539213089E+03 0.  0.
         25    1    3    3    0    0 -0.34088782707E+02  0.56207972300E+02  0.95238221926E+03  0.96216073128E+03  0.12000000000E+03 0.  0.
         25    1    3    3    0    0  0.34088782707E+02 -0.56207972300E+02  0.75795448437E+03  0.77020541522E+03  0.12000000000E+03 0.  0.
<mgrwt>
<rscale>  0 0.27539213E+03</rscale>
<asrwt>0</asrwt>
<pdfrwt beam="1">  1        2 0.26482308E+00 0.27539213E+03</pdfrwt>
<pdfrwt beam="2">  1       -2 0.16945739E-02 0.27539213E+03</pdfrwt>
<totfact> 0.10270430E+04</totfact>
</mgrwt>
</event>
<event>
 5    1  0.1111501E+001  0.2752597E+03  0.7818608E-02  0.1098307E+00
         -1   -1    0    0    0  501 -0.00000000000E+00  0.00000000000E+00  0.21574091606E+03  0.21574091606E+03  0.00000000000E+00 0.  1.
          1   -1    0    0  501    0  0.00000000000E+00 -0.00000000000E+00 -0.87799637657E+02  0.87799637657E+02  0.00000000000E+00 0.  1.
         35    2    1    2    0    0  0.00000000000E+00  0.00000000000E+00  0.12794127841E+03  0.30354055372E+03  0.27525969017E+03 0.  0.
         25    1    3    3    0    0  0.32518021112E+02 -0.31888223414E+02  0.11875035031E+03  0.17485973289E+03  0.12000000000E+03 0.  0.
         25    1    3    3    0    0 -0.32518021112E+02  0.31888223414E+02  0.91909280989E+01  0.12868082083E+03  0.12000000000E+03 0.  0.
<mgrwt>
<rscale>  0 0.27525969E+03</rscale>
<asrwt>0</asrwt>
<pdfrwt beam="1">  1        1 0.13507637E-01 0.27525969E+03</pdfrwt>
<pdfrwt beam="2">  1       -1 0.33190910E-01 0.27525969E+03</pdfrwt>
<totfact> 0.36562255E+03</totfact>
</mgrwt>
</event>
<event>
 5    1  0.1111501E+001  0.2746663E+03  0.7818608E-02  0.1098638E+00
         -1   -1    0    0    0  501 -0.00000000000E+00  0.00000000000E+00  0.61972071094E+02  0.61972071094E+02  0.00000000000E+00 0. -1.
          1   -1    0    0  501    0  0.00000000000E+00 -0.00000000000E+00 -0.30433709726E+03  0.30433709726E+03  0.00000000000E+00 0. -1.
         35    2    1    2    0    0  0.00000000000E+00  0.00000000000E+00 -0.24236502617E+03  0.36630916836E+03  0.27466634470E+03 0.  0.
         25    1    3    3    0    0  0.51628737660E+02 -0.75762444050E+01 -0.65591892454E+02  0.14637357134E+03  0.12000000000E+03 0.  0.
         25    1    3    3    0    0 -0.51628737660E+02  0.75762444050E+01 -0.17677313372E+03  0.21993559702E+03  0.12000000000E+03 0.  0.
<mgrwt>
<rscale>  0 0.27466634E+03</rscale>
<asrwt>0</asrwt>
<pdfrwt beam="1">  1        1 0.46821092E-01 0.27466634E+03</pdfrwt>
<pdfrwt beam="2">  1       -1 0.95341648E-02 0.27466634E+03</pdfrwt>
<totfact> 0.56105164E+03</totfact>
</mgrwt>
</event>
<event>
 5    1  0.1111501E+001  0.2745839E+03  0.7818608E-02  0.1098684E+00
          1   -1    0    0  501    0  0.00000000000E+00  0.00000000000E+00  0.13132081121E+03  0.13132081121E+03  0.00000000000E+00 0.  1.
         -1   -1    0    0    0  501 -0.00000000000E+00 -0.00000000000E+00 -0.14353460892E+03  0.14353460892E+03  0.00000000000E+00 0.  1.
         35    2    1    2    0    0  0.00000000000E+00  0.00000000000E+00 -0.12213797712E+02  0.27485542013E+03  0.27458391272E+03 0.  0.
         25    1    3    3    0    0  0.18442185792E+02  0.32603533679E+02  0.49138040563E+02  0.13497278117E+03  0.12000000000E+03 0.  0.
         25    1    3    3    0    0 -0.18442185792E+02 -0.32603533679E+02 -0.61351838275E+02  0.13988263897E+03  0.12000000000E+03 0.  0.
<mgrwt>
<rscale>  0 0.27458391E+03</rscale>
<asrwt>0</asrwt>
<pdfrwt beam="1">  1        1 0.20203202E-01 0.27458391E+03</pdfrwt>
<pdfrwt beam="2">  1       -1 0.22082247E-01 0.27458391E+03</pdfrwt>
<totfact> 0.42890286E+03</totfact>
</mgrwt>
</event>
<event>
 5    1  0.1111501E+001  0.2808158E+03  0.7818608E-02  0.1095244E+00
         -2   -1    0    0    0  501 -0.00000000000E+00  0.00000000000E+00  0.94150607956E+03  0.94150607956E+03  0.00000000000E+00 0. -1.
          2   -1    0    0  501    0  0.00000000000E+00 -0.00000000000E+00 -0.20939197274E+02  0.20939197274E+02  0.00000000000E+00 0. -1.
         35    2    1    2    0    0  0.00000000000E+00  0.00000000000E+00  0.92056688228E+03  0.96244527683E+03  0.28081582245E+03 0.  0.
         25    1    3    3    0    0  0.11896540082E+02  0.55444545346E+02  0.30327049106E+03  0.33104171342E+03  0.12000000000E+03 0.  0.
         25    1    3    3    0    0 -0.11896540082E+02 -0.55444545346E+02  0.61729639122E+03  0.63140356342E+03  0.12000000000E+03 0.  0.
<mgrwt>
<rscale>  0 0.28081582E+03</rscale>
<asrwt>0</asrwt>
<pdfrwt beam="1">  1        2 0.32214157E-02 0.28081582E+03</pdfrwt>
<pdfrwt beam="2">  1       -2 0.14484706E+00 0.28081582E+03</pdfrwt>
<totfact> 0.98730923E+02</totfact>
</mgrwt>
</event>
<event>
 5    1  0.1111501E+001  0.2747974E+03  0.7818608E-02  0.1098565E+00
         -1   -1    0    0    0  501 -0.00000000000E+00  0.00000000000E+00  0.72285602720E+01  0.72285602720E+01  0.00000000000E+00 0.  1.
          1   -1    0    0  501    0  0.00000000000E+00 -0.00000000000E+00 -0.26116407863E+04  0.26116407863E+04  0.00000000000E+00 0.  1.
         35    2    1    2    0    0  0.00000000000E+00  0.00000000000E+00 -0.26044122260E+04  0.26188693466E+04  0.27479740052E+03 0.  0.
         25    1    3    3    0    0  0.59764923051E+02 -0.13846582377E+02 -0.15570077901E+04  0.15628297515E+04  0.12000000000E+03 0.  0.
         25    1    3    3    0    0 -0.59764923051E+02  0.13846582377E+02 -0.10474044359E+04  0.10560395950E+04  0.12000000000E+03 0.  0.
<mgrwt>
<rscale>  0 0.27479740E+03</rscale>
<asrwt>0</asrwt>
<pdfrwt beam="1">  1        1 0.40179125E+00 0.27479740E+03</pdfrwt>
<pdfrwt beam="2">  1       -1 0.11120852E-02 0.27479740E+03</pdfrwt>
<totfact> 0.21534476E+03</totfact>
</mgrwt>
</event>
<event>
 5    1  0.1111501E+001  0.2743108E+03  0.7818608E-02  0.1098837E+00
         -1   -1    0    0    0  501 -0.00000000000E+00  0.00000000000E+00  0.25030052948E+02  0.25030052948E+02  0.00000000000E+00 0. -1.
          1   -1    0    0  501    0  0.00000000000E+00 -0.00000000000E+00 -0.75156042773E+03  0.75156042773E+03  0.00000000000E+00 0. -1.
         35    2    1    2    0    0  0.00000000000E+00  0.00000000000E+00 -0.72653037478E+03  0.77659048068E+03  0.27431075298E+03 0.  0.
         25    1    3    3    0    0 -0.18389850304E+02 -0.88371333766E+01 -0.54221233727E+03  0.55570720727E+03  0.12000000000E+03 0.  0.
         25    1    3    3    0    0  0.18389850304E+02  0.88371333766E+01 -0.18431803751E+03  0.22088327341E+03  0.12000000000E+03 0.  0.
<mgrwt>
<rscale>  0 0.27431075E+03</rscale>
<asrwt>0</asrwt>
<pdfrwt beam="1">  1        1 0.11562467E+00 0.27431075E+03</pdfrwt>
<pdfrwt beam="2">  1       -1 0.38507778E-02 0.27431075E+03</pdfrwt>
<totfact> 0.65836038E+03</totfact>
</mgrwt>
</event>
<event>
 5    1  0.1111501E+001  0.2748656E+03  0.7818608E-02  0.1098527E+00
         -2   -1    0    0    0  501 -0.00000000000E+00  0.00000000000E+00  0.13133429060E+03  0.13133429060E+03  0.00000000000E+00 0.  1.
          2   -1    0    0  501    0  0.00000000000E+00 -0.00000000000E+00 -0.14381445048E+03  0.14381445048E+03  0.00000000000E+00 0.  1.
         35    2    1    2    0    0  0.00000000000E+00  0.00000000000E+00 -0.12480159884E+02  0.27514874108E+03  0.27486555864E+03 0.  0.
         25    1    3    3    0    0 -0.15856375613E+02  0.10746266086E+02  0.58019996506E+02  0.13465967057E+03  0.12000000000E+03 0.  0.
         25    1    3    3    0    0  0.15856375613E+02 -0.10746266086E+02 -0.70500156390E+02  0.14048907051E+03  0.12000000000E+03 0.  0.
<mgrwt>
<rscale>  0 0.27486556E+03</rscale>
<asrwt>0</asrwt>
<pdfrwt beam="1">  1        2 0.22125300E-01 0.27486556E+03</pdfrwt>
<pdfrwt beam="2">  1       -2 0.20205275E-01 0.27486556E+03</pdfrwt>
<totfact> 0.50697961E+03</totfact>
</mgrwt>
</event>
<event>
 5    1  0.1111501E+001  0.2751957E+03  0.7818608E-02  0.1098342E+00
         -2   -1    0    0    0  501 -0.00000000000E+00  0.00000000000E+00  0.22201382715E+02  0.22201382715E+02  0.00000000000E+00 0. -1.
          2   -1    0    0  501    0  0.00000000000E+00 -0.00000000000E+00 -0.85279253435E+03  0.85279253435E+03  0.00000000000E+00 0. -1.
         35    2    1    2    0    0  0.00000000000E+00  0.00000000000E+00 -0.83059115163E+03  0.87499391706E+03  0.27519573711E+03 0.  0.
         25    1    3    3    0    0  0.19111616330E+02 -0.47829946954E+02 -0.55316474932E+03  0.56836977188E+03  0.12000000000E+03 0.  0.
         25    1    3    3    0    0 -0.19111616330E+02  0.47829946954E+02 -0.27742640231E+03  0.30662414518E+03  0.12000000000E+03 0.  0.
<mgrwt>
<rscale>  0 0.27519574E+03</rscale>
<asrwt>0</asrwt>
<pdfrwt beam="1">  1        2 0.13119882E+00 0.27519574E+03</pdfrwt>
<pdfrwt beam="2">  1       -2 0.34155980E-02 0.27519574E+03</pdfrwt>
<totfact> 0.11347812E+04</totfact>
</mgrwt>
</event>
<event>
 5    1  0.1111501E+001  0.2760250E+03  0.7818608E-02  0.1097880E+00
          2   -1    0    0  501    0  0.00000000000E+00  0.00000000000E+00  0.12833156307E+04  0.12833156307E+04  0.00000000000E+00 0.  1.
         -2   -1    0    0    0  501 -0.00000000000E+00 -0.00000000000E+00 -0.14842371872E+02  0.14842371872E+02  0.00000000000E+00 0.  1.
         35    2    1    2    0    0  0.00000000000E+00  0.00000000000E+00  0.12684732589E+04  0.12981580026E+04  0.27602498308E+03 0.  0.
         25    1    3    3    0    0  0.53985180733E+02  0.20017584405E+02  0.46256939414E+03  0.48133724957E+03  0.12000000000E+03 0.  0.
         25    1    3    3    0    0 -0.53985180733E+02 -0.20017584405E+02  0.80590386471E+03  0.81682075303E+03  0.12000000000E+03 0.  0.
<mgrwt>
<rscale>  0 0.27602498E+03</rscale>
<asrwt>0</asrwt>
<pdfrwt beam="1">  1        2 0.19743309E+00 0.27602498E+03</pdfrwt>
<pdfrwt beam="2">  1       -2 0.22834428E-02 0.27602498E+03</pdfrwt>
<totfact> 0.11385877E+04</totfact>
</mgrwt>
</event>
<event>
 5    1  0.1111501E+001  0.2747938E+03  0.7818608E-02  0.1098567E+00
          1   -1    0    0  501    0  0.00000000000E+00  0.00000000000E+00  0.63063034673E+03  0.63063034673E+03  0.00000000000E+00 0.  1.
         -1   -1    0    0    0  501 -0.00000000000E+00 -0.00000000000E+00 -0.29934983895E+02  0.29934983895E+02  0.00000000000E+00 0.  1.
         35    2    1    2    0    0  0.00000000000E+00  0.00000000000E+00  0.60069536283E+03  0.66056533062E+03  0.27479380832E+03 0.  0.
         25    1    3    3    0    0 -0.66403883288E+02 -0.12817087326E+01  0.31999336259E+03  0.34814777120E+03  0.12000000000E+03 0.  0.
         25    1    3    3    0    0  0.66403883288E+02  0.12817087326E+01  0.28070200025E+03  0.31241755942E+03  0.12000000000E+03 0.  0.
<mgrwt>
<rscale>  0 0.27479381E+03</rscale>
<asrwt>0</asrwt>
<pdfrwt beam="1">  1        1 0.97020044E-01 0.27479381E+03</pdfrwt>
<pdfrwt beam="2">  1       -1 0.46053826E-02 0.27479381E+03</pdfrwt>
<totfact> 0.65064680E+03</totfact>
</mgrwt>
</event>
<event>
 5    1  0.1111501E+001  0.2750126E+03  0.7818608E-02  0.1098445E+00
          1   -1    0    0  501    0  0.00000000000E+00  0.00000000000E+00  0.20231594681E+04  0.20231594681E+04  0.00000000000E+00 0. -1.
         -1   -1    0    0    0  501 -0.00000000000E+00 -0.00000000000E+00 -0.93457696929E+01  0.93457696929E+01  0.00000000000E+00 0. -1.
         35    2    1    2    0    0  0.00000000000E+00  0.00000000000E+00  0.20138136984E+04  0.20325052378E+04  0.27501259928E+03 0.  0.
         25    1    3    3    0    0  0.22359919405E+02 -0.36527069298E+02  0.62474907234E+03  0.63760928176E+03  0.12000000000E+03 0.  0.
         25    1    3    3    0    0 -0.22359919405E+02  0.36527069298E+02  0.13890646261E+04  0.13948959561E+04  0.12000000000E+03 0.  0.
<mgrwt>
<rscale>  0 0.27501260E+03</rscale>
<asrwt>0</asrwt>
<pdfrwt beam="1">  1        1 0.31125495E+00 0.27501260E+03</pdfrwt>
<pdfrwt beam="2">  1       -1 0.14378123E-02 0.27501260E+03</pdfrwt>
<totfact> 0.36177379E+03</totfact>
</mgrwt>
</event>
<event>
 5    1  0.1111501E+001  0.2757594E+03  0.7818608E-02  0.1098028E+00
         -1   -1    0    0    0  501 -0.00000000000E+00  0.00000000000E+00  0.13405311635E+03  0.13405311635E+03  0.00000000000E+00 0.  1.
          1   -1    0    0  501    0  0.00000000000E+00 -0.00000000000E+00 -0.14181554065E+03  0.14181554065E+03  0.00000000000E+00 0.  1.
         35    2    1    2    0    0  0.00000000000E+00  0.00000000000E+00 -0.77624242932E+01  0.27586865700E+03  0.27575942538E+03 0.  0.
         25    1    3    3    0    0 -0.63395979305E+01 -0.29936980150E+02  0.56759643839E+02  0.13622800906E+03  0.12000000000E+03 0.  0.
         25    1    3    3    0    0  0.63395979305E+01  0.29936980150E+02 -0.64522068132E+02  0.13964064795E+03  0.12000000000E+03 0.  0.
<mgrwt>
<rscale>  0 0.27575943E+03</rscale>
<asrwt>0</asrwt>
<pdfrwt beam="1">  1        1 0.21817776E-01 0.27575943E+03</pdfrwt>
<pdfrwt beam="2">  1       -1 0.20623556E-01 0.27575943E+03</pdfrwt>
<totfact> 0.43457762E+03</totfact>
</mgrwt>
</event>
<event>
 5    1  0.1111501E+001  0.2745063E+03  0.7818608E-02  0.1098728E+00
         -1   -1    0    0    0  501 -0.00000000000E+00  0.00000000000E+00  0.51270806429E+01  0.51270806429E+01  0.00000000000E+00 0.  1.
          1   -1    0    0  501    0  0.00000000000E+00 -0.00000000000E+00 -0.36742978774E+04  0.36742978774E+04  0.00000000000E+00 0.  1.
         35    2    1    2    0    0  0.00000000000E+00  0.00000000000E+00 -0.36691707968E+04  0.36794249580E+04  0.27450625875E+03 0.  0.
         25    1    3    3    0    0 -0.12339354837E+02  0.63036108489E+02 -0.20715752440E+04  0.20760418595E+04  0.12000000000E+03 0.  0.
         25    1    3    3    0    0  0.12339354837E+02 -0.63036108489E+02 -0.15975955527E+04  0.16033830986E+04  0.12000000000E+03 0.  0.
<mgrwt>
<rscale>  0 0.27450626E+03</rscale>
<asrwt>0</asrwt>
<pdfrwt beam="1">  1        1 0.56527606E+00 0.27450626E+03</pdfrwt>
<pdfrwt beam="2">  1       -1 0.78878238E-03 0.27450626E+03</pdfrwt>
<totfact> 0.61085660E+02</totfact>
</mgrwt>
</event>
<event>
 5    1  0.1111501E+001  0.2740111E+03  0.7818608E-02  0.1099006E+00
         -2   -1    0    0    0  501 -0.00000000000E+00  0.00000000000E+00  0.25989240297E+02  0.25989240297E+02  0.00000000000E+00 0. -1.
          2   -1    0    0  501    0  0.00000000000E+00 -0.00000000000E+00 -0.72224210236E+03  0.72224210236E+03  0.00000000000E+00 0. -1.
         35    2    1    2    0    0  0.00000000000E+00  0.00000000000E+00 -0.69625286206E+03  0.74823134266E+03  0.27401112058E+03 0.  0.
         25    1    3    3    0    0  0.53734360128E+02 -0.81241563864E+01 -0.24533092878E+03  0.27846121452E+03  0.12000000000E+03 0.  0.
         25    1    3    3    0    0 -0.53734360128E+02  0.81241563864E+01 -0.45092193328E+03  0.46977012814E+03  0.12000000000E+03 0.  0.
<mgrwt>
<rscale>  0 0.27401112E+03</rscale>
<asrwt>0</asrwt>
<pdfrwt beam="1">  1        2 0.11111417E+00 0.27401112E+03</pdfrwt>
<pdfrwt beam="2">  1       -2 0.39983445E-02 0.27401112E+03</pdfrwt>
<totfact> 0.11053534E+04</totfact>
</mgrwt>
</event>
<event>
 5    1  0.1111501E+001  0.2745938E+03  0.7818608E-02  0.1098679E+00
          1   -1    0    0  501    0  0.00000000000E+00  0.00000000000E+00  0.11087392266E+04  0.11087392266E+04  0.00000000000E+00 0.  1.
         -1   -1    0    0    0  501 -0.00000000000E+00 -0.00000000000E+00 -0.17001684798E+02  0.17001684798E+02  0.00000000000E+00 0.  1.
         35    2    1    2    0    0  0.00000000000E+00  0.00000000000E+00  0.10917375418E+04  0.11257409114E+04  0.27459377163E+03 0.  0.
         25    1    3    3    0    0 -0.17368311803E+02 -0.15168721685E+02  0.80250503617E+03  0.81175493928E+03  0.12000000000E+03 0.  0.
         25    1    3    3    0    0  0.17368311803E+02  0.15168721685E+02  0.28923250566E+03  0.31398597215E+03  0.12000000000E+03 0.  0.
<mgrwt>
<rscale>  0 0.27459377E+03</rscale>
<asrwt>0</asrwt>
<pdfrwt beam="1">  1        1 0.17057521E+00 0.27459377E+03</pdfrwt>
<pdfrwt beam="2">  1       -1 0.26156447E-02 0.27459377E+03</pdfrwt>
<totfact> 0.61407209E+03</totfact>
</mgrwt>
</event>
<event>
 5    1  0.1111501E+001  0.2748132E+03  0.7818608E-02  0.1098556E+00
          2   -1    0    0  501    0  0.00000000000E+00  0.00000000000E+00  0.19252923733E+03  0.19252923733E+03  0.00000000000E+00 0. -1.
         -2   -1    0    0    0  501 -0.00000000000E+00 -0.00000000000E+00 -0.98065973980E+02  0.98065973980E+02  0.00000000000E+00 0. -1.
         35    2    1    2    0    0  0.00000000000E+00  0.00000000000E+00  0.94463263349E+02  0.29059521131E+03  0.27481315237E+03 0.  0.
         25    1    3    3    0    0 -0.33596756713E+02 -0.74950186772E+01  0.10793621306E+03  0.16503073488E+03  0.12000000000E+03 0.  0.
         25    1    3    3    0    0  0.33596756713E+02  0.74950186772E+01 -0.13472949707E+02  0.12556447643E+03  0.12000000000E+03 0.  0.
<mgrwt>
<rscale>  0 0.27481315E+03</rscale>
<asrwt>0</asrwt>
<pdfrwt beam="1">  1        2 0.29619883E-01 0.27481315E+03</pdfrwt>
<pdfrwt beam="2">  1       -2 0.15087073E-01 0.27481315E+03</pdfrwt>
<totfact> 0.59852099E+03</totfact>
</mgrwt>
</event>
<event>
 5    1  0.1111501E+001  0.2753778E+03  0.7818608E-02  0.1098241E+00
          1   -1    0    0  501    0  0.00000000000E+00  0.00000000000E+00  0.10117704275E+04  0.10117704275E+04  0.00000000000E+00 0. -1.
         -1   -1    0    0    0  501 -0.00000000000E+00 -0.00000000000E+00 -0.18737681586E+02  0.18737681586E+02  0.00000000000E+00 0. -1.
         35    2    1    2    0    0  0.00000000000E+00  0.00000000000E+00  0.99303274593E+03  0.10305081091E+04  0.27537779220E+03 0.  0.
         25    1    3    3    0    0  0.20929230929E+02 -0.58375360084E+02  0.59640591801E+03  0.61151102558E+03  0.12000000000E+03 0.  0.
         25    1    3    3    0    0 -0.20929230929E+02  0.58375360084E+02  0.39662682792E+03  0.41899708352E+03  0.12000000000E+03 0.  0.
<mgrwt>
<rscale>  0 0.27537779E+03</rscale>
<asrwt>0</asrwt>
<pdfrwt beam="1">  1        1 0.15565695E+00 0.27537779E+03</pdfrwt>
<pdfrwt beam="2">  1       -1 0.28827210E-02 0.27537779E+03</pdfrwt>
<totfact> 0.62659810E+03</totfact>
</mgrwt>
</event>
<event>
 5    1  0.1111501E+001  0.2748326E+03  0.7818608E-02  0.1098545E+00
         -2   -1    0    0    0  501 -0.00000000000E+00  0.00000000000E+00  0.58304056483E+02  0.58304056483E+02  0.00000000000E+00 0. -1.
          2   -1    0    0  501    0  0.00000000000E+00 -0.00000000000E+00 -0.32387534397E+03  0.32387534397E+03  0.00000000000E+00 0. -1.
         35    2    1    2    0    0  0.00000000000E+00  0.00000000000E+00 -0.26557128748E+03  0.38217940045E+03  0.27483264979E+03 0.  0.
         25    1    3    3    0    0 -0.28746610023E+02  0.43878969307E+01 -0.21665589032E+03  0.24936999827E+03  0.12000000000E+03 0.  0.
         25    1    3    3    0    0  0.28746610023E+02 -0.43878969307E+01 -0.48915397162E+02  0.13280940218E+03  0.12000000000E+03 0.  0.
<mgrwt>
<rscale>  0 0.27483265E+03</rscale>
<asrwt>0</asrwt>
<pdfrwt beam="1">  1        2 0.49826976E-01 0.27483265E+03</pdfrwt>
<pdfrwt beam="2">  1       -2 0.89698549E-02 0.27483265E+03</pdfrwt>
<totfact> 0.78793502E+03</totfact>
</mgrwt>
</event>
<event>
 5    1  0.1111501E+001  0.2745370E+03  0.7818608E-02  0.1098711E+00
         -2   -1    0    0    0  501 -0.00000000000E+00  0.00000000000E+00  0.10064288610E+02  0.10064288610E+02  0.00000000000E+00 0. -1.
          2   -1    0    0  501    0  0.00000000000E+00 -0.00000000000E+00 -0.18722277861E+04  0.18722277861E+04  0.00000000000E+00 0. -1.
         35    2    1    2    0    0  0.00000000000E+00  0.00000000000E+00 -0.18621634975E+04  0.18822920748E+04  0.27453699775E+03 0.  0.
         25    1    3    3    0    0 -0.35724122666E+02  0.30658588266E+02 -0.12545974897E+04  0.12612022135E+04  0.12000000000E+03 0.  0.
         25    1    3    3    0    0  0.35724122666E+02 -0.30658588266E+02 -0.60756600780E+03  0.62108986130E+03  0.12000000000E+03 0.  0.
<mgrwt>
<rscale>  0 0.27453700E+03</rscale>
<asrwt>0</asrwt>
<pdfrwt beam="1">  1        2 0.28803468E+00 0.27453700E+03</pdfrwt>
<pdfrwt beam="2">  1       -2 0.15483541E-02 0.27453700E+03</pdfrwt>
<totfact> 0.97664369E+03</totfact>
</mgrwt>
</event>
<event>
 5    1  0.1111501E+001  0.2732367E+03  0.7818608E-02  0.1099441E+00
         -2   -1    0    0    0  501 -0.00000000000E+00  0.00000000000E+00  0.78972838704E+02  0.78972838704E+02  0.00000000000E+00 0.  1.
          2   -1    0    0  501    0  0.00000000000E+00 -0.00000000000E+00 -0.23634169813E+03  0.23634169813E+03  0.00000000000E+00 0.  1.
         35    2    1    2    0    0  0.00000000000E+00  0.00000000000E+00 -0.15736885943E+03  0.31531453683E+03  0.27323670914E+03 0.  0.
         25    1    3    3    0    0  0.51617986476E+02  0.56795174388E+01 -0.32989889094E+02  0.13485179357E+03  0.12000000000E+03 0.  0.
         25    1    3    3    0    0 -0.51617986476E+02 -0.56795174388E+01 -0.12437897033E+03  0.18046274327E+03  0.12000000000E+03 0.  0.
<mgrwt>
<rscale>  0 0.27323671E+03</rscale>
<asrwt>0</asrwt>
<pdfrwt beam="1">  1        2 0.36360261E-01 0.27323671E+03</pdfrwt>
<pdfrwt beam="2">  1       -2 0.12149668E-01 0.27323671E+03</pdfrwt>
<totfact> 0.68169720E+03</totfact>
</mgrwt>
</event>
<event>
 5    1  0.1111501E+001  0.2749367E+03  0.7818608E-02  0.1098487E+00
         -1   -1    0    0    0  501 -0.00000000000E+00  0.00000000000E+00  0.22185627562E+04  0.22185627562E+04  0.00000000000E+00 0. -1.
          1   -1    0    0  501    0  0.00000000000E+00 -0.00000000000E+00 -0.85179226259E+01  0.85179226259E+01  0.00000000000E+00 0. -1.
         35    2    1    2    0    0  0.00000000000E+00  0.00000000000E+00  0.22100448336E+04  0.22270806788E+04  0.27493669015E+03 0.  0.
         25    1    3    3    0    0 -0.35226849538E+02  0.45689806842E+02  0.13819849382E+04  0.13883842620E+04  0.12000000000E+03 0.  0.
         25    1    3    3    0    0  0.35226849538E+02 -0.45689806842E+02  0.82805989532E+03  0.83869641684E+03  0.12000000000E+03 0.  0.
<mgrwt>
<rscale>  0 0.27493669E+03</rscale>
<asrwt>0</asrwt>
<pdfrwt beam="1">  1        1 0.13104514E-02 0.27493669E+03</pdfrwt>
<pdfrwt beam="2">  1       -1 0.34131689E+00 0.27493669E+03</pdfrwt>
<totfact> 0.23378405E+02</totfact>
</mgrwt>
</event>
<event>
 5    1  0.1111501E+001  0.2746793E+03  0.7818608E-02  0.1098631E+00
         -2   -1    0    0    0  501 -0.00000000000E+00  0.00000000000E+00  0.78249943327E+03  0.78249943327E+03  0.00000000000E+00 0.  1.
          2   -1    0    0  501    0  0.00000000000E+00 -0.00000000000E+00 -0.24105033959E+02  0.24105033959E+02  0.00000000000E+00 0.  1.
         35    2    1    2    0    0  0.00000000000E+00  0.00000000000E+00  0.75839439931E+03  0.80660446723E+03  0.27467927051E+03 0.  0.
         25    1    3    3    0    0  0.18206383940E+02 -0.89927436526E+01  0.19232128774E+03  0.22759573716E+03  0.12000000000E+03 0.  0.
         25    1    3    3    0    0 -0.18206383940E+02  0.89927436526E+01  0.56607311156E+03  0.57900873006E+03  0.12000000000E+03 0.  0.
<mgrwt>
<rscale>  0 0.27467927E+03</rscale>
<asrwt>0</asrwt>
<pdfrwt beam="1">  1        2 0.37084674E-02 0.27467927E+03</pdfrwt>
<pdfrwt beam="2">  1       -2 0.12038451E+00 0.27467927E+03</pdfrwt>
<totfact> 0.12933754E+03</totfact>
</mgrwt>
</event>
<event>
 5    1  0.1111501E+001  0.2741789E+03  0.7818608E-02  0.1098911E+00
          2   -1    0    0  501    0  0.00000000000E+00  0.00000000000E+00  0.44185238416E+03  0.44185238416E+03  0.00000000000E+00 0.  1.
         -2   -1    0    0    0  501 -0.00000000000E+00 -0.00000000000E+00 -0.42533470295E+02  0.42533470295E+02  0.00000000000E+00 0.  1.
         35    2    1    2    0    0  0.00000000000E+00  0.00000000000E+00  0.39931891386E+03  0.48438585445E+03  0.27417888508E+03 0.  0.
         25    1    3    3    0    0  0.62341520209E+02  0.16119707076E+02  0.17188240121E+03  0.21929402624E+03  0.12000000000E+03 0.  0.
         25    1    3    3    0    0 -0.62341520209E+02 -0.16119707076E+02  0.22743651266E+03  0.26509182822E+03  0.12000000000E+03 0.  0.
<mgrwt>
<rscale>  0 0.27417889E+03</rscale>
<asrwt>0</asrwt>
<pdfrwt beam="1">  1        2 0.67977287E-01 0.27417889E+03</pdfrwt>
<pdfrwt beam="2">  1       -2 0.65436111E-02 0.27417889E+03</pdfrwt>
<totfact> 0.91949292E+03</totfact>
</mgrwt>
</event>
<event>
 5    1  0.1111501E+001  0.2721827E+03  0.7818608E-02  0.1100037E+00
          2   -1    0    0  501    0  0.00000000000E+00  0.00000000000E+00  0.91580173074E+03  0.91580173074E+03  0.00000000000E+00 0. -1.
         -2   -1    0    0    0  501 -0.00000000000E+00 -0.00000000000E+00 -0.20223654666E+02  0.20223654666E+02  0.00000000000E+00 0. -1.
         35    2    1    2    0    0  0.00000000000E+00  0.00000000000E+00  0.89557807607E+03  0.93602538540E+03  0.27218271764E+03 0.  0.
         25    1    3    3    0    0 -0.16992737588E+01 -0.48291397340E+02  0.30245845006E+03  0.32896209599E+03  0.12000000000E+03 0.  0.
         25    1    3    3    0    0  0.16992737588E+01  0.48291397340E+02  0.59311962602E+03  0.60706328941E+03  0.12000000000E+03 0.  0.
<mgrwt>
<rscale>  0 0.27218272E+03</rscale>
<asrwt>0</asrwt>
<pdfrwt beam="1">  1        2 0.14089254E+00 0.27218272E+03</pdfrwt>
<pdfrwt beam="2">  1       -2 0.31113322E-02 0.27218272E+03</pdfrwt>
<totfact> 0.11861028E+04</totfact>
</mgrwt>
</event>
<event>
 5    1  0.1111501E+001  0.2744516E+03  0.7818608E-02  0.1098759E+00
          1   -1    0    0  501    0  0.00000000000E+00  0.00000000000E+00  0.29501251230E+02  0.29501251230E+02  0.00000000000E+00 0.  1.
         -1   -1    0    0    0  501 -0.00000000000E+00 -0.00000000000E+00 -0.63830921186E+03  0.63830921186E+03  0.00000000000E+00 0.  1.
         35    2    1    2    0    0  0.00000000000E+00  0.00000000000E+00 -0.60880796062E+03  0.66781046309E+03  0.27445160172E+03 0.  0.
         25    1    3    3    0    0  0.23485993240E+02  0.50181958489E+02 -0.39417422322E+03  0.41574407884E+03  0.12000000000E+03 0.  0.
         25    1    3    3    0    0 -0.23485993240E+02 -0.50181958489E+02 -0.21463373740E+03  0.25206638425E+03  0.12000000000E+03 0.  0.
<mgrwt>
<rscale>  0 0.27445160E+03</rscale>
<asrwt>0</asrwt>
<pdfrwt beam="1">  1        1 0.45386542E-02 0.27445160E+03</pdfrwt>
<pdfrwt beam="2">  1       -1 0.98201414E-01 0.27445160E+03</pdfrwt>
<totfact> 0.19973832E+03</totfact>
</mgrwt>
</event>
<event>
 5    1  0.1111501E+001  0.2757485E+03  0.7818608E-02  0.1098034E+00
         -2   -1    0    0    0  501 -0.00000000000E+00  0.00000000000E+00  0.19995536431E+03  0.19995536431E+03  0.00000000000E+00 0.  1.
          2   -1    0    0  501    0  0.00000000000E+00 -0.00000000000E+00 -0.95067730205E+02  0.95067730205E+02  0.00000000000E+00 0.  1.
         35    2    1    2    0    0  0.00000000000E+00  0.00000000000E+00  0.10488763411E+03  0.29502309452E+03  0.27574845514E+03 0.  0.
         25    1    3    3    0    0  0.69213458331E+01  0.48573319844E+02  0.10264969446E+03  0.16536091498E+03  0.12000000000E+03 0.  0.
         25    1    3    3    0    0 -0.69213458331E+01 -0.48573319844E+02  0.22379396425E+01  0.12966217954E+03  0.12000000000E+03 0.  0.
<mgrwt>
<rscale>  0 0.27574846E+03</rscale>
<asrwt>0</asrwt>
<pdfrwt beam="1">  1        2 0.14625805E-01 0.27574846E+03</pdfrwt>
<pdfrwt beam="2">  1       -2 0.30762364E-01 0.27574846E+03</pdfrwt>
<totfact> 0.39021508E+03</totfact>
</mgrwt>
</event>
<event>
 5    1  0.1111501E+001  0.2655484E+03  0.7818608E-02  0.1103855E+00
         -2   -1    0    0    0  501 -0.00000000000E+00  0.00000000000E+00  0.16654217286E+04  0.16654217286E+04  0.00000000000E+00 0.  1.
          2   -1    0    0  501    0  0.00000000000E+00 -0.00000000000E+00 -0.10585300073E+02  0.10585300073E+02  0.00000000000E+00 0.  1.
         35    2    1    2    0    0  0.00000000000E+00  0.00000000000E+00  0.16548364285E+04  0.16760070287E+04  0.26554840421E+03 0.  0.
         25    1    3    3    0    0  0.24698049230E+02  0.49642098690E+02  0.90590872174E+03  0.91550256347E+03  0.12000000000E+03 0.  0.
         25    1    3    3    0    0 -0.24698049230E+02 -0.49642098690E+02  0.74892770680E+03  0.76050446521E+03  0.12000000000E+03 0.  0.
<mgrwt>
<rscale>  0 0.26554840E+03</rscale>
<asrwt>0</asrwt>
<pdfrwt beam="1">  1        2 0.16285090E-02 0.26554840E+03</pdfrwt>
<pdfrwt beam="2">  1       -2 0.25621852E+00 0.26554840E+03</pdfrwt>
<totfact> 0.48034401E+02</totfact>
</mgrwt>
</event>
<event>
 5    1  0.1111501E+001  0.2755360E+03  0.7818608E-02  0.1098152E+00
         -1   -1    0    0    0  501 -0.00000000000E+00  0.00000000000E+00  0.10943621641E+04  0.10943621641E+04  0.00000000000E+00 0.  1.
          1   -1    0    0  501    0  0.00000000000E+00 -0.00000000000E+00 -0.17343451827E+02  0.17343451827E+02  0.00000000000E+00 0.  1.
         35    2    1    2    0    0  0.00000000000E+00  0.00000000000E+00  0.10770187123E+04  0.11117056159E+04  0.27553596842E+03 0.  0.
         25    1    3    3    0    0  0.38916003031E+02  0.55360116523E+02  0.54216222223E+03  0.55939169909E+03  0.12000000000E+03 0.  0.
         25    1    3    3    0    0 -0.38916003031E+02 -0.55360116523E+02  0.53485649003E+03  0.55231391683E+03  0.12000000000E+03 0.  0.
<mgrwt>
<rscale>  0 0.27553597E+03</rscale>
<asrwt>0</asrwt>
<pdfrwt beam="1">  1        1 0.26682242E-02 0.27553597E+03</pdfrwt>
<pdfrwt beam="2">  1       -1 0.16836336E+00 0.27553597E+03</pdfrwt>
<totfact> 0.11119402E+03</totfact>
</mgrwt>
</event>
<event>
 5    1  0.1111501E+001  0.2764933E+03  0.7818608E-02  0.1097620E+00
          1   -1    0    0  501    0  0.00000000000E+00  0.00000000000E+00  0.80144968865E+03  0.80144968865E+03  0.00000000000E+00 0.  1.
         -1   -1    0    0    0  501 -0.00000000000E+00 -0.00000000000E+00 -0.23846951587E+02  0.23846951587E+02  0.00000000000E+00 0.  1.
         35    2    1    2    0    0  0.00000000000E+00  0.00000000000E+00  0.77760273706E+03  0.82529664024E+03  0.27649326881E+03 0.  0.
         25    1    3    3    0    0 -0.60457443896E+02  0.30205309524E+02  0.42470288322E+03  0.44647508582E+03  0.12000000000E+03 0.  0.
         25    1    3    3    0    0  0.60457443896E+02 -0.30205309524E+02  0.35289985385E+03  0.37882155442E+03  0.12000000000E+03 0.  0.
<mgrwt>
<rscale>  0 0.27649327E+03</rscale>
<asrwt>0</asrwt>
<pdfrwt beam="1">  1        1 0.12329993E+00 0.27649327E+03</pdfrwt>
<pdfrwt beam="2">  1       -1 0.36687624E-02 0.27649327E+03</pdfrwt>
<totfact> 0.64171531E+03</totfact>
</mgrwt>
</event>
<event>
 5    1  0.1111501E+001  0.2745482E+03  0.7818608E-02  0.1098704E+00
         -2   -1    0    0    0  501 -0.00000000000E+00  0.00000000000E+00  0.47570344910E+02  0.47570344910E+02  0.00000000000E+00 0. -1.
          2   -1    0    0  501    0  0.00000000000E+00 -0.00000000000E+00 -0.39613288157E+03  0.39613288157E+03  0.00000000000E+00 0. -1.
         35    2    1    2    0    0  0.00000000000E+00  0.00000000000E+00 -0.34856253666E+03  0.44370322648E+03  0.27454819472E+03 0.  0.
         25    1    3    3    0    0  0.59637045852E+02 -0.22266626825E+02 -0.14229194560E+03  0.19672157403E+03  0.12000000000E+03 0.  0.
         25    1    3    3    0    0 -0.59637045852E+02  0.22266626825E+02 -0.20627059106E+03  0.24698165245E+03  0.12000000000E+03 0.  0.
<mgrwt>
<rscale>  0 0.27454819E+03</rscale>
<asrwt>0</asrwt>
<pdfrwt beam="1">  1        2 0.60943520E-01 0.27454819E+03</pdfrwt>
<pdfrwt beam="2">  1       -2 0.73185147E-02 0.27454819E+03</pdfrwt>
<totfact> 0.87126223E+03</totfact>
</mgrwt>
</event>
<event>
 5    1  0.1111501E+001  0.2745963E+03  0.7818608E-02  0.1098677E+00
          1   -1    0    0  501    0  0.00000000000E+00  0.00000000000E+00  0.98194974530E+03  0.98194974530E+03  0.00000000000E+00 0. -1.
         -1   -1    0    0    0  501 -0.00000000000E+00 -0.00000000000E+00 -0.19197293048E+02  0.19197293048E+02  0.00000000000E+00 0. -1.
         35    2    1    2    0    0  0.00000000000E+00  0.00000000000E+00  0.96275245225E+03  0.10011470383E+04  0.27459626377E+03 0.  0.
         25    1    3    3    0    0 -0.33836056192E+02 -0.26643272219E+01  0.27197403821E+03  0.29920203007E+03  0.12000000000E+03 0.  0.
         25    1    3    3    0    0  0.33836056192E+02  0.26643272219E+01  0.69077841404E+03  0.70194500828E+03  0.12000000000E+03 0.  0.
<mgrwt>
<rscale>  0 0.27459626E+03</rscale>
<asrwt>0</asrwt>
<pdfrwt beam="1">  1        1 0.15106915E+00 0.27459626E+03</pdfrwt>
<pdfrwt beam="2">  1       -1 0.29534305E-02 0.27459626E+03</pdfrwt>
<totfact> 0.63650110E+03</totfact>
</mgrwt>
</event>
<event>
 5    1  0.1111501E+001  0.2738899E+03  0.7818608E-02  0.1099074E+00
          2   -1    0    0  501    0  0.00000000000E+00  0.00000000000E+00  0.11754520859E+04  0.11754520859E+04  0.00000000000E+00 0. -1.
         -2   -1    0    0    0  501 -0.00000000000E+00 -0.00000000000E+00 -0.15954644908E+02  0.15954644908E+02  0.00000000000E+00 0. -1.
         35    2    1    2    0    0  0.00000000000E+00  0.00000000000E+00  0.11594974410E+04  0.11914067308E+04  0.27388990954E+03 0.  0.
         25    1    3    3    0    0  0.99708038488E+01 -0.56770884027E+02  0.44003680082E+03  0.45973333171E+03  0.12000000000E+03 0.  0.
         25    1    3    3    0    0 -0.99708038488E+01  0.56770884027E+02  0.71946064020E+03  0.73167339913E+03  0.12000000000E+03 0.  0.
<mgrwt>
<rscale>  0 0.27388991E+03</rscale>
<asrwt>0</asrwt>
<pdfrwt beam="1">  1        2 0.18083871E+00 0.27388991E+03</pdfrwt>
<pdfrwt beam="2">  1       -2 0.24545617E-02 0.27388991E+03</pdfrwt>
<totfact> 0.11768278E+04</totfact>
</mgrwt>
</event>
<event>
 5    1  0.1111501E+001  0.2716545E+03  0.7818608E-02  0.1100336E+00
          2   -1    0    0  501    0  0.00000000000E+00  0.00000000000E+00  0.40282111909E+03  0.40282111909E+03  0.00000000000E+00 0.  1.
         -2   -1    0    0    0  501 -0.00000000000E+00 -0.00000000000E+00 -0.45799588300E+02  0.45799588300E+02  0.00000000000E+00 0.  1.
         35    2    1    2    0    0  0.00000000000E+00  0.00000000000E+00  0.35702153079E+03  0.44862070739E+03  0.27165449684E+03 0.  0.
         25    1    3    3    0    0  0.12152801938E+02 -0.14986065253E+02  0.78373536198E+02  0.14461909944E+03  0.12000000000E+03 0.  0.
         25    1    3    3    0    0 -0.12152801938E+02  0.14986065253E+02  0.27864799459E+03  0.30400160795E+03  0.12000000000E+03 0.  0.
<mgrwt>
<rscale>  0 0.27165450E+03</rscale>
<asrwt>0</asrwt>
<pdfrwt beam="1">  1        2 0.61972478E-01 0.27165450E+03</pdfrwt>
<pdfrwt beam="2">  1       -2 0.70460908E-02 0.27165450E+03</pdfrwt>
<totfact> 0.90702100E+03</totfact>
</mgrwt>
</event>
<event>
 5    1  0.1111501E+001  0.2749086E+03  0.7818608E-02  0.1098503E+00
         -1   -1    0    0    0  501 -0.00000000000E+00  0.00000000000E+00  0.12464997452E+03  0.12464997452E+03  0.00000000000E+00 0.  1.
          1   -1    0    0  501    0  0.00000000000E+00 -0.00000000000E+00 -0.15157386773E+03  0.15157386773E+03  0.00000000000E+00 0.  1.
         35    2    1    2    0    0  0.00000000000E+00  0.00000000000E+00 -0.26923893206E+02  0.27622384225E+03  0.27490855753E+03 0.  0.
         25    1    3    3    0    0 -0.50924339044E+02 -0.39570204569E+02  0.49173531927E+01  0.13632046713E+03  0.12000000000E+03 0.  0.
         25    1    3    3    0    0  0.50924339044E+02  0.39570204569E+02 -0.31841246399E+02  0.13990337512E+03  0.12000000000E+03 0.  0.
<mgrwt>
<rscale>  0 0.27490856E+03</rscale>
<asrwt>0</asrwt>
<pdfrwt beam="1">  1        1 0.23319057E-01 0.27490856E+03</pdfrwt>
<pdfrwt beam="2">  1       -1 0.19176919E-01 0.27490856E+03</pdfrwt>
<totfact> 0.44912358E+03</totfact>
</mgrwt>
</event>
<event>
 5    1  0.1111501E+001  0.2784964E+03  0.7818608E-02  0.1096513E+00
         -1   -1    0    0    0  501 -0.00000000000E+00  0.00000000000E+00  0.17083055562E+03  0.17083055562E+03  0.00000000000E+00 0.  1.
          1   -1    0    0  501    0  0.00000000000E+00 -0.00000000000E+00 -0.11350463123E+03  0.11350463123E+03  0.00000000000E+00 0.  1.
         35    2    1    2    0    0  0.00000000000E+00  0.00000000000E+00  0.57325924388E+02  0.28433518685E+03  0.27849638575E+03 0.  0.
         25    1    3    3    0    0  0.61348984720E+02  0.99720449815E+01 -0.56104632990E+01  0.13525759463E+03  0.12000000000E+03 0.  0.
         25    1    3    3    0    0 -0.61348984720E+02 -0.99720449815E+01  0.62936387687E+02  0.14907759222E+03  0.12000000000E+03 0.  0.
<mgrwt>
<rscale>  0 0.27849639E+03</rscale>
<asrwt>0</asrwt>
<pdfrwt beam="1">  1        1 0.17462251E-01 0.27849639E+03</pdfrwt>
<pdfrwt beam="2">  1       -1 0.26281624E-01 0.27849639E+03</pdfrwt>
<totfact> 0.38832229E+03</totfact>
</mgrwt>
</event>
<event>
 5    1  0.1111501E+001  0.2749847E+03  0.7818608E-02  0.1098460E+00
          2   -1    0    0  501    0  0.00000000000E+00  0.00000000000E+00  0.62946096596E+03  0.62946096596E+03  0.00000000000E+00 0. -1.
         -2   -1    0    0    0  501 -0.00000000000E+00 -0.00000000000E+00 -0.30032284273E+02  0.30032284273E+02  0.00000000000E+00 0. -1.
         35    2    1    2    0    0  0.00000000000E+00  0.00000000000E+00  0.59942868168E+03  0.65949325023E+03  0.27498473171E+03 0.  0.
         25    1    3    3    0    0  0.12605904657E+02  0.37411328763E+02  0.16955024989E+03  0.21143746969E+03  0.12000000000E+03 0.  0.
         25    1    3    3    0    0 -0.12605904657E+02 -0.37411328763E+02  0.42987843179E+03  0.44805578053E+03  0.12000000000E+03 0.  0.
<mgrwt>
<rscale>  0 0.27498473E+03</rscale>
<asrwt>0</asrwt>
<pdfrwt beam="1">  1        2 0.96840139E-01 0.27498473E+03</pdfrwt>
<pdfrwt beam="2">  1       -2 0.46203519E-02 0.27498473E+03</pdfrwt>
<totfact> 0.10482313E+04</totfact>
</mgrwt>
</event>
<event>
 5    1  0.1111501E+001  0.2733319E+03  0.7818608E-02  0.1099388E+00
          2   -1    0    0  501    0  0.00000000000E+00  0.00000000000E+00  0.81106134856E+03  0.81106134856E+03  0.00000000000E+00 0.  1.
         -2   -1    0    0    0  501 -0.00000000000E+00 -0.00000000000E+00 -0.23028563847E+02  0.23028563847E+02  0.00000000000E+00 0.  1.
         35    2    1    2    0    0  0.00000000000E+00  0.00000000000E+00  0.78803278471E+03  0.83408991241E+03  0.27333187190E+03 0.  0.
         25    1    3    3    0    0  0.64446952084E+02  0.62292394448E+01  0.36582201585E+03  0.39040742864E+03  0.12000000000E+03 0.  0.
         25    1    3    3    0    0 -0.64446952084E+02 -0.62292394448E+01  0.42221076887E+03  0.44368248377E+03  0.12000000000E+03 0.  0.
<mgrwt>
<rscale>  0 0.27333187E+03</rscale>
<asrwt>0</asrwt>
<pdfrwt beam="1">  1        2 0.12477865E+00 0.27333187E+03</pdfrwt>
<pdfrwt beam="2">  1       -2 0.35428566E-02 0.27333187E+03</pdfrwt>
<totfact> 0.11460918E+04</totfact>
</mgrwt>
</event>
<event>
 5    1  0.1111501E+001  0.2753320E+03  0.7818608E-02  0.1098266E+00
         -4   -1    0    0    0  501 -0.00000000000E+00  0.00000000000E+00  0.56131923589E+03  0.56131923589E+03  0.00000000000E+00 0.  1.
          4   -1    0    0  501    0  0.00000000000E+00 -0.00000000000E+00 -0.33763183589E+02  0.33763183589E+02  0.00000000000E+00 0.  1.
         35    2    1    2    0    0  0.00000000000E+00  0.00000000000E+00  0.52755605230E+03  0.59508241948E+03  0.27533197717E+03 0.  0.
         25    1    3    3    0    0  0.57319566573E+02 -0.35494436815E+02  0.25825218625E+03  0.29264240885E+03  0.12000000000E+03 0.  0.
         25    1    3    3    0    0 -0.57319566573E+02  0.35494436815E+02  0.26930386605E+03  0.30244001063E+03  0.12000000000E+03 0.  0.
<mgrwt>
<rscale>  0 0.27533198E+03</rscale>
<asrwt>0</asrwt>
<pdfrwt beam="1">  1        4 0.51943363E-02 0.27533198E+03</pdfrwt>
<pdfrwt beam="2">  1       -4 0.86356799E-01 0.27533198E+03</pdfrwt>
<totfact> 0.50310563E+02</totfact>
</mgrwt>
</event>
<event>
 5    1  0.1111501E+001  0.2748834E+03  0.7818608E-02  0.1098517E+00
         -1   -1    0    0    0  501 -0.00000000000E+00  0.00000000000E+00  0.46819601812E+02  0.46819601812E+02  0.00000000000E+00 0.  1.
          1   -1    0    0  501    0  0.00000000000E+00 -0.00000000000E+00 -0.40346814380E+03  0.40346814380E+03  0.00000000000E+00 0.  1.
         35    2    1    2    0    0  0.00000000000E+00  0.00000000000E+00 -0.35664854198E+03  0.45028774561E+03  0.27488337772E+03 0.  0.
         25    1    3    3    0    0 -0.43066675099E+02  0.32917884174E+02 -0.24285587039E+03  0.27625585856E+03  0.12000000000E+03 0.  0.
         25    1    3    3    0    0  0.43066675099E+02 -0.32917884174E+02 -0.11379267159E+03  0.17403188705E+03  0.12000000000E+03 0.  0.
<mgrwt>
<rscale>  0 0.27488338E+03</rscale>
<asrwt>0</asrwt>
<pdfrwt beam="1">  1        1 0.62072025E-01 0.27488338E+03</pdfrwt>
<pdfrwt beam="2">  1       -1 0.72030154E-02 0.27488338E+03</pdfrwt>
<totfact> 0.60249013E+03</totfact>
</mgrwt>
</event>
<event>
 5    1  0.1111501E+001  0.2742098E+03  0.7818608E-02  0.1098894E+00
         -1   -1    0    0    0  501 -0.00000000000E+00  0.00000000000E+00  0.25948312862E+03  0.25948312862E+03  0.00000000000E+00 0. -1.
          1   -1    0    0  501    0  0.00000000000E+00 -0.00000000000E+00 -0.72443063161E+02  0.72443063161E+02  0.00000000000E+00 0. -1.
         35    2    1    2    0    0  0.00000000000E+00  0.00000000000E+00  0.18704006546E+03  0.33192619178E+03  0.27420979323E+03 0.  0.
         25    1    3    3    0    0  0.42527406047E+02 -0.31090838534E+01  0.15499903827E+03  0.20060645187E+03  0.12000000000E+03 0.  0.
         25    1    3    3    0    0 -0.42527406047E+02  0.31090838534E+01  0.32041027195E+02  0.13131973991E+03  0.12000000000E+03 0.  0.
<mgrwt>
<rscale>  0 0.27420979E+03</rscale>
<asrwt>0</asrwt>
<pdfrwt beam="1">  1        1 0.11145087E-01 0.27420979E+03</pdfrwt>
<pdfrwt beam="2">  1       -1 0.39920481E-01 0.27420979E+03</pdfrwt>
<totfact> 0.34175051E+03</totfact>
</mgrwt>
</event>
<event>
 5    1  0.1111501E+001  0.2744977E+03  0.7818608E-02  0.1098733E+00
          2   -1    0    0  501    0  0.00000000000E+00  0.00000000000E+00  0.12190439676E+04  0.12190439676E+04  0.00000000000E+00 0.  1.
         -2   -1    0    0    0  501 -0.00000000000E+00 -0.00000000000E+00 -0.15452470318E+02  0.15452470318E+02  0.00000000000E+00 0.  1.
         35    2    1    2    0    0  0.00000000000E+00  0.00000000000E+00  0.12035914972E+04  0.12344964379E+04  0.27449765555E+03 0.  0.
         25    1    3    3    0    0  0.16450304153E+02 -0.58582808914E+02  0.47989647615E+03  0.49840062784E+03  0.12000000000E+03 0.  0.
         25    1    3    3    0    0 -0.16450304153E+02  0.58582808914E+02  0.72369502109E+03  0.73609581003E+03  0.12000000000E+03 0.  0.
<mgrwt>
<rscale>  0 0.27449766E+03</rscale>
<asrwt>0</asrwt>
<pdfrwt beam="1">  1        2 0.18754515E+00 0.27449766E+03</pdfrwt>
<pdfrwt beam="2">  1       -2 0.23773041E-02 0.27449766E+03</pdfrwt>
<totfact> 0.11654208E+04</totfact>
</mgrwt>
</event>
<event>
 5    1  0.1111501E+001  0.2763224E+03  0.7818608E-02  0.1097715E+00
         -2   -1    0    0    0  501 -0.00000000000E+00  0.00000000000E+00  0.68741739723E+02  0.68741739723E+02  0.00000000000E+00 0.  1.
          2   -1    0    0  501    0  0.00000000000E+00 -0.00000000000E+00 -0.27768456019E+03  0.27768456019E+03  0.00000000000E+00 0.  1.
         35    2    1    2    0    0  0.00000000000E+00  0.00000000000E+00 -0.20894282047E+03  0.34642629992E+03  0.27632241865E+03 0.  0.
         25    1    3    3    0    0 -0.38550833550E+02 -0.15056347497E+02 -0.17286042434E+03  0.21446115422E+03  0.12000000000E+03 0.  0.
         25    1    3    3    0    0  0.38550833550E+02  0.15056347497E+02 -0.36082396127E+02  0.13196514569E+03  0.12000000000E+03 0.  0.
<mgrwt>
<rscale>  0 0.27632242E+03</rscale>
<asrwt>0</asrwt>
<pdfrwt beam="1">  1        2 0.42720702E-01 0.27632242E+03</pdfrwt>
<pdfrwt beam="2">  1       -2 0.10575652E-01 0.27632242E+03</pdfrwt>
<totfact> 0.71617344E+03</totfact>
</mgrwt>
</event>
<event>
 5    1  0.1111501E+001  0.2744732E+03  0.7818608E-02  0.1098746E+00
          2   -1    0    0  501    0  0.00000000000E+00  0.00000000000E+00  0.67078127854E+02  0.67078127854E+02  0.00000000000E+00 0. -1.
         -2   -1    0    0    0  501 -0.00000000000E+00 -0.00000000000E+00 -0.28077543731E+03  0.28077543731E+03  0.00000000000E+00 0. -1.
         35    2    1    2    0    0  0.00000000000E+00  0.00000000000E+00 -0.21369730946E+03  0.34785356517E+03  0.27447324593E+03 0.  0.
         25    1    3    3    0    0  0.56560407800E+02 -0.34444415612E+02 -0.11566499905E+03  0.17934293826E+03  0.12000000000E+03 0.  0.
         25    1    3    3    0    0 -0.56560407800E+02  0.34444415612E+02 -0.98032310405E+02  0.16851062691E+03  0.12000000000E+03 0.  0.
<mgrwt>
<rscale>  0 0.27447325E+03</rscale>
<asrwt>0</asrwt>
<pdfrwt beam="1">  1        2 0.10319712E-01 0.27447325E+03</pdfrwt>
<pdfrwt beam="2">  1       -2 0.43196221E-01 0.27447325E+03</pdfrwt>
<totfact> 0.31483870E+03</totfact>
</mgrwt>
</event>
<event>
 5    1  0.1111501E+001  0.2747023E+03  0.7818608E-02  0.1098618E+00
          2   -1    0    0  501    0  0.00000000000E+00  0.00000000000E+00  0.63162668045E+03  0.63162668045E+03  0.00000000000E+00 0. -1.
         -2   -1    0    0    0  501 -0.00000000000E+00 -0.00000000000E+00 -0.29867865317E+02  0.29867865317E+02  0.00000000000E+00 0. -1.
         35    2    1    2    0    0  0.00000000000E+00  0.00000000000E+00  0.60175881514E+03  0.66149454577E+03  0.27470231613E+03 0.  0.
         25    1    3    3    0    0 -0.88494860223E+01  0.35608791303E+02  0.16639420473E+03  0.20840664766E+03  0.12000000000E+03 0.  0.
         25    1    3    3    0    0  0.88494860223E+01 -0.35608791303E+02  0.43536461040E+03  0.45308789811E+03  0.12000000000E+03 0.  0.
<mgrwt>
<rscale>  0 0.27470232E+03</rscale>
<asrwt>0</asrwt>
<pdfrwt beam="1">  1        2 0.97173326E-01 0.27470232E+03</pdfrwt>
<pdfrwt beam="2">  1       -2 0.45950567E-02 0.27470232E+03</pdfrwt>
<totfact> 0.10526752E+04</totfact>
</mgrwt>
</event>
<event>
 5    1  0.1111501E+001  0.2750243E+03  0.7818608E-02  0.1098438E+00
         -3   -1    0    0    0  501 -0.00000000000E+00  0.00000000000E+00  0.56994225009E+03  0.56994225009E+03  0.00000000000E+00 0.  1.
          3   -1    0    0  501    0  0.00000000000E+00 -0.00000000000E+00 -0.33178074351E+02  0.33178074351E+02  0.00000000000E+00 0.  1.
         35    2    1    2    0    0  0.00000000000E+00  0.00000000000E+00  0.53676417574E+03  0.60312032444E+03  0.27502426329E+03 0.  0.
         25    1    3    3    0    0 -0.47059635931E+02 -0.16725378417E+02  0.36682766395E+03  0.38917461718E+03  0.12000000000E+03 0.  0.
         25    1    3    3    0    0  0.47059635931E+02  0.16725378417E+02  0.16993651179E+03  0.21394570726E+03  0.12000000000E+03 0.  0.
<mgrwt>
<rscale>  0 0.27502426E+03</rscale>
<asrwt>0</asrwt>
<pdfrwt beam="1">  1        3 0.51043196E-02 0.27502426E+03</pdfrwt>
<pdfrwt beam="2">  1       -3 0.87683416E-01 0.27502426E+03</pdfrwt>
<totfact> 0.68193169E+02</totfact>
</mgrwt>
</event>
<event>
 5    1  0.1111501E+001  0.2745004E+03  0.7818608E-02  0.1098731E+00
         -1   -1    0    0    0  501 -0.00000000000E+00  0.00000000000E+00  0.25944270751E+02  0.25944270751E+02  0.00000000000E+00 0.  1.
          1   -1    0    0  501    0  0.00000000000E+00 -0.00000000000E+00 -0.72608011278E+03  0.72608011278E+03  0.00000000000E+00 0.  1.
         35    2    1    2    0    0  0.00000000000E+00  0.00000000000E+00 -0.70013584203E+03  0.75202438353E+03  0.27450041190E+03 0.  0.
         25    1    3    3    0    0 -0.10519434704E+02  0.61919696871E+02 -0.28924413210E+03  0.31938515201E+03  0.12000000000E+03 0.  0.
         25    1    3    3    0    0  0.10519434704E+02 -0.61919696871E+02 -0.41089170993E+03  0.43263923153E+03  0.12000000000E+03 0.  0.
<mgrwt>
<rscale>  0 0.27450041E+03</rscale>
<asrwt>0</asrwt>
<pdfrwt beam="1">  1        1 0.11170463E+00 0.27450041E+03</pdfrwt>
<pdfrwt beam="2">  1       -1 0.39914265E-02 0.27450041E+03</pdfrwt>
<totfact> 0.65708248E+03</totfact>
</mgrwt>
</event>
<event>
 5    1  0.1111501E+001  0.2760555E+03  0.7818608E-02  0.1097863E+00
         -1   -1    0    0    0  501 -0.00000000000E+00  0.00000000000E+00  0.11837915739E+04  0.11837915739E+04  0.00000000000E+00 0. -1.
          1   -1    0    0  501    0  0.00000000000E+00 -0.00000000000E+00 -0.16093763155E+02  0.16093763155E+02  0.00000000000E+00 0. -1.
         35    2    1    2    0    0  0.00000000000E+00  0.00000000000E+00  0.11676978107E+04  0.11998853370E+04  0.27605551047E+03 0.  0.
         25    1    3    3    0    0  0.56409057621E+02  0.28187598738E+02  0.47091097350E+03  0.49003435336E+03  0.12000000000E+03 0.  0.
         25    1    3    3    0    0 -0.56409057621E+02 -0.28187598738E+02  0.69678683722E+03  0.70985098368E+03  0.12000000000E+03 0.  0.
<mgrwt>
<rscale>  0 0.27605551E+03</rscale>
<asrwt>0</asrwt>
<pdfrwt beam="1">  1        1 0.24759645E-02 0.27605551E+03</pdfrwt>
<pdfrwt beam="2">  1       -1 0.18212171E+00 0.27605551E+03</pdfrwt>
<totfact> 0.98814288E+02</totfact>
</mgrwt>
</event>
<event>
 5    1  0.1111501E+001  0.2748989E+03  0.7818608E-02  0.1098508E+00
         -2   -1    0    0    0  501 -0.00000000000E+00  0.00000000000E+00  0.67392380783E+02  0.67392380783E+02  0.00000000000E+00 0. -1.
          2   -1    0    0  501    0  0.00000000000E+00 -0.00000000000E+00 -0.28033370778E+03  0.28033370778E+03  0.00000000000E+00 0. -1.
         35    2    1    2    0    0  0.00000000000E+00  0.00000000000E+00 -0.21294132700E+03  0.34772608856E+03  0.27489893402E+03 0.  0.
         25    1    3    3    0    0 -0.35216960240E+02  0.80395756599E+01 -0.35055830501E+02  0.13012985944E+03  0.12000000000E+03 0.  0.
         25    1    3    3    0    0  0.35216960240E+02 -0.80395756599E+01 -0.17788549650E+03  0.21759622912E+03  0.12000000000E+03 0.  0.
<mgrwt>
<rscale>  0 0.27489893E+03</rscale>
<asrwt>0</asrwt>
<pdfrwt beam="1">  1        2 0.43128263E-01 0.27489893E+03</pdfrwt>
<pdfrwt beam="2">  1       -2 0.10368059E-01 0.27489893E+03</pdfrwt>
<totfact> 0.73153312E+03</totfact>
</mgrwt>
</event>
<event>
 5    1  0.1111501E+001  0.2755984E+03  0.7818608E-02  0.1098118E+00
         -4   -1    0    0    0  501 -0.00000000000E+00  0.00000000000E+00  0.22240495006E+02  0.22240495006E+02  0.00000000000E+00 0. -1.
          4   -1    0    0  501    0  0.00000000000E+00 -0.00000000000E+00 -0.85378601086E+03  0.85378601086E+03  0.00000000000E+00 0. -1.
         35    2    1    2    0    0  0.00000000000E+00  0.00000000000E+00 -0.83154551586E+03  0.87602650587E+03  0.27559842896E+03 0.  0.
         25    1    3    3    0    0 -0.21858767162E+02  0.45373537496E+02 -0.55976381719E+03  0.57469304384E+03  0.12000000000E+03 0.  0.
         25    1    3    3    0    0  0.21858767162E+02 -0.45373537496E+02 -0.27178169867E+03  0.30133346203E+03  0.12000000000E+03 0.  0.
<mgrwt>
<rscale>  0 0.27559843E+03</rscale>
<asrwt>0</asrwt>
<pdfrwt beam="1">  1        4 0.13135166E+00 0.27559843E+03</pdfrwt>
<pdfrwt beam="2">  1       -4 0.34216156E-02 0.27559843E+03</pdfrwt>
<totfact> 0.36337513E+02</totfact>
</mgrwt>
</event>
<event>
 5    1  0.1111501E+001  0.2730735E+03  0.7818608E-02  0.1099533E+00
          2   -1    0    0  501    0  0.00000000000E+00  0.00000000000E+00  0.71614402738E+03  0.71614402738E+03  0.00000000000E+00 0.  1.
         -2   -1    0    0    0  501 -0.00000000000E+00 -0.00000000000E+00 -0.26031470863E+02  0.26031470863E+02  0.00000000000E+00 0.  1.
         35    2    1    2    0    0  0.00000000000E+00  0.00000000000E+00  0.69011255652E+03  0.74217549824E+03  0.27307348742E+03 0.  0.
         25    1    3    3    0    0 -0.32511573982E+01  0.54840016915E+02  0.24995894841E+03  0.28266141118E+03  0.12000000000E+03 0.  0.
         25    1    3    3    0    0  0.32511573982E+01 -0.54840016915E+02  0.44015360811E+03  0.45951408707E+03  0.12000000000E+03 0.  0.
<mgrwt>
<rscale>  0 0.27307349E+03</rscale>
<asrwt>0</asrwt>
<pdfrwt beam="1">  1        2 0.11017599E+00 0.27307349E+03</pdfrwt>
<pdfrwt beam="2">  1       -2 0.40048422E-02 0.27307349E+03</pdfrwt>
<totfact> 0.11140214E+04</totfact>
</mgrwt>
</event>
<event>
 5    1  0.1111501E+001  0.2746258E+03  0.7818608E-02  0.1098661E+00
         -2   -1    0    0    0  501 -0.00000000000E+00  0.00000000000E+00  0.85596060863E+03  0.85596060863E+03  0.00000000000E+00 0.  1.
          2   -1    0    0  501    0  0.00000000000E+00 -0.00000000000E+00 -0.22027691175E+02  0.22027691175E+02  0.00000000000E+00 0.  1.
         35    2    1    2    0    0  0.00000000000E+00  0.00000000000E+00  0.83393291745E+03  0.87798829980E+03  0.27462582504E+03 0.  0.
         25    1    3    3    0    0  0.23199042074E+02  0.60814936457E+02  0.36974290134E+03  0.39414015926E+03  0.12000000000E+03 0.  0.
         25    1    3    3    0    0 -0.23199042074E+02 -0.60814936457E+02  0.46419001611E+03  0.48384814054E+03  0.12000000000E+03 0.  0.
<mgrwt>
<rscale>  0 0.27462583E+03</rscale>
<asrwt>0</asrwt>
<pdfrwt beam="1">  1        2 0.33888762E-02 0.27462583E+03</pdfrwt>
<pdfrwt beam="2">  1       -2 0.13168622E+00 0.27462583E+03</pdfrwt>
<totfact> 0.11714861E+03</totfact>
</mgrwt>
</event>
<event>
 5    1  0.1111501E+001  0.2751125E+03  0.7818608E-02  0.1098389E+00
         -2   -1    0    0    0  501 -0.00000000000E+00  0.00000000000E+00  0.14128868467E+02  0.14128868467E+02  0.00000000000E+00 0.  1.
          2   -1    0    0  501    0  0.00000000000E+00 -0.00000000000E+00 -0.13392241079E+04  0.13392241079E+04  0.00000000000E+00 0.  1.
         35    2    1    2    0    0  0.00000000000E+00  0.00000000000E+00 -0.13250952394E+04  0.13533529764E+04  0.27511249531E+03 0.  0.
         25    1    3    3    0    0 -0.91484456709E+01 -0.46396458052E+02 -0.89771738595E+03  0.90693595717E+03  0.12000000000E+03 0.  0.
         25    1    3    3    0    0  0.91484456709E+01  0.46396458052E+02 -0.42737785348E+03  0.44641701919E+03  0.12000000000E+03 0.  0.
<mgrwt>
<rscale>  0 0.27511250E+03</rscale>
<asrwt>0</asrwt>
<pdfrwt beam="1">  1        2 0.20603454E+00 0.27511250E+03</pdfrwt>
<pdfrwt beam="2">  1       -2 0.21736714E-02 0.27511250E+03</pdfrwt>
<totfact> 0.11402673E+04</totfact>
</mgrwt>
</event>
<event>
 5    1  0.1111501E+001  0.2760652E+03  0.7818608E-02  0.1097858E+00
         -1   -1    0    0    0  501 -0.00000000000E+00  0.00000000000E+00  0.29475253618E+02  0.29475253618E+02  0.00000000000E+00 0. -1.
          1   -1    0    0  501    0  0.00000000000E+00 -0.00000000000E+00 -0.64640645768E+03  0.64640645768E+03  0.00000000000E+00 0. -1.
         35    2    1    2    0    0  0.00000000000E+00  0.00000000000E+00 -0.61693120407E+03  0.67588171130E+03  0.27606516825E+03 0.  0.
         25    1    3    3    0    0  0.42154651933E+01 -0.23073565110E+01 -0.47505405592E+03  0.48999943886E+03  0.12000000000E+03 0.  0.
         25    1    3    3    0    0 -0.42154651933E+01  0.23073565110E+01 -0.14187714815E+03  0.18588227244E+03  0.12000000000E+03 0.  0.
<mgrwt>
<rscale>  0 0.27606517E+03</rscale>
<asrwt>0</asrwt>
<pdfrwt beam="1">  1        1 0.99447146E-01 0.27606517E+03</pdfrwt>
<pdfrwt beam="2">  1       -1 0.45346545E-02 0.27606517E+03</pdfrwt>
<totfact> 0.64307222E+03</totfact>
</mgrwt>
</event>
<event>
 5    1  0.1111501E+001  0.2741028E+03  0.7818608E-02  0.1098954E+00
         -1   -1    0    0    0  501 -0.00000000000E+00  0.00000000000E+00  0.36775874172E+02  0.36775874172E+02  0.00000000000E+00 0.  1.
          1   -1    0    0  501    0  0.00000000000E+00 -0.00000000000E+00 -0.51074477755E+03  0.51074477755E+03  0.00000000000E+00 0.  1.
         35    2    1    2    0    0  0.00000000000E+00  0.00000000000E+00 -0.47396890338E+03  0.54752065172E+03  0.27410279585E+03 0.  0.
         25    1    3    3    0    0  0.50752519396E+02 -0.27863968269E+02 -0.17285045587E+03  0.21824183616E+03  0.12000000000E+03 0.  0.
         25    1    3    3    0    0 -0.50752519396E+02  0.27863968269E+02 -0.30111844750E+03  0.32927881556E+03  0.12000000000E+03 0.  0.
<mgrwt>
<rscale>  0 0.27410280E+03</rscale>
<asrwt>0</asrwt>
<pdfrwt beam="1">  1        1 0.78576120E-01 0.27410280E+03</pdfrwt>
<pdfrwt beam="2">  1       -1 0.56578267E-02 0.27410280E+03</pdfrwt>
<totfact> 0.63781155E+03</totfact>
</mgrwt>
</event>
<event>
 5    1  0.1111501E+001  0.2748474E+03  0.7818608E-02  0.1098537E+00
          1   -1    0    0  501    0  0.00000000000E+00  0.00000000000E+00  0.95552043759E+03  0.95552043759E+03  0.00000000000E+00 0.  1.
         -1   -1    0    0    0  501 -0.00000000000E+00 -0.00000000000E+00 -0.19764390571E+02  0.19764390571E+02  0.00000000000E+00 0.  1.
         35    2    1    2    0    0  0.00000000000E+00  0.00000000000E+00  0.93575604702E+03  0.97528482816E+03  0.27484744224E+03 0.  0.
         25    1    3    3    0    0  0.31046316739E+02 -0.48582641211E+02  0.58879314730E+03  0.60365678752E+03  0.12000000000E+03 0.  0.
         25    1    3    3    0    0 -0.31046316739E+02  0.48582641211E+02  0.34696289972E+03  0.37162804065E+03  0.12000000000E+03 0.  0.
<mgrwt>
<rscale>  0 0.27484744E+03</rscale>
<asrwt>0</asrwt>
<pdfrwt beam="1">  1        1 0.14700311E+00 0.27484744E+03</pdfrwt>
<pdfrwt beam="2">  1       -1 0.30406762E-02 0.27484744E+03</pdfrwt>
<totfact> 0.63857602E+03</totfact>
</mgrwt>
</event>
<event>
 5    1  0.1111501E+001  0.2748532E+03  0.7818608E-02  0.1098534E+00
         -2   -1    0    0    0  501 -0.00000000000E+00  0.00000000000E+00  0.28192607660E+03  0.28192607660E+03  0.00000000000E+00 0. -1.
          2   -1    0    0  501    0  0.00000000000E+00 -0.00000000000E+00 -0.66989422463E+02  0.66989422463E+02  0.00000000000E+00 0. -1.
         35    2    1    2    0    0  0.00000000000E+00  0.00000000000E+00  0.21493665414E+03  0.34891549906E+03  0.27485316115E+03 0.  0.
         25    1    3    3    0    0 -0.57031197999E+02 -0.31547955507E+02  0.87874403807E+02  0.16238762849E+03  0.12000000000E+03 0.  0.
         25    1    3    3    0    0  0.57031197999E+02  0.31547955507E+02  0.12706225033E+03  0.18652787057E+03  0.12000000000E+03 0.  0.
<mgrwt>
<rscale>  0 0.27485316E+03</rscale>
<asrwt>0</asrwt>
<pdfrwt beam="1">  1        2 0.10306065E-01 0.27485316E+03</pdfrwt>
<pdfrwt beam="2">  1       -2 0.43373242E-01 0.27485316E+03</pdfrwt>
<totfact> 0.31287748E+03</totfact>
</mgrwt>
</event>
<event>
 5    1  0.1111501E+001  0.2746860E+03  0.7818608E-02  0.1098627E+00
          2   -1    0    0  501    0  0.00000000000E+00  0.00000000000E+00  0.46981920210E+02  0.46981920210E+02  0.00000000000E+00 0. -1.
         -2   -1    0    0    0  501 -0.00000000000E+00 -0.00000000000E+00 -0.40149698195E+03  0.40149698195E+03  0.00000000000E+00 0. -1.
         35    2    1    2    0    0  0.00000000000E+00  0.00000000000E+00 -0.35451506174E+03  0.44847890216E+03  0.27468599652E+03 0.  0.
         25    1    3    3    0    0 -0.86984488384E+01  0.10563461685E+01 -0.69125174240E+02  0.13876263399E+03  0.12000000000E+03 0.  0.
         25    1    3    3    0    0  0.86984488384E+01 -0.10563461685E+01 -0.28538988750E+03  0.30971626817E+03  0.12000000000E+03 0.  0.
<mgrwt>
<rscale>  0 0.27468600E+03</rscale>
<asrwt>0</asrwt>
<pdfrwt beam="1">  1        2 0.72279877E-02 0.27468600E+03</pdfrwt>
<pdfrwt beam="2">  1       -2 0.61768767E-01 0.27468600E+03</pdfrwt>
<totfact> 0.24048707E+03</totfact>
</mgrwt>
</event>
<event>
 5    1  0.1111501E+001  0.2716059E+03  0.7818608E-02  0.1100364E+00
         -1   -1    0    0    0  501 -0.00000000000E+00  0.00000000000E+00  0.23343308027E+02  0.23343308027E+02  0.00000000000E+00 0.  1.
          1   -1    0    0  501    0  0.00000000000E+00 -0.00000000000E+00 -0.79005258445E+03  0.79005258445E+03  0.00000000000E+00 0.  1.
         35    2    1    2    0    0  0.00000000000E+00  0.00000000000E+00 -0.76670927643E+03  0.81339589248E+03  0.27160589711E+03 0.  0.
         25    1    3    3    0    0 -0.42892202630E+02 -0.46594940064E+02 -0.40019239776E+03  0.42256926617E+03  0.12000000000E+03 0.  0.
         25    1    3    3    0    0  0.42892202630E+02  0.46594940064E+02 -0.36651687867E+03  0.39082662631E+03  0.12000000000E+03 0.  0.
<mgrwt>
<rscale>  0 0.27160590E+03</rscale>
<asrwt>0</asrwt>
<pdfrwt beam="1">  1        1 0.12154657E+00 0.27160590E+03</pdfrwt>
<pdfrwt beam="2">  1       -1 0.35912777E-02 0.27160590E+03</pdfrwt>
<totfact> 0.67677932E+03</totfact>
</mgrwt>
</event>
<event>
 5    1  0.1111501E+001  0.2603333E+03  0.7818608E-02  0.1106943E+00
          2   -1    0    0  501    0  0.00000000000E+00  0.00000000000E+00  0.27728743747E+04  0.27728743747E+04  0.00000000000E+00 0. -1.
         -2   -1    0    0    0  501 -0.00000000000E+00 -0.00000000000E+00 -0.61103924269E+01  0.61103924269E+01  0.00000000000E+00 0. -1.
         35    2    1    2    0    0  0.00000000000E+00  0.00000000000E+00  0.27667639823E+04  0.27789847671E+04  0.26033325243E+03 0.  0.
         25    1    3    3    0    0 -0.23564302899E+02  0.31130656897E+02  0.10426331992E+04  0.10502420588E+04  0.12000000000E+03 0.  0.
         25    1    3    3    0    0  0.23564302899E+02 -0.31130656897E+02  0.17241307831E+04  0.17287427083E+04  0.12000000000E+03 0.  0.
<mgrwt>
<rscale>  0 0.26033325E+03</rscale>
<asrwt>0</asrwt>
<pdfrwt beam="1">  1        2 0.42659505E+00 0.26033325E+03</pdfrwt>
<pdfrwt beam="2">  1       -2 0.94006259E-03 0.26033325E+03</pdfrwt>
<totfact> 0.65881616E+03</totfact>
</mgrwt>
</event>
<event>
 5    1  0.1111501E+001  0.2720884E+03  0.7818608E-02  0.1100090E+00
          2   -1    0    0  501    0  0.00000000000E+00  0.00000000000E+00  0.83542335479E+03  0.83542335479E+03  0.00000000000E+00 0.  1.
         -2   -1    0    0    0  501 -0.00000000000E+00 -0.00000000000E+00 -0.22154070233E+02  0.22154070233E+02  0.00000000000E+00 0.  1.
         35    2    1    2    0    0  0.00000000000E+00  0.00000000000E+00  0.81326928456E+03  0.85757742503E+03  0.27208842443E+03 0.  0.
         25    1    3    3    0    0  0.30060485985E+02  0.27936197985E+02  0.56181127739E+03  0.57594789293E+03  0.12000000000E+03 0.  0.
         25    1    3    3    0    0 -0.30060485985E+02 -0.27936197985E+02  0.25145800718E+03  0.28162953210E+03  0.12000000000E+03 0.  0.
<mgrwt>
<rscale>  0 0.27208842E+03</rscale>
<asrwt>0</asrwt>
<pdfrwt beam="1">  1        2 0.12852665E+00 0.27208842E+03</pdfrwt>
<pdfrwt beam="2">  1       -2 0.34083191E-02 0.27208842E+03</pdfrwt>
<totfact> 0.11688317E+04</totfact>
</mgrwt>
</event>
<event>
 5    1  0.1111501E+001  0.2757738E+03  0.7818608E-02  0.1098020E+00
          1   -1    0    0  501    0  0.00000000000E+00  0.00000000000E+00  0.11153801456E+04  0.11153801456E+04  0.00000000000E+00 0.  1.
         -1   -1    0    0    0  501 -0.00000000000E+00 -0.00000000000E+00 -0.17046027771E+02  0.17046027771E+02  0.00000000000E+00 0.  1.
         35    2    1    2    0    0  0.00000000000E+00  0.00000000000E+00  0.10983341178E+04  0.11324261734E+04  0.27577382716E+03 0.  0.
         25    1    3    3    0    0 -0.10447489462E+02  0.45157341907E+02  0.75302057774E+03  0.76392952951E+03  0.12000000000E+03 0.  0.
         25    1    3    3    0    0  0.10447489462E+02 -0.45157341907E+02  0.34531354009E+03  0.36849664386E+03  0.12000000000E+03 0.  0.
<mgrwt>
<rscale>  0 0.27577383E+03</rscale>
<asrwt>0</asrwt>
<pdfrwt beam="1">  1        1 0.17159689E+00 0.27577383E+03</pdfrwt>
<pdfrwt beam="2">  1       -1 0.26224667E-02 0.27577383E+03</pdfrwt>
<totfact> 0.60509246E+03</totfact>
</mgrwt>
</event>
<event>
 5    1  0.1111501E+001  0.2753548E+03  0.7818608E-02  0.1098253E+00
          1   -1    0    0  501    0  0.00000000000E+00  0.00000000000E+00  0.11845804533E+03  0.11845804533E+03  0.00000000000E+00 0.  1.
         -1   -1    0    0    0  501 -0.00000000000E+00 -0.00000000000E+00 -0.16001496770E+03  0.16001496770E+03  0.00000000000E+00 0.  1.
         35    2    1    2    0    0  0.00000000000E+00  0.00000000000E+00 -0.41556922369E+02  0.27847301303E+03  0.27535475516E+03 0.  0.
         25    1    3    3    0    0 -0.89937324398E+01 -0.66835335965E+02 -0.23494190443E+02  0.13964177864E+03  0.12000000000E+03 0.  0.
         25    1    3    3    0    0  0.89937324398E+01  0.66835335965E+02 -0.18062731926E+02  0.13883123439E+03  0.12000000000E+03 0.  0.
<mgrwt>
<rscale>  0 0.27535476E+03</rscale>
<asrwt>0</asrwt>
<pdfrwt beam="1">  1        1 0.18224315E-01 0.27535476E+03</pdfrwt>
<pdfrwt beam="2">  1       -1 0.24617687E-01 0.27535476E+03</pdfrwt>
<totfact> 0.40955185E+03</totfact>
</mgrwt>
</event>
<event>
 5    1  0.1111501E+001  0.2750376E+03  0.7818608E-02  0.1098431E+00
         -1   -1    0    0    0  501 -0.00000000000E+00  0.00000000000E+00  0.14742927438E+02  0.14742927438E+02  0.00000000000E+00 0. -1.
          1   -1    0    0  501    0  0.00000000000E+00 -0.00000000000E+00 -0.12827455306E+04  0.12827455306E+04  0.00000000000E+00 0. -1.
         35    2    1    2    0    0  0.00000000000E+00  0.00000000000E+00 -0.12680026032E+04  0.12974884581E+04  0.27503762855E+03 0.  0.
         25    1    3    3    0    0 -0.13006105217E+02  0.56676726934E+02 -0.79258309526E+03  0.80372219892E+03  0.12000000000E+03 0.  0.
         25    1    3    3    0    0  0.13006105217E+02 -0.56676726934E+02 -0.47541950795E+03  0.49376625916E+03  0.12000000000E+03 0.  0.
<mgrwt>
<rscale>  0 0.27503763E+03</rscale>
<asrwt>0</asrwt>
<pdfrwt beam="1">  1        1 0.19734551E+00 0.27503763E+03</pdfrwt>
<pdfrwt beam="2">  1       -1 0.22681422E-02 0.27503763E+03</pdfrwt>
<totfact> 0.57164328E+03</totfact>
</mgrwt>
</event>
<event>
 5    1  0.1111501E+001  0.2753870E+03  0.7818608E-02  0.1098235E+00
         -3   -1    0    0    0  501 -0.00000000000E+00  0.00000000000E+00  0.89291138656E+03  0.89291138656E+03  0.00000000000E+00 0.  1.
          3   -1    0    0  501    0  0.00000000000E+00 -0.00000000000E+00 -0.21233355510E+02  0.21233355510E+02  0.00000000000E+00 0.  1.
         35    2    1    2    0    0  0.00000000000E+00  0.00000000000E+00  0.87167803105E+03  0.91414474207E+03  0.27538703608E+03 0.  0.
         25    1    3    3    0    0  0.66575248100E+02  0.10846673573E+02  0.42555881300E+03  0.44726973664E+03  0.12000000000E+03 0.  0.
         25    1    3    3    0    0 -0.66575248100E+02 -0.10846673573E+02  0.44611921805E+03  0.46687500544E+03  0.12000000000E+03 0.  0.
<mgrwt>
<rscale>  0 0.27538704E+03</rscale>
<asrwt>0</asrwt>
<pdfrwt beam="1">  1        3 0.32666708E-02 0.27538704E+03</pdfrwt>
<pdfrwt beam="2">  1       -3 0.13737095E+00 0.27538704E+03</pdfrwt>
<totfact> 0.48191420E+02</totfact>
</mgrwt>
</event>
<event>
 5    1  0.1111501E+001  0.2763502E+03  0.7818608E-02  0.1097699E+00
          1   -1    0    0  501    0  0.00000000000E+00  0.00000000000E+00  0.95467300269E+02  0.95467300269E+02  0.00000000000E+00 0. -1.
         -1   -1    0    0    0  501 -0.00000000000E+00 -0.00000000000E+00 -0.19998848148E+03  0.19998848148E+03  0.00000000000E+00 0. -1.
         35    2    1    2    0    0  0.00000000000E+00  0.00000000000E+00 -0.10452118121E+03  0.29545578175E+03  0.27635021558E+03 0.  0.
         25    1    3    3    0    0 -0.37883768687E+02  0.26225729343E+02 -0.10645416990E+03  0.16689954793E+03  0.12000000000E+03 0.  0.
         25    1    3    3    0    0  0.37883768687E+02 -0.26225729343E+02  0.19329886879E+01  0.12855623382E+03  0.12000000000E+03 0.  0.
<mgrwt>
<rscale>  0 0.27635022E+03</rscale>
<asrwt>0</asrwt>
<pdfrwt beam="1">  1        1 0.14687277E-01 0.27635022E+03</pdfrwt>
<pdfrwt beam="2">  1       -1 0.30767459E-01 0.27635022E+03</pdfrwt>
<totfact> 0.37297164E+03</totfact>
</mgrwt>
</event>
<event>
 5    1  0.1111501E+001  0.2754132E+03  0.7818608E-02  0.1098221E+00
         -1   -1    0    0    0  501 -0.00000000000E+00  0.00000000000E+00  0.24936028460E+02  0.24936028460E+02  0.00000000000E+00 0.  1.
          1   -1    0    0  501    0  0.00000000000E+00 -0.00000000000E+00 -0.76047022097E+03  0.76047022097E+03  0.00000000000E+00 0.  1.
         35    2    1    2    0    0  0.00000000000E+00  0.00000000000E+00 -0.73553419251E+03  0.78540624943E+03  0.27541319556E+03 0.  0.
         25    1    3    3    0    0 -0.98631180615E+01 -0.63333839021E+02 -0.30696079416E+03  0.33575792681E+03  0.12000000000E+03 0.  0.
         25    1    3    3    0    0  0.98631180615E+01  0.63333839021E+02 -0.42857339834E+03  0.44964832261E+03  0.12000000000E+03 0.  0.
<mgrwt>
<rscale>  0 0.27541320E+03</rscale>
<asrwt>0</asrwt>
<pdfrwt beam="1">  1        1 0.11699543E+00 0.27541320E+03</pdfrwt>
<pdfrwt beam="2">  1       -1 0.38363118E-02 0.27541320E+03</pdfrwt>
<totfact> 0.65049923E+03</totfact>
</mgrwt>
</event>
<event>
 5    1  0.1111501E+001  0.2760752E+03  0.7818608E-02  0.1097852E+00
          1   -1    0    0  501    0  0.00000000000E+00  0.00000000000E+00  0.19362013350E+04  0.19362013350E+04  0.00000000000E+00 0.  1.
         -1   -1    0    0    0  501 -0.00000000000E+00 -0.00000000000E+00 -0.98411137387E+01  0.98411137387E+01  0.00000000000E+00 0.  1.
         35    2    1    2    0    0  0.00000000000E+00  0.00000000000E+00  0.19263602213E+04  0.19460424488E+04  0.27607518946E+03 0.  0.
         25    1    3    3    0    0  0.38921074554E+02 -0.53894005823E+02  0.10712302351E+04  0.10799785324E+04  0.12000000000E+03 0.  0.
         25    1    3    3    0    0 -0.38921074554E+02  0.53894005823E+02  0.85512998623E+03  0.86606391638E+03  0.12000000000E+03 0.  0.
<mgrwt>
<rscale>  0 0.27607519E+03</rscale>
<asrwt>0</asrwt>
<pdfrwt beam="1">  1        1 0.29787683E+00 0.27607519E+03</pdfrwt>
<pdfrwt beam="2">  1       -1 0.15140190E-02 0.27607519E+03</pdfrwt>
<totfact> 0.38216398E+03</totfact>
</mgrwt>
</event>
<event>
 5    1  0.1111501E+001  0.2753335E+03  0.7818608E-02  0.1098265E+00
         -2   -1    0    0    0  501 -0.00000000000E+00  0.00000000000E+00  0.17198990335E+02  0.17198990335E+02  0.00000000000E+00 0. -1.
          2   -1    0    0  501    0  0.00000000000E+00 -0.00000000000E+00 -0.11019325448E+04  0.11019325448E+04  0.00000000000E+00 0. -1.
         35    2    1    2    0    0  0.00000000000E+00  0.00000000000E+00 -0.10847335545E+04  0.11191315352E+04  0.27533345012E+03 0.  0.
         25    1    3    3    0    0 -0.47576007100E+02 -0.47813087708E+02 -0.53586413831E+03  0.55326299581E+03  0.12000000000E+03 0.  0.
         25    1    3    3    0    0  0.47576007100E+02  0.47813087708E+02 -0.54886941619E+03  0.56586853936E+03  0.12000000000E+03 0.  0.
<mgrwt>
<rscale>  0 0.27533345E+03</rscale>
<asrwt>0</asrwt>
<pdfrwt beam="1">  1        2 0.16952808E+00 0.27533345E+03</pdfrwt>
<pdfrwt beam="2">  1       -2 0.26459986E-02 0.27533345E+03</pdfrwt>
<totfact> 0.11616783E+04</totfact>
</mgrwt>
</event>
<event>
 5    1  0.1111501E+001  0.2743172E+03  0.7818608E-02  0.1098834E+00
          2   -1    0    0  501    0  0.00000000000E+00  0.00000000000E+00  0.40817796987E+03  0.40817796987E+03  0.00000000000E+00 0.  1.
         -2   -1    0    0    0  501 -0.00000000000E+00 -0.00000000000E+00 -0.46088914358E+02  0.46088914358E+02  0.00000000000E+00 0.  1.
         35    2    1    2    0    0  0.00000000000E+00  0.00000000000E+00  0.36208905551E+03  0.45426688423E+03  0.27431718500E+03 0.  0.
         25    1    3    3    0    0  0.29226208933E+02 -0.44813998259E+02  0.11584779374E+03  0.17516614126E+03  0.12000000000E+03 0.  0.
         25    1    3    3    0    0 -0.29226208933E+02  0.44813998259E+02  0.24624126177E+03  0.27910074297E+03  0.12000000000E+03 0.  0.
<mgrwt>
<rscale>  0 0.27431718E+03</rscale>
<asrwt>0</asrwt>
<pdfrwt beam="1">  1        2 0.62796608E-01 0.27431718E+03</pdfrwt>
<pdfrwt beam="2">  1       -2 0.70906025E-02 0.27431718E+03</pdfrwt>
<totfact> 0.88573481E+03</totfact>
</mgrwt>
</event>
<event>
 5    1  0.1111501E+001  0.2756462E+03  0.7818608E-02  0.1098091E+00
          2   -1    0    0  501    0  0.00000000000E+00  0.00000000000E+00  0.13870813129E+03  0.13870813129E+03  0.00000000000E+00 0.  1.
         -2   -1    0    0    0  501 -0.00000000000E+00 -0.00000000000E+00 -0.13694368824E+03  0.13694368824E+03  0.00000000000E+00 0.  1.
         35    2    1    2    0    0  0.00000000000E+00  0.00000000000E+00  0.17644430536E+01  0.27565181954E+03  0.27564617239E+03 0.  0.
         25    1    3    3    0    0  0.98835965163E+01  0.58972151985E+02  0.32817228720E+02  0.13803032526E+03  0.12000000000E+03 0.  0.
         25    1    3    3    0    0 -0.98835965163E+01 -0.58972151985E+02 -0.31052785666E+02  0.13762149428E+03  0.12000000000E+03 0.  0.
<mgrwt>
<rscale>  0 0.27564617E+03</rscale>
<asrwt>0</asrwt>
<pdfrwt beam="1">  1        2 0.21339713E-01 0.27564617E+03</pdfrwt>
<pdfrwt beam="2">  1       -2 0.21068260E-01 0.27564617E+03</pdfrwt>
<totfact> 0.49163610E+03</totfact>
</mgrwt>
</event>
<event>
 5    1  0.1111501E+001  0.2747513E+03  0.7818608E-02  0.1098591E+00
          2   -1    0    0  501    0  0.00000000000E+00  0.00000000000E+00  0.17048123620E+04  0.17048123620E+04  0.00000000000E+00 0.  1.
         -2   -1    0    0    0  501 -0.00000000000E+00 -0.00000000000E+00 -0.11069880361E+02  0.11069880361E+02  0.00000000000E+00 0.  1.
         35    2    1    2    0    0  0.00000000000E+00  0.00000000000E+00  0.16937424817E+04  0.17158822424E+04  0.27475129762E+03 0.  0.
         25    1    3    3    0    0  0.12142559261E+02 -0.60808930860E+02  0.10032390072E+04  0.10122912986E+04  0.12000000000E+03 0.  0.
         25    1    3    3    0    0 -0.12142559261E+02  0.60808930860E+02  0.69050347450E+03  0.70359094374E+03  0.12000000000E+03 0.  0.
<mgrwt>
<rscale>  0 0.27475130E+03</rscale>
<asrwt>0</asrwt>
<pdfrwt beam="1">  1        2 0.26227862E+00 0.27475130E+03</pdfrwt>
<pdfrwt beam="2">  1       -2 0.17030599E-02 0.27475130E+03</pdfrwt>
<totfact> 0.10401531E+04</totfact>
</mgrwt>
</event>
<event>
 5    1  0.1111501E+001  0.2743958E+03  0.7818608E-02  0.1098790E+00
         -2   -1    0    0    0  501 -0.00000000000E+00  0.00000000000E+00  0.64673054409E+02  0.64673054409E+02  0.00000000000E+00 0. -1.
          2   -1    0    0  501    0  0.00000000000E+00 -0.00000000000E+00 -0.29105271397E+03  0.29105271397E+03  0.00000000000E+00 0. -1.
         35    2    1    2    0    0  0.00000000000E+00  0.00000000000E+00 -0.22637965956E+03  0.35572576838E+03  0.27439583092E+03 0.  0.
         25    1    3    3    0    0  0.43407617344E+02  0.25411906194E+02 -0.16959844600E+03  0.21376065846E+03  0.12000000000E+03 0.  0.
         25    1    3    3    0    0 -0.43407617344E+02 -0.25411906194E+02 -0.56781213554E+02  0.14196510991E+03  0.12000000000E+03 0.  0.
<mgrwt>
<rscale>  0 0.27439583E+03</rscale>
<asrwt>0</asrwt>
<pdfrwt beam="1">  1        2 0.44777342E-01 0.27439583E+03</pdfrwt>
<pdfrwt beam="2">  1       -2 0.99497004E-02 0.27439583E+03</pdfrwt>
<totfact> 0.75014143E+03</totfact>
</mgrwt>
</event>
<event>
 5    1  0.1111501E+001  0.2744522E+03  0.7818608E-02  0.1098758E+00
          2   -1    0    0  501    0  0.00000000000E+00  0.00000000000E+00  0.50305486127E+03  0.50305486127E+03  0.00000000000E+00 0. -1.
         -2   -1    0    0    0  501 -0.00000000000E+00 -0.00000000000E+00 -0.37433284946E+02  0.37433284946E+02  0.00000000000E+00 0. -1.
         35    2    1    2    0    0  0.00000000000E+00  0.00000000000E+00  0.46562157633E+03  0.54048814622E+03  0.27445215222E+03 0.  0.
         25    1    3    3    0    0  0.65774816074E+02  0.48257652448E+01  0.25057649314E+03  0.28554893338E+03  0.12000000000E+03 0.  0.
         25    1    3    3    0    0 -0.65774816074E+02 -0.48257652448E+01  0.21504508318E+03  0.25493921283E+03  0.12000000000E+03 0.  0.
<mgrwt>
<rscale>  0 0.27445215E+03</rscale>
<asrwt>0</asrwt>
<pdfrwt beam="1">  1        2 0.77393051E-01 0.27445215E+03</pdfrwt>
<pdfrwt beam="2">  1       -2 0.57589673E-02 0.27445215E+03</pdfrwt>
<totfact> 0.96901625E+03</totfact>
</mgrwt>
</event>
<event>
 5    1  0.1111501E+001  0.2725413E+03  0.7818608E-02  0.1099834E+00
         -1   -1    0    0    0  501 -0.00000000000E+00  0.00000000000E+00  0.11632694769E+02  0.11632694769E+02  0.00000000000E+00 0.  1.
          1   -1    0    0  501    0  0.00000000000E+00 -0.00000000000E+00 -0.15963356668E+04  0.15963356668E+04  0.00000000000E+00 0.  1.
         35    2    1    2    0    0  0.00000000000E+00  0.00000000000E+00 -0.15847029721E+04  0.16079683616E+04  0.27254126705E+03 0.  0.
         25    1    3    3    0    0 -0.41530875964E+02  0.42194386602E+02 -0.64026362044E+03  0.65409684572E+03  0.12000000000E+03 0.  0.
         25    1    3    3    0    0  0.41530875964E+02 -0.42194386602E+02 -0.94443935164E+03  0.95387151590E+03  0.12000000000E+03 0.  0.
<mgrwt>
<rscale>  0 0.27254127E+03</rscale>
<asrwt>0</asrwt>
<pdfrwt beam="1">  1        1 0.24559010E+00 0.27254127E+03</pdfrwt>
<pdfrwt beam="2">  1       -1 0.17896454E-02 0.27254127E+03</pdfrwt>
<totfact> 0.49862142E+03</totfact>
</mgrwt>
</event>
<event>
 5    1  0.1111501E+001  0.2746547E+03  0.7818608E-02  0.1098645E+00
          2   -1    0    0  501    0  0.00000000000E+00  0.00000000000E+00  0.33848891308E+04  0.33848891308E+04  0.00000000000E+00 0. -1.
         -2   -1    0    0    0  501 -0.00000000000E+00 -0.00000000000E+00 -0.55714674875E+01  0.55714674875E+01  0.00000000000E+00 0. -1.
         35    2    1    2    0    0  0.00000000000E+00  0.00000000000E+00  0.33793176633E+04  0.33904605983E+04  0.27465469041E+03 0.  0.
         25    1    3    3    0    0  0.60994302438E+02 -0.20829461243E+02  0.14742036990E+04  0.14804832716E+04  0.12000000000E+03 0.  0.
         25    1    3    3    0    0 -0.60994302438E+02  0.20829461243E+02  0.19051139643E+04  0.19099773267E+04  0.12000000000E+03 0.  0.
<mgrwt>
<rscale>  0 0.27465469E+03</rscale>
<asrwt>0</asrwt>
<pdfrwt beam="1">  1        2 0.52075053E+00 0.27465469E+03</pdfrwt>
<pdfrwt beam="2">  1       -2 0.85715155E-03 0.27465469E+03</pdfrwt>
<totfact> 0.32159100E+03</totfact>
</mgrwt>
</event>
<event>
 5    1  0.1111501E+001  0.2749309E+03  0.7818608E-02  0.1098490E+00
          1   -1    0    0  501    0  0.00000000000E+00  0.00000000000E+00  0.49680445194E+03  0.49680445194E+03  0.00000000000E+00 0. -1.
         -1   -1    0    0    0  501 -0.00000000000E+00 -0.00000000000E+00 -0.38036586755E+02  0.38036586755E+02  0.00000000000E+00 0. -1.
         35    2    1    2    0    0  0.00000000000E+00  0.00000000000E+00  0.45876786519E+03  0.53484103870E+03  0.27493086867E+03 0.  0.
         25    1    3    3    0    0  0.45955383967E+01  0.36346884123E+02  0.33864579450E+03  0.36114150840E+03  0.12000000000E+03 0.  0.
         25    1    3    3    0    0 -0.45955383967E+01 -0.36346884123E+02  0.12012207069E+03  0.17369953030E+03  0.12000000000E+03 0.  0.
<mgrwt>
<rscale>  0 0.27493087E+03</rscale>
<asrwt>0</asrwt>
<pdfrwt beam="1">  1        1 0.76431450E-01 0.27493087E+03</pdfrwt>
<pdfrwt beam="2">  1       -1 0.58517829E-02 0.27493087E+03</pdfrwt>
<totfact> 0.62904588E+03</totfact>
</mgrwt>
</event>
<event>
 5    1  0.1111501E+001  0.2750386E+03  0.7818608E-02  0.1098430E+00
         -2   -1    0    0    0  501 -0.00000000000E+00  0.00000000000E+00  0.66328438058E+02  0.66328438058E+02  0.00000000000E+00 0. -1.
          2   -1    0    0  501    0  0.00000000000E+00 -0.00000000000E+00 -0.28511998633E+03  0.28511998633E+03  0.00000000000E+00 0. -1.
         35    2    1    2    0    0  0.00000000000E+00  0.00000000000E+00 -0.21879154827E+03  0.35144842439E+03  0.27503863985E+03 0.  0.
         25    1    3    3    0    0 -0.39249427126E+02 -0.48726472183E+02 -0.14061152815E+03  0.19515734285E+03  0.12000000000E+03 0.  0.
         25    1    3    3    0    0  0.39249427126E+02  0.48726472183E+02 -0.78180020128E+02  0.15629108154E+03  0.12000000000E+03 0.  0.
<mgrwt>
<rscale>  0 0.27503864E+03</rscale>
<asrwt>0</asrwt>
<pdfrwt beam="1">  1        2 0.43864613E-01 0.27503864E+03</pdfrwt>
<pdfrwt beam="2">  1       -2 0.10204375E-01 0.27503864E+03</pdfrwt>
<totfact> 0.73679052E+03</totfact>
</mgrwt>
</event>
<event>
 5    1  0.1111501E+001  0.2751037E+03  0.7818608E-02  0.1098394E+00
         -3   -1    0    0    0  501 -0.00000000000E+00  0.00000000000E+00  0.17373657068E+03  0.17373657068E+03  0.00000000000E+00 0.  1.
          3   -1    0    0  501    0  0.00000000000E+00 -0.00000000000E+00 -0.10890343792E+03  0.10890343792E+03  0.00000000000E+00 0.  1.
         35    2    1    2    0    0  0.00000000000E+00  0.00000000000E+00  0.64833132757E+02  0.28264000860E+03  0.27510368838E+03 0.  0.
         25    1    3    3    0    0 -0.18835040138E+02  0.13445877614E+02  0.97272419924E+02  0.15619690791E+03  0.12000000000E+03 0.  0.
         25    1    3    3    0    0  0.18835040138E+02 -0.13445877614E+02 -0.32439287167E+02  0.12644310070E+03  0.12000000000E+03 0.  0.
<mgrwt>
<rscale>  0 0.27510369E+03</rscale>
<asrwt>0</asrwt>
<pdfrwt beam="1">  1        3 0.16754375E-01 0.27510369E+03</pdfrwt>
<pdfrwt beam="2">  1       -3 0.26728703E-01 0.27510369E+03</pdfrwt>
<totfact> 0.10360544E+03</totfact>
</mgrwt>
</event>
<event>
 5    1  0.1111501E+001  0.2751533E+03  0.7818608E-02  0.1098366E+00
         -2   -1    0    0    0  501 -0.00000000000E+00  0.00000000000E+00  0.39167766049E+02  0.39167766049E+02  0.00000000000E+00 0.  1.
          2   -1    0    0  501    0  0.00000000000E+00 -0.00000000000E+00 -0.48323740088E+03  0.48323740088E+03  0.00000000000E+00 0.  1.
         35    2    1    2    0    0  0.00000000000E+00  0.00000000000E+00 -0.44406963483E+03  0.52240516693E+03  0.27515326248E+03 0.  0.
         25    1    3    3    0    0  0.18056877487E+02  0.61602265873E+02 -0.18375844778E+03  0.22866581974E+03  0.12000000000E+03 0.  0.
         25    1    3    3    0    0 -0.18056877487E+02 -0.61602265873E+02 -0.26031118705E+03  0.29373934719E+03  0.12000000000E+03 0.  0.
<mgrwt>
<rscale>  0 0.27515326E+03</rscale>
<asrwt>0</asrwt>
<pdfrwt beam="1">  1        2 0.74344213E-01 0.27515326E+03</pdfrwt>
<pdfrwt beam="2">  1       -2 0.60258104E-02 0.27515326E+03</pdfrwt>
<totfact> 0.94560621E+03</totfact>
</mgrwt>
</event>
<event>
 5    1  0.1111501E+001  0.2733239E+03  0.7818608E-02  0.1099392E+00
          2   -1    0    0  501    0  0.00000000000E+00  0.00000000000E+00  0.29954247599E+03  0.29954247599E+03  0.00000000000E+00 0.  1.
         -2   -1    0    0    0  501 -0.00000000000E+00 -0.00000000000E+00 -0.62350073515E+02  0.62350073515E+02  0.00000000000E+00 0.  1.
         35    2    1    2    0    0  0.00000000000E+00  0.00000000000E+00  0.23719240247E+03  0.36189254950E+03  0.27332394991E+03 0.  0.
         25    1    3    3    0    0 -0.51800058696E+02 -0.16585039384E+02  0.16666798817E+03  0.21245358998E+03  0.12000000000E+03 0.  0.
         25    1    3    3    0    0  0.51800058696E+02  0.16585039384E+02  0.70524414301E+02  0.14943895953E+03  0.12000000000E+03 0.  0.
<mgrwt>
<rscale>  0 0.27332395E+03</rscale>
<asrwt>0</asrwt>
<pdfrwt beam="1">  1        2 0.46083457E-01 0.27332395E+03</pdfrwt>
<pdfrwt beam="2">  1       -2 0.95923191E-02 0.27332395E+03</pdfrwt>
<totfact> 0.77064026E+03</totfact>
</mgrwt>
</event>
<event>
 5    1  0.1111501E+001  0.2745930E+03  0.7818608E-02  0.1098679E+00
         -1   -1    0    0    0  501 -0.00000000000E+00  0.00000000000E+00  0.15699004352E+03  0.15699004352E+03  0.00000000000E+00 0.  1.
          1   -1    0    0  501    0  0.00000000000E+00 -0.00000000000E+00 -0.12007342842E+03  0.12007342842E+03  0.00000000000E+00 0.  1.
         35    2    1    2    0    0  0.00000000000E+00  0.00000000000E+00  0.36916615102E+02  0.27706347194E+03  0.27459302797E+03 0.  0.
         25    1    3    3    0    0  0.19224146631E+02 -0.63538631028E+02  0.11795313964E+02  0.13764394240E+03  0.12000000000E+03 0.  0.
         25    1    3    3    0    0 -0.19224146631E+02  0.63538631028E+02  0.25121301138E+02  0.13941952954E+03  0.12000000000E+03 0.  0.
<mgrwt>
<rscale>  0 0.27459303E+03</rscale>
<asrwt>0</asrwt>
<pdfrwt beam="1">  1        1 0.18472835E-01 0.27459303E+03</pdfrwt>
<pdfrwt beam="2">  1       -1 0.24152315E-01 0.27459303E+03</pdfrwt>
<totfact> 0.41533496E+03</totfact>
</mgrwt>
</event>
<event>
 5    1  0.1111501E+001  0.2782331E+03  0.7818608E-02  0.1096658E+00
         -2   -1    0    0    0  501 -0.00000000000E+00  0.00000000000E+00  0.11286342092E+02  0.11286342092E+02  0.00000000000E+00 0.  1.
          2   -1    0    0  501    0  0.00000000000E+00 -0.00000000000E+00 -0.17147639779E+04  0.17147639779E+04  0.00000000000E+00 0.  1.
         35    2    1    2    0    0  0.00000000000E+00  0.00000000000E+00 -0.17034776358E+04  0.17260503200E+04  0.27823308834E+03 0.  0.
         25    1    3    3    0    0  0.26042409756E+02  0.29234939314E+02 -0.12145586369E+04  0.12211001479E+04  0.12000000000E+03 0.  0.
         25    1    3    3    0    0 -0.26042409756E+02 -0.29234939314E+02 -0.48891899892E+03  0.50495017209E+03  0.12000000000E+03 0.  0.
<mgrwt>
<rscale>  0 0.27823309E+03</rscale>
<asrwt>0</asrwt>
<pdfrwt beam="1">  1        2 0.26380995E+00 0.27823309E+03</pdfrwt>
<pdfrwt beam="2">  1       -2 0.17363596E-02 0.27823309E+03</pdfrwt>
<totfact> 0.99909670E+03</totfact>
</mgrwt>
</event>
<event>
 5    1  0.1111501E+001  0.2749986E+03  0.7818608E-02  0.1098452E+00
          2   -1    0    0  501    0  0.00000000000E+00  0.00000000000E+00  0.11193646812E+03  0.11193646812E+03  0.00000000000E+00 0. -1.
         -2   -1    0    0    0  501 -0.00000000000E+00 -0.00000000000E+00 -0.16889995173E+03  0.16889995173E+03  0.00000000000E+00 0. -1.
         35    2    1    2    0    0  0.00000000000E+00  0.00000000000E+00 -0.56963483610E+02  0.28083641985E+03  0.27499864772E+03 0.  0.
         25    1    3    3    0    0  0.54598578914E+02  0.39033779253E+02 -0.27263385809E+02  0.14017108456E+03  0.12000000000E+03 0.  0.
         25    1    3    3    0    0 -0.54598578914E+02 -0.39033779253E+02 -0.29700097801E+02  0.14066533529E+03  0.12000000000E+03 0.  0.
<mgrwt>
<rscale>  0 0.27499865E+03</rscale>
<asrwt>0</asrwt>
<pdfrwt beam="1">  1        2 0.17220995E-01 0.27499865E+03</pdfrwt>
<pdfrwt beam="2">  1       -2 0.25984608E-01 0.27499865E+03</pdfrwt>
<totfact> 0.43611358E+03</totfact>
</mgrwt>
</event>
<event>
 5    1  0.1111501E+001  0.2748732E+03  0.7818608E-02  0.1098522E+00
         -2   -1    0    0    0  501 -0.00000000000E+00  0.00000000000E+00  0.22368125151E+03  0.22368125151E+03  0.00000000000E+00 0.  1.
          2   -1    0    0  501    0  0.00000000000E+00 -0.00000000000E+00 -0.84445274619E+02  0.84445274619E+02  0.00000000000E+00 0.  1.
         35    2    1    2    0    0  0.00000000000E+00  0.00000000000E+00  0.13923597689E+03  0.30812652613E+03  0.27487324141E+03 0.  0.
         25    1    3    3    0    0 -0.30166224363E+02 -0.59804100061E+02  0.67920445077E+02  0.15329617848E+03  0.12000000000E+03 0.  0.
         25    1    3    3    0    0  0.30166224363E+02  0.59804100061E+02  0.71315531817E+02  0.15483034765E+03  0.12000000000E+03 0.  0.
<mgrwt>
<rscale>  0 0.27487324E+03</rscale>
<asrwt>0</asrwt>
<pdfrwt beam="1">  1        2 0.12991581E-01 0.27487324E+03</pdfrwt>
<pdfrwt beam="2">  1       -2 0.34412500E-01 0.27487324E+03</pdfrwt>
<totfact> 0.36578453E+03</totfact>
</mgrwt>
</event>
<event>
 5    1  0.1111501E+001  0.2758994E+03  0.7818608E-02  0.1097950E+00
         -2   -1    0    0    0  501 -0.00000000000E+00  0.00000000000E+00  0.20474860691E+02  0.20474860691E+02  0.00000000000E+00 0.  1.
          2   -1    0    0  501    0  0.00000000000E+00 -0.00000000000E+00 -0.92943815411E+03  0.92943815411E+03  0.00000000000E+00 0.  1.
         35    2    1    2    0    0  0.00000000000E+00  0.00000000000E+00 -0.90896329342E+03  0.94991301481E+03  0.27589937823E+03 0.  0.
         25    1    3    3    0    0 -0.48922935480E+02 -0.46997039359E+02 -0.47268105279E+03  0.49237135680E+03  0.12000000000E+03 0.  0.
         25    1    3    3    0    0  0.48922935480E+02  0.46997039359E+02 -0.43628224063E+03  0.45754165801E+03  0.12000000000E+03 0.  0.
<mgrwt>
<rscale>  0 0.27589938E+03</rscale>
<asrwt>0</asrwt>
<pdfrwt beam="1">  1        2 0.14299046E+00 0.27589938E+03</pdfrwt>
<pdfrwt beam="2">  1       -2 0.31499791E-02 0.27589938E+03</pdfrwt>
<totfact> 0.11419172E+04</totfact>
</mgrwt>
</event>
<event>
 5    1  0.1111501E+001  0.2736380E+03  0.7818608E-02  0.1099215E+00
         -2   -1    0    0    0  501 -0.00000000000E+00  0.00000000000E+00  0.23757193313E+02  0.23757193313E+02  0.00000000000E+00 0.  1.
          2   -1    0    0  501    0  0.00000000000E+00 -0.00000000000E+00 -0.78794818136E+03  0.78794818136E+03  0.00000000000E+00 0.  1.
         35    2    1    2    0    0  0.00000000000E+00  0.00000000000E+00 -0.76419098805E+03  0.81170537467E+03  0.27363798907E+03 0.  0.
         25    1    3    3    0    0 -0.47973630826E+02 -0.44405996001E+02 -0.36196023601E+03  0.38689607673E+03  0.12000000000E+03 0.  0.
         25    1    3    3    0    0  0.47973630826E+02  0.44405996001E+02 -0.40223075204E+03  0.42480929794E+03  0.12000000000E+03 0.  0.
<mgrwt>
<rscale>  0 0.27363799E+03</rscale>
<asrwt>0</asrwt>
<pdfrwt beam="1">  1        2 0.12122281E+00 0.27363799E+03</pdfrwt>
<pdfrwt beam="2">  1       -2 0.36549524E-02 0.27363799E+03</pdfrwt>
<totfact> 0.11348821E+04</totfact>
</mgrwt>
</event>
<event>
 5    1  0.1111501E+001  0.2768213E+03  0.7818608E-02  0.1097438E+00
         -2   -1    0    0    0  501 -0.00000000000E+00  0.00000000000E+00  0.36159910351E+02  0.36159910351E+02  0.00000000000E+00 0. -1.
          2   -1    0    0  501    0  0.00000000000E+00 -0.00000000000E+00 -0.52979950278E+03  0.52979950278E+03  0.00000000000E+00 0. -1.
         35    2    1    2    0    0  0.00000000000E+00  0.00000000000E+00 -0.49363959242E+03  0.56595941313E+03  0.27682126020E+03 0.  0.
         25    1    3    3    0    0  0.65751967204E-01 -0.52746872434E+02 -0.33768520857E+03  0.36223409139E+03  0.12000000000E+03 0.  0.
         25    1    3    3    0    0 -0.65751967204E-01  0.52746872434E+02 -0.15595438385E+03  0.20372532174E+03  0.12000000000E+03 0.  0.
<mgrwt>
<rscale>  0 0.27682126E+03</rscale>
<asrwt>0</asrwt>
<pdfrwt beam="1">  1        2 0.81507617E-01 0.27682126E+03</pdfrwt>
<pdfrwt beam="2">  1       -2 0.55630631E-02 0.27682126E+03</pdfrwt>
<totfact> 0.96415311E+03</totfact>
</mgrwt>
</event>
<event>
 5    1  0.1111501E+001  0.2781284E+03  0.7818608E-02  0.1096716E+00
         -2   -1    0    0    0  501 -0.00000000000E+00  0.00000000000E+00  0.63889861593E+02  0.63889861593E+02  0.00000000000E+00 0. -1.
          2   -1    0    0  501    0  0.00000000000E+00 -0.00000000000E+00 -0.30269047535E+03  0.30269047535E+03  0.00000000000E+00 0. -1.
         35    2    1    2    0    0  0.00000000000E+00  0.00000000000E+00 -0.23880061375E+03  0.36658033694E+03  0.27812840614E+03 0.  0.
         25    1    3    3    0    0  0.68345996071E+02 -0.15474170689E+02 -0.12640291059E+03  0.18785185904E+03  0.12000000000E+03 0.  0.
         25    1    3    3    0    0 -0.68345996071E+02  0.15474170689E+02 -0.11239770316E+03  0.17872847790E+03  0.12000000000E+03 0.  0.
<mgrwt>
<rscale>  0 0.27812841E+03</rscale>
<asrwt>0</asrwt>
<pdfrwt beam="1">  1        2 0.46567764E-01 0.27812841E+03</pdfrwt>
<pdfrwt beam="2">  1       -2 0.98292097E-02 0.27812841E+03</pdfrwt>
<totfact> 0.73359538E+03</totfact>
</mgrwt>
</event>
<event>
 5    1  0.1111501E+001  0.2713424E+03  0.7818608E-02  0.1100514E+00
          4   -1    0    0  501    0  0.00000000000E+00  0.00000000000E+00  0.91354052342E+02  0.91354052342E+02  0.00000000000E+00 0. -1.
         -4   -1    0    0    0  501 -0.00000000000E+00 -0.00000000000E+00 -0.20148719408E+03  0.20148719408E+03  0.00000000000E+00 0. -1.
         35    2    1    2    0    0  0.00000000000E+00  0.00000000000E+00 -0.11013314174E+03  0.29284124642E+03  0.27134237910E+03 0.  0.
         25    1    3    3    0    0 -0.48538956024E+02 -0.13961382090E+02 -0.13889663408E+02  0.13093461418E+03  0.12000000000E+03 0.  0.
         25    1    3    3    0    0  0.48538956024E+02  0.13961382090E+02 -0.96243478333E+02  0.16190663224E+03  0.12000000000E+03 0.  0.
<mgrwt>
<rscale>  0 0.27134238E+03</rscale>
<asrwt>0</asrwt>
<pdfrwt beam="1">  1        4 0.14054470E-01 0.27134238E+03</pdfrwt>
<pdfrwt beam="2">  1       -4 0.30998030E-01 0.27134238E+03</pdfrwt>
<totfact> 0.78999157E+02</totfact>
</mgrwt>
</event>
<event>
 5    1  0.1111501E+001  0.2767997E+03  0.7818608E-02  0.1097450E+00
         -1   -1    0    0    0  501 -0.00000000000E+00  0.00000000000E+00  0.26675119525E+03  0.26675119525E+03  0.00000000000E+00 0. -1.
          1   -1    0    0  501    0  0.00000000000E+00 -0.00000000000E+00 -0.71806669386E+02  0.71806669386E+02  0.00000000000E+00 0. -1.
         35    2    1    2    0    0  0.00000000000E+00  0.00000000000E+00  0.19494452586E+03  0.33855786464E+03  0.27679967403E+03 0.  0.
         25    1    3    3    0    0 -0.45648177542E+02 -0.11210222892E+02  0.15917705272E+03  0.20480908017E+03  0.12000000000E+03 0.  0.
         25    1    3    3    0    0  0.45648177542E+02  0.11210222892E+02  0.35767473150E+02  0.13374878446E+03  0.12000000000E+03 0.  0.
<mgrwt>
<rscale>  0 0.27679967E+03</rscale>
<asrwt>0</asrwt>
<pdfrwt beam="1">  1        1 0.11047180E-01 0.27679967E+03</pdfrwt>
<pdfrwt beam="2">  1       -1 0.41038645E-01 0.27679967E+03</pdfrwt>
<totfact> 0.32930362E+03</totfact>
</mgrwt>
</event>
<event>
 5    1  0.1111501E+001  0.2741480E+03  0.7818608E-02  0.1098929E+00
          2   -1    0    0  501    0  0.00000000000E+00  0.00000000000E+00  0.66787456265E+03  0.66787456265E+03  0.00000000000E+00 0. -1.
         -2   -1    0    0    0  501 -0.00000000000E+00 -0.00000000000E+00 -0.28132955577E+02  0.28132955577E+02  0.00000000000E+00 0. -1.
         35    2    1    2    0    0  0.00000000000E+00  0.00000000000E+00  0.63974160707E+03  0.69600751823E+03  0.27414802864E+03 0.  0.
         25    1    3    3    0    0  0.22996756964E+02 -0.59724772617E+02  0.36335671487E+03  0.38797422793E+03  0.12000000000E+03 0.  0.
         25    1    3    3    0    0 -0.22996756964E+02  0.59724772617E+02  0.27638489221E+03  0.30803329030E+03  0.12000000000E+03 0.  0.
<mgrwt>
<rscale>  0 0.27414803E+03</rscale>
<asrwt>0</asrwt>
<pdfrwt beam="1">  1        2 0.10274992E+00 0.27414803E+03</pdfrwt>
<pdfrwt beam="2">  1       -2 0.43281475E-02 0.27414803E+03</pdfrwt>
<totfact> 0.10784300E+04</totfact>
</mgrwt>
</event>
<event>
 5    1  0.1111501E+001  0.2749081E+03  0.7818608E-02  0.1098503E+00
         -1   -1    0    0    0  501 -0.00000000000E+00  0.00000000000E+00  0.11845221880E+02  0.11845221880E+02  0.00000000000E+00 0. -1.
          1   -1    0    0  501    0  0.00000000000E+00 -0.00000000000E+00 -0.15950407795E+04  0.15950407795E+04  0.00000000000E+00 0. -1.
         35    2    1    2    0    0  0.00000000000E+00  0.00000000000E+00 -0.15831955576E+04  0.16068860014E+04  0.27490807147E+03 0.  0.
         25    1    3    3    0    0  0.62326133612E+02  0.16036256593E+02 -0.68194759619E+03  0.69540939913E+03  0.12000000000E+03 0.  0.
         25    1    3    3    0    0 -0.62326133612E+02 -0.16036256593E+02 -0.90124796145E+03  0.91147660227E+03  0.12000000000E+03 0.  0.
<mgrwt>
<rscale>  0 0.27490807E+03</rscale>
<asrwt>0</asrwt>
<pdfrwt beam="1">  1        1 0.24539093E+00 0.27490807E+03</pdfrwt>
<pdfrwt beam="2">  1       -1 0.18223415E-02 0.27490807E+03</pdfrwt>
<totfact> 0.48659765E+03</totfact>
</mgrwt>
</event>
<event>
 5    1  0.1111501E+001  0.2751488E+03  0.7818608E-02  0.1098368E+00
          1   -1    0    0  501    0  0.00000000000E+00  0.00000000000E+00  0.66861533924E+03  0.66861533924E+03  0.00000000000E+00 0.  1.
         -1   -1    0    0    0  501 -0.00000000000E+00 -0.00000000000E+00 -0.28307334064E+02  0.28307334064E+02  0.00000000000E+00 0.  1.
         35    2    1    2    0    0  0.00000000000E+00  0.00000000000E+00  0.64030800517E+03  0.69692267330E+03  0.27514881623E+03 0.  0.
         25    1    3    3    0    0  0.52495890132E+01 -0.55209688943E+02  0.41663862654E+03  0.43710801075E+03  0.12000000000E+03 0.  0.
         25    1    3    3    0    0 -0.52495890132E+01  0.55209688943E+02  0.22366937863E+03  0.25981466255E+03  0.12000000000E+03 0.  0.
<mgrwt>
<rscale>  0 0.27514882E+03</rscale>
<asrwt>0</asrwt>
<pdfrwt beam="1">  1        1 0.10286389E+00 0.27514882E+03</pdfrwt>
<pdfrwt beam="2">  1       -1 0.43549750E-02 0.27514882E+03</pdfrwt>
<totfact> 0.65082154E+03</totfact>
</mgrwt>
</event>
<event>
 5    1  0.1111501E+001  0.2749871E+03  0.7818608E-02  0.1098459E+00
         -2   -1    0    0    0  501 -0.00000000000E+00  0.00000000000E+00  0.75454361057E+02  0.75454361057E+02  0.00000000000E+00 0.  1.
          2   -1    0    0  501    0  0.00000000000E+00 -0.00000000000E+00 -0.25054190432E+03  0.25054190432E+03  0.00000000000E+00 0.  1.
         35    2    1    2    0    0  0.00000000000E+00  0.00000000000E+00 -0.17508754327E+03  0.32599626538E+03  0.27498712194E+03 0.  0.
         25    1    3    3    0    0 -0.20795089143E+02  0.23411214589E+02 -0.17169215539E+02  0.12520104897E+03  0.12000000000E+03 0.  0.
         25    1    3    3    0    0  0.20795089143E+02 -0.23411214589E+02 -0.15791832773E+03  0.20079521641E+03  0.12000000000E+03 0.  0.
<mgrwt>
<rscale>  0 0.27498712E+03</rscale>
<asrwt>0</asrwt>
<pdfrwt beam="1">  1        2 0.38544908E-01 0.27498712E+03</pdfrwt>
<pdfrwt beam="2">  1       -2 0.11608363E-01 0.27498712E+03</pdfrwt>
<totfact> 0.68897696E+03</totfact>
</mgrwt>
</event>
<event>
 5    1  0.1111501E+001  0.2748728E+03  0.7818608E-02  0.1098523E+00
          2   -1    0    0  501    0  0.00000000000E+00  0.00000000000E+00  0.28535692388E+03  0.28535692388E+03  0.00000000000E+00 0. -1.
         -2   -1    0    0    0  501 -0.00000000000E+00 -0.00000000000E+00 -0.66193460028E+02  0.66193460028E+02  0.00000000000E+00 0. -1.
         35    2    1    2    0    0  0.00000000000E+00  0.00000000000E+00  0.21916346385E+03  0.35155038390E+03  0.27487278610E+03 0.  0.
         25    1    3    3    0    0  0.66601227793E+02  0.59432605416E+01  0.11496494624E+03  0.17913119425E+03  0.12000000000E+03 0.  0.
         25    1    3    3    0    0 -0.66601227793E+02 -0.59432605416E+01  0.10419851761E+03  0.17241918965E+03  0.12000000000E+03 0.  0.
<mgrwt>
<rscale>  0 0.27487279E+03</rscale>
<asrwt>0</asrwt>
<pdfrwt beam="1">  1        2 0.43901065E-01 0.27487279E+03</pdfrwt>
<pdfrwt beam="2">  1       -2 0.10183609E-01 0.27487279E+03</pdfrwt>
<totfact> 0.73850659E+03</totfact>
</mgrwt>
</event>
<event>
 5    1  0.1111501E+001  0.2744431E+03  0.7818608E-02  0.1098763E+00
         -1   -1    0    0    0  501 -0.00000000000E+00  0.00000000000E+00  0.74719910330E+02  0.74719910330E+02  0.00000000000E+00 0.  1.
          1   -1    0    0  501    0  0.00000000000E+00 -0.00000000000E+00 -0.25200443906E+03  0.25200443906E+03  0.00000000000E+00 0.  1.
         35    2    1    2    0    0  0.00000000000E+00  0.00000000000E+00 -0.17728452873E+03  0.32672434939E+03  0.27444306578E+03 0.  0.
         25    1    3    3    0    0  0.47126397339E+02 -0.46805713608E+02 -0.83580619622E+02  0.16061566589E+03  0.12000000000E+03 0.  0.
         25    1    3    3    0    0 -0.47126397339E+02  0.46805713608E+02 -0.93703909111E+02  0.16610868350E+03  0.12000000000E+03 0.  0.
<mgrwt>
<rscale>  0 0.27444307E+03</rscale>
<asrwt>0</asrwt>
<pdfrwt beam="1">  1        1 0.38769914E-01 0.27444307E+03</pdfrwt>
<pdfrwt beam="2">  1       -1 0.11495371E-01 0.27444307E+03</pdfrwt>
<totfact> 0.53210722E+03</totfact>
</mgrwt>
</event>
<event>
 5    1  0.1111501E+001  0.2753789E+03  0.7818608E-02  0.1098240E+00
         -1   -1    0    0    0  501 -0.00000000000E+00  0.00000000000E+00  0.39850861756E+02  0.39850861756E+02  0.00000000000E+00 0. -1.
          1   -1    0    0  501    0  0.00000000000E+00 -0.00000000000E+00 -0.47573345586E+03  0.47573345586E+03  0.00000000000E+00 0. -1.
         35    2    1    2    0    0  0.00000000000E+00  0.00000000000E+00 -0.43588259410E+03  0.51558431762E+03  0.27537892572E+03 0.  0.
         25    1    3    3    0    0 -0.32714798510E+02 -0.97220166595E+01 -0.10887259995E+03  0.16558387201E+03  0.12000000000E+03 0.  0.
         25    1    3    3    0    0  0.32714798510E+02  0.97220166595E+01 -0.32700999415E+03  0.35000044561E+03  0.12000000000E+03 0.  0.
<mgrwt>
<rscale>  0 0.27537893E+03</rscale>
<asrwt>0</asrwt>
<pdfrwt beam="1">  1        1 0.73189766E-01 0.27537893E+03</pdfrwt>
<pdfrwt beam="2">  1       -1 0.61309016E-02 0.27537893E+03</pdfrwt>
<totfact> 0.62094921E+03</totfact>
</mgrwt>
</event>
<event>
 5    1  0.1111501E+001  0.2711758E+03  0.7818608E-02  0.1100609E+00
         -2   -1    0    0    0  501 -0.00000000000E+00  0.00000000000E+00  0.21861004998E+02  0.21861004998E+02  0.00000000000E+00 0. -1.
          2   -1    0    0  501    0  0.00000000000E+00 -0.00000000000E+00 -0.84095290273E+03  0.84095290273E+03  0.00000000000E+00 0. -1.
         35    2    1    2    0    0  0.00000000000E+00  0.00000000000E+00 -0.81909189773E+03  0.86281390773E+03  0.27117577775E+03 0.  0.
         25    1    3    3    0    0 -0.11003447132E+02 -0.39158341289E+02 -0.25597496566E+03  0.28561798715E+03  0.12000000000E+03 0.  0.
         25    1    3    3    0    0  0.11003447132E+02  0.39158341289E+02 -0.56311693207E+03  0.57719592057E+03  0.12000000000E+03 0.  0.
<mgrwt>
<rscale>  0 0.27117578E+03</rscale>
<asrwt>0</asrwt>
<pdfrwt beam="1">  1        2 0.12937736E+00 0.27117578E+03</pdfrwt>
<pdfrwt beam="2">  1       -2 0.33632318E-02 0.27117578E+03</pdfrwt>
<totfact> 0.11820241E+04</totfact>
</mgrwt>
</event>
<event>
 5    1  0.1111501E+001  0.2752184E+03  0.7818608E-02  0.1098330E+00
         -2   -1    0    0    0  501 -0.00000000000E+00  0.00000000000E+00  0.28707123365E+02  0.28707123365E+02  0.00000000000E+00 0.  1.
          2   -1    0    0  501    0  0.00000000000E+00 -0.00000000000E+00 -0.65963720344E+03  0.65963720344E+03  0.00000000000E+00 0.  1.
         35    2    1    2    0    0  0.00000000000E+00  0.00000000000E+00 -0.63093008008E+03  0.68834432681E+03  0.27521836113E+03 0.  0.
         25    1    3    3    0    0  0.44089357063E+02 -0.25182568553E+02 -0.42614341623E+03  0.44561894524E+03  0.12000000000E+03 0.  0.
         25    1    3    3    0    0 -0.44089357063E+02  0.25182568553E+02 -0.20478666385E+03  0.24272538157E+03  0.12000000000E+03 0.  0.
<mgrwt>
<rscale>  0 0.27521836E+03</rscale>
<asrwt>0</asrwt>
<pdfrwt beam="1">  1        2 0.10148264E+00 0.27521836E+03</pdfrwt>
<pdfrwt beam="2">  1       -2 0.44164810E-02 0.27521836E+03</pdfrwt>
<totfact> 0.10617898E+04</totfact>
</mgrwt>
</event>
<event>
 5    1  0.1111501E+001  0.2741863E+03  0.7818608E-02  0.1098907E+00
         -1   -1    0    0    0  501 -0.00000000000E+00  0.00000000000E+00  0.26084524639E+02  0.26084524639E+02  0.00000000000E+00 0. -1.
          1   -1    0    0  501    0  0.00000000000E+00 -0.00000000000E+00 -0.72052398884E+03  0.72052398884E+03  0.00000000000E+00 0. -1.
         35    2    1    2    0    0  0.00000000000E+00  0.00000000000E+00 -0.69443946420E+03  0.74660851348E+03  0.27418625596E+03 0.  0.
         25    1    3    3    0    0  0.54599152048E+02  0.36527912898E+02 -0.32299118649E+03  0.35076867360E+03  0.12000000000E+03 0.  0.
         25    1    3    3    0    0 -0.54599152048E+02 -0.36527912898E+02 -0.37144827770E+03  0.39583983988E+03  0.12000000000E+03 0.  0.
<mgrwt>
<rscale>  0 0.27418626E+03</rscale>
<asrwt>0</asrwt>
<pdfrwt beam="1">  1        1 0.11084983E+00 0.27418626E+03</pdfrwt>
<pdfrwt beam="2">  1       -1 0.40130044E-02 0.27418626E+03</pdfrwt>
<totfact> 0.65925249E+03</totfact>
</mgrwt>
</event>
<event>
 5    1  0.1111501E+001  0.2755524E+03  0.7818608E-02  0.1098143E+00
          1   -1    0    0  501    0  0.00000000000E+00  0.00000000000E+00  0.47422553214E+03  0.47422553214E+03  0.00000000000E+00 0. -1.
         -1   -1    0    0    0  501 -0.00000000000E+00 -0.00000000000E+00 -0.40027968697E+02  0.40027968697E+02  0.00000000000E+00 0. -1.
         35    2    1    2    0    0  0.00000000000E+00  0.00000000000E+00  0.43419756344E+03  0.51425350083E+03  0.27555242518E+03 0.  0.
         25    1    3    3    0    0 -0.49581989411E+02 -0.45091488430E+02  0.23486937142E+03  0.27213092003E+03  0.12000000000E+03 0.  0.
         25    1    3    3    0    0  0.49581989411E+02  0.45091488430E+02  0.19932819202E+03  0.24212258080E+03  0.12000000000E+03 0.  0.
<mgrwt>
<rscale>  0 0.27555243E+03</rscale>
<asrwt>0</asrwt>
<pdfrwt beam="1">  1        1 0.72957770E-01 0.27555243E+03</pdfrwt>
<pdfrwt beam="2">  1       -1 0.61581494E-02 0.27555243E+03</pdfrwt>
<totfact> 0.61939927E+03</totfact>
</mgrwt>
</event>
<event>
 5    1  0.1111501E+001  0.2753882E+03  0.7818608E-02  0.1098235E+00
         -2   -1    0    0    0  501 -0.00000000000E+00  0.00000000000E+00  0.97183899577E+01  0.97183899577E+01  0.00000000000E+00 0.  1.
          2   -1    0    0  501    0  0.00000000000E+00 -0.00000000000E+00 -0.19509064316E+04  0.19509064316E+04  0.00000000000E+00 0.  1.
         35    2    1    2    0    0  0.00000000000E+00  0.00000000000E+00 -0.19411880417E+04  0.19606248216E+04  0.27538823122E+03 0.  0.
         25    1    3    3    0    0 -0.63185371475E+02  0.76771296228E+01 -0.11311129509E+04  0.11392400261E+04  0.12000000000E+03 0.  0.
         25    1    3    3    0    0  0.63185371475E+02 -0.76771296228E+01 -0.81007509082E+03  0.82138479548E+03  0.12000000000E+03 0.  0.
<mgrwt>
<rscale>  0 0.27538823E+03</rscale>
<asrwt>0</asrwt>
<pdfrwt beam="1">  1        2 0.30013935E+00 0.27538823E+03</pdfrwt>
<pdfrwt beam="2">  1       -2 0.14951374E-02 0.27538823E+03</pdfrwt>
<totfact> 0.93468531E+03</totfact>
</mgrwt>
</event>
<event>
 5    1  0.1111501E+001  0.2763395E+03  0.7818608E-02  0.1097705E+00
          2   -1    0    0  501    0  0.00000000000E+00  0.00000000000E+00  0.98058874716E+02  0.98058874716E+02  0.00000000000E+00 0. -1.
         -2   -1    0    0    0  501 -0.00000000000E+00 -0.00000000000E+00 -0.19468793395E+03  0.19468793395E+03  0.00000000000E+00 0. -1.
         35    2    1    2    0    0  0.00000000000E+00  0.00000000000E+00 -0.96629059232E+02  0.29274680866E+03  0.27633949934E+03 0.  0.
         25    1    3    3    0    0 -0.42536778881E+02  0.51433027928E+02 -0.64593964311E+02  0.15174687524E+03  0.12000000000E+03 0.  0.
         25    1    3    3    0    0  0.42536778881E+02 -0.51433027928E+02 -0.32035094921E+02  0.14099993343E+03  0.12000000000E+03 0.  0.
<mgrwt>
<rscale>  0 0.27633950E+03</rscale>
<asrwt>0</asrwt>
<pdfrwt beam="1">  1        2 0.15085981E-01 0.27633950E+03</pdfrwt>
<pdfrwt beam="2">  1       -2 0.29951989E-01 0.27633950E+03</pdfrwt>
<totfact> 0.39487914E+03</totfact>
</mgrwt>
</event>
<event>
 5    1  0.1111501E+001  0.2758499E+03  0.7818608E-02  0.1097977E+00
          1   -1    0    0  501    0  0.00000000000E+00  0.00000000000E+00  0.66466058296E+02  0.66466058296E+02  0.00000000000E+00 0.  1.
         -1   -1    0    0    0  501 -0.00000000000E+00 -0.00000000000E+00 -0.28621053742E+03  0.28621053742E+03  0.00000000000E+00 0.  1.
         35    2    1    2    0    0  0.00000000000E+00  0.00000000000E+00 -0.21974447912E+03  0.35267659571E+03  0.27584985963E+03 0.  0.
         25    1    3    3    0    0  0.58553336523E+02  0.33654543121E+02 -0.11995259980E+03  0.18261913287E+03  0.12000000000E+03 0.  0.
         25    1    3    3    0    0 -0.58553336523E+02 -0.33654543121E+02 -0.99791879321E+02  0.17005746284E+03  0.12000000000E+03 0.  0.
<mgrwt>
<rscale>  0 0.27584986E+03</rscale>
<asrwt>0</asrwt>
<pdfrwt beam="1">  1        1 0.10225548E-01 0.27584986E+03</pdfrwt>
<pdfrwt beam="2">  1       -1 0.44032390E-01 0.27584986E+03</pdfrwt>
<totfact> 0.32184914E+03</totfact>
</mgrwt>
</event>
<event>
 5    1  0.1111501E+001  0.2749967E+03  0.7818608E-02  0.1098453E+00
         -1   -1    0    0    0  501 -0.00000000000E+00  0.00000000000E+00  0.20663893662E+03  0.20663893662E+03  0.00000000000E+00 0. -1.
          1   -1    0    0  501    0  0.00000000000E+00 -0.00000000000E+00 -0.91491966916E+02  0.91491966916E+02  0.00000000000E+00 0. -1.
         35    2    1    2    0    0  0.00000000000E+00  0.00000000000E+00  0.11514696970E+03  0.29813090353E+03  0.27499674727E+03 0.  0.
         25    1    3    3    0    0 -0.40473210719E+01 -0.22721014362E+02 -0.10762336766E+02  0.12267213699E+03  0.12000000000E+03 0.  0.
         25    1    3    3    0    0  0.40473210719E+01  0.22721014362E+02  0.12590930647E+03  0.17545876654E+03  0.12000000000E+03 0.  0.
<mgrwt>
<rscale>  0 0.27499675E+03</rscale>
<asrwt>0</asrwt>
<pdfrwt beam="1">  1        1 0.14075687E-01 0.27499675E+03</pdfrwt>
<pdfrwt beam="2">  1       -1 0.31790606E-01 0.27499675E+03</pdfrwt>
<totfact> 0.37291768E+03</totfact>
</mgrwt>
</event>
<event>
 5    1  0.1111501E+001  0.2746571E+03  0.7818608E-02  0.1098643E+00
          1   -1    0    0  501    0  0.00000000000E+00  0.00000000000E+00  0.35482677329E+03  0.35482677329E+03  0.00000000000E+00 0. -1.
         -1   -1    0    0    0  501 -0.00000000000E+00 -0.00000000000E+00 -0.53150264342E+02  0.53150264342E+02  0.00000000000E+00 0. -1.
         35    2    1    2    0    0  0.00000000000E+00  0.00000000000E+00  0.30167650895E+03  0.40797703763E+03  0.27465714479E+03 0.  0.
         25    1    3    3    0    0  0.16363242172E+02 -0.47987476918E+02  0.86285782819E+02  0.15625552775E+03  0.12000000000E+03 0.  0.
         25    1    3    3    0    0 -0.16363242172E+02  0.47987476918E+02  0.21539072613E+03  0.25172150988E+03  0.12000000000E+03 0.  0.
<mgrwt>
<rscale>  0 0.27465714E+03</rscale>
<asrwt>0</asrwt>
<pdfrwt beam="1">  1        1 0.54588733E-01 0.27465714E+03</pdfrwt>
<pdfrwt beam="2">  1       -1 0.81769640E-02 0.27465714E+03</pdfrwt>
<totfact> 0.58501672E+03</totfact>
</mgrwt>
</event>
<event>
 5    1  0.1111501E+001  0.2746353E+03  0.7818608E-02  0.1098656E+00
          2   -1    0    0  501    0  0.00000000000E+00  0.00000000000E+00  0.49334194772E+02  0.49334194772E+02  0.00000000000E+00 0.  1.
         -2   -1    0    0    0  501 -0.00000000000E+00 -0.00000000000E+00 -0.38221226608E+03  0.38221226608E+03  0.00000000000E+00 0.  1.
         35    2    1    2    0    0  0.00000000000E+00  0.00000000000E+00 -0.33287807131E+03  0.43154646085E+03  0.27463528090E+03 0.  0.
         25    1    3    3    0    0  0.94520413317E+01  0.47157980782E+02 -0.23917915716E+03  0.27188211684E+03  0.12000000000E+03 0.  0.
         25    1    3    3    0    0 -0.94520413317E+01 -0.47157980782E+02 -0.93698914145E+02  0.15966434401E+03  0.12000000000E+03 0.  0.
<mgrwt>
<rscale>  0 0.27463528E+03</rscale>
<asrwt>0</asrwt>
<pdfrwt beam="1">  1        2 0.75898760E-02 0.27463528E+03</pdfrwt>
<pdfrwt beam="2">  1       -2 0.58801888E-01 0.27463528E+03</pdfrwt>
<totfact> 0.25016986E+03</totfact>
</mgrwt>
</event>
<event>
 5    1  0.1111501E+001  0.2746519E+03  0.7818608E-02  0.1098646E+00
         -4   -1    0    0    0  501 -0.00000000000E+00  0.00000000000E+00  0.52752355353E+03  0.52752355353E+03  0.00000000000E+00 0.  1.
          4   -1    0    0  501    0  0.00000000000E+00 -0.00000000000E+00 -0.35748958695E+02  0.35748958695E+02  0.00000000000E+00 0.  1.
         35    2    1    2    0    0  0.00000000000E+00  0.00000000000E+00  0.49177459483E+03  0.56327251222E+03  0.27465190861E+03 0.  0.
         25    1    3    3    0    0  0.21967878983E+02  0.53391961906E+02  0.31467914674E+03  0.34169614381E+03  0.12000000000E+03 0.  0.
         25    1    3    3    0    0 -0.21967878983E+02 -0.53391961906E+02  0.17709544810E+03  0.22157636841E+03  0.12000000000E+03 0.  0.
<mgrwt>
<rscale>  0 0.27465191E+03</rscale>
<asrwt>0</asrwt>
<pdfrwt beam="1">  1        4 0.54998402E-02 0.27465191E+03</pdfrwt>
<pdfrwt beam="2">  1       -4 0.81157464E-01 0.27465191E+03</pdfrwt>
<totfact> 0.52713618E+02</totfact>
</mgrwt>
</event>
<event>
 5    1  0.1111501E+001  0.2753386E+03  0.7818608E-02  0.1098262E+00
         -4   -1    0    0    0  501 -0.00000000000E+00  0.00000000000E+00  0.95703716484E+02  0.95703716484E+02  0.00000000000E+00 0. -1.
          4   -1    0    0  501    0  0.00000000000E+00 -0.00000000000E+00 -0.19803664184E+03  0.19803664184E+03  0.00000000000E+00 0. -1.
         35    2    1    2    0    0  0.00000000000E+00  0.00000000000E+00 -0.10233292536E+03  0.29374035832E+03  0.27533864694E+03 0.  0.
         25    1    3    3    0    0 -0.35920343754E+00  0.27754093455E+02 -0.11677820122E+03  0.16972792054E+03  0.12000000000E+03 0.  0.
         25    1    3    3    0    0  0.35920343754E+00 -0.27754093455E+02  0.14445275864E+02  0.12401243779E+03  0.12000000000E+03 0.  0.
<mgrwt>
<rscale>  0 0.27533865E+03</rscale>
<asrwt>0</asrwt>
<pdfrwt beam="1">  1        4 0.30467175E-01 0.27533865E+03</pdfrwt>
<pdfrwt beam="2">  1       -4 0.14723649E-01 0.27533865E+03</pdfrwt>
<totfact> 0.75409594E+02</totfact>
</mgrwt>
</event>
<event>
 5    1  0.1111501E+001  0.2760814E+03  0.7818608E-02  0.1097849E+00
         -1   -1    0    0    0  501 -0.00000000000E+00  0.00000000000E+00  0.70927195528E+02  0.70927195528E+02  0.00000000000E+00 0.  1.
          1   -1    0    0  501    0  0.00000000000E+00 -0.00000000000E+00 -0.26865909174E+03  0.26865909174E+03  0.00000000000E+00 0.  1.
         35    2    1    2    0    0  0.00000000000E+00  0.00000000000E+00 -0.19773189621E+03  0.33958628726E+03  0.27608140778E+03 0.  0.
         25    1    3    3    0    0  0.34654158934E+02 -0.53564762485E+02 -0.12861981419E+03  0.18711801387E+03  0.12000000000E+03 0.  0.
         25    1    3    3    0    0 -0.34654158934E+02  0.53564762485E+02 -0.69112082016E+02  0.15246827339E+03  0.12000000000E+03 0.  0.
<mgrwt>
<rscale>  0 0.27608141E+03</rscale>
<asrwt>0</asrwt>
<pdfrwt beam="1">  1        1 0.41332169E-01 0.27608141E+03</pdfrwt>
<pdfrwt beam="2">  1       -1 0.10911876E-01 0.27608141E+03</pdfrwt>
<totfact> 0.53260364E+03</totfact>
</mgrwt>
</event>
<event>
 5    1  0.1111501E+001  0.2752809E+03  0.7818608E-02  0.1098295E+00
         -2   -1    0    0    0  501 -0.00000000000E+00  0.00000000000E+00  0.10182198012E+02  0.10182198012E+02  0.00000000000E+00 0. -1.
          2   -1    0    0  501    0  0.00000000000E+00 -0.00000000000E+00 -0.18605893030E+04  0.18605893030E+04  0.00000000000E+00 0. -1.
         35    2    1    2    0    0  0.00000000000E+00  0.00000000000E+00 -0.18504071050E+04  0.18707715010E+04  0.27528086532E+03 0.  0.
         25    1    3    3    0    0  0.37901851712E+02 -0.49239699936E+02 -0.74749587739E+03  0.75961252302E+03  0.12000000000E+03 0.  0.
         25    1    3    3    0    0 -0.37901851712E+02  0.49239699936E+02 -0.11029112276E+04  0.11111589780E+04  0.12000000000E+03 0.  0.
<mgrwt>
<rscale>  0 0.27528087E+03</rscale>
<asrwt>0</asrwt>
<pdfrwt beam="1">  1        2 0.28624448E+00 0.27528087E+03</pdfrwt>
<pdfrwt beam="2">  1       -2 0.15664921E-02 0.27528087E+03</pdfrwt>
<totfact> 0.97376431E+03</totfact>
</mgrwt>
</event>
<event>
 5    1  0.1111501E+001  0.2751417E+03  0.7818608E-02  0.1098372E+00
          2   -1    0    0  501    0  0.00000000000E+00  0.00000000000E+00  0.98268090864E+03  0.98268090864E+03  0.00000000000E+00 0.  1.
         -2   -1    0    0    0  501 -0.00000000000E+00 -0.00000000000E+00 -0.19259286875E+02  0.19259286875E+02  0.00000000000E+00 0.  1.
         35    2    1    2    0    0  0.00000000000E+00  0.00000000000E+00  0.96342162177E+03  0.10019401955E+04  0.27514166188E+03 0.  0.
         25    1    3    3    0    0 -0.33888534949E+02 -0.15333972777E+02  0.27758389079E+03  0.30469062990E+03  0.12000000000E+03 0.  0.
         25    1    3    3    0    0  0.33888534949E+02  0.15333972777E+02  0.68583773098E+03  0.69724956562E+03  0.12000000000E+03 0.  0.
<mgrwt>
<rscale>  0 0.27514166E+03</rscale>
<asrwt>0</asrwt>
<pdfrwt beam="1">  1        2 0.15118164E+00 0.27514166E+03</pdfrwt>
<pdfrwt beam="2">  1       -2 0.29629680E-02 0.27514166E+03</pdfrwt>
<totfact> 0.11583524E+04</totfact>
</mgrwt>
</event>
<event>
 5    1  0.1111501E+001  0.2736806E+03  0.7818608E-02  0.1099191E+00
         -1   -1    0    0    0  501 -0.00000000000E+00  0.00000000000E+00  0.14022728343E+02  0.14022728343E+02  0.00000000000E+00 0. -1.
          1   -1    0    0  501    0  0.00000000000E+00 -0.00000000000E+00 -0.13353512505E+04  0.13353512505E+04  0.00000000000E+00 0. -1.
         35    2    1    2    0    0  0.00000000000E+00  0.00000000000E+00 -0.13213285221E+04  0.13493739788E+04  0.27368060090E+03 0.  0.
         25    1    3    3    0    0 -0.52123063325E+02  0.23842727924E+02 -0.50166303230E+03  0.51899045018E+03  0.12000000000E+03 0.  0.
         25    1    3    3    0    0  0.52123063325E+02 -0.23842727924E+02 -0.81966548981E+03  0.83038352861E+03  0.12000000000E+03 0.  0.
<mgrwt>
<rscale>  0 0.27368060E+03</rscale>
<asrwt>0</asrwt>
<pdfrwt beam="1">  1        1 0.20543871E+00 0.27368060E+03</pdfrwt>
<pdfrwt beam="2">  1       -1 0.21573423E-02 0.27368060E+03</pdfrwt>
<totfact> 0.56632169E+03</totfact>
</mgrwt>
</event>
<event>
 5    1  0.1111501E+001  0.2751903E+03  0.7818608E-02  0.1098345E+00
          2   -1    0    0  501    0  0.00000000000E+00  0.00000000000E+00  0.55969076422E+03  0.55969076422E+03  0.00000000000E+00 0. -1.
         -2   -1    0    0    0  501 -0.00000000000E+00 -0.00000000000E+00 -0.33826585597E+02  0.33826585597E+02  0.00000000000E+00 0. -1.
         35    2    1    2    0    0  0.00000000000E+00  0.00000000000E+00  0.52586417862E+03  0.59351734982E+03  0.27519031628E+03 0.  0.
         25    1    3    3    0    0 -0.56668160564E+02  0.29022816597E+01  0.18478964988E+03  0.22752344574E+03  0.12000000000E+03 0.  0.
         25    1    3    3    0    0  0.56668160564E+02 -0.29022816597E+01  0.34107452875E+03  0.36599390407E+03  0.12000000000E+03 0.  0.
<mgrwt>
<rscale>  0 0.27519032E+03</rscale>
<asrwt>0</asrwt>
<pdfrwt beam="1">  1        2 0.86106264E-01 0.27519032E+03</pdfrwt>
<pdfrwt beam="2">  1       -2 0.52040905E-02 0.27519032E+03</pdfrwt>
<totfact> 0.10026369E+04</totfact>
</mgrwt>
</event>
<event>
 5    1  0.1111501E+001  0.2749708E+03  0.7818608E-02  0.1098468E+00
          3   -1    0    0  501    0  0.00000000000E+00  0.00000000000E+00  0.13822678020E+03  0.13822678020E+03  0.00000000000E+00 0.  1.
         -3   -1    0    0    0  501 -0.00000000000E+00 -0.00000000000E+00 -0.13674799328E+03  0.13674799328E+03  0.00000000000E+00 0.  1.
         35    2    1    2    0    0  0.00000000000E+00  0.00000000000E+00  0.14787869228E+01  0.27497477348E+03  0.27497079707E+03 0.  0.
         25    1    3    3    0    0 -0.95125995499E+01 -0.63289943471E+02 -0.19413523491E+02  0.13737900636E+03  0.12000000000E+03 0.  0.
         25    1    3    3    0    0  0.95125995499E+01  0.63289943471E+02  0.20892310413E+02  0.13759576712E+03  0.12000000000E+03 0.  0.
<mgrwt>
<rscale>  0 0.27497080E+03</rscale>
<asrwt>0</asrwt>
<pdfrwt beam="1">  1        3 0.21265658E-01 0.27497080E+03</pdfrwt>
<pdfrwt beam="2">  1       -3 0.21038153E-01 0.27497080E+03</pdfrwt>
<totfact> 0.10492772E+03</totfact>
</mgrwt>
</event>
<event>
 5    1  0.1111501E+001  0.2751825E+03  0.7818608E-02  0.1098350E+00
         -2   -1    0    0    0  501 -0.00000000000E+00  0.00000000000E+00  0.66887915432E+02  0.66887915432E+02  0.00000000000E+00 0.  1.
          2   -1    0    0  501    0  0.00000000000E+00 -0.00000000000E+00 -0.28303099257E+03  0.28303099257E+03  0.00000000000E+00 0.  1.
         35    2    1    2    0    0  0.00000000000E+00  0.00000000000E+00 -0.21614307714E+03  0.34991890800E+03  0.27518250741E+03 0.  0.
         25    1    3    3    0    0  0.24220656731E+02 -0.61157442710E+02 -0.89888264086E+02  0.16372774057E+03  0.12000000000E+03 0.  0.
         25    1    3    3    0    0 -0.24220656731E+02  0.61157442710E+02 -0.12625481305E+03  0.18619116743E+03  0.12000000000E+03 0.  0.
<mgrwt>
<rscale>  0 0.27518251E+03</rscale>
<asrwt>0</asrwt>
<pdfrwt beam="1">  1        2 0.43543230E-01 0.27518251E+03</pdfrwt>
<pdfrwt beam="2">  1       -2 0.10290448E-01 0.27518251E+03</pdfrwt>
<totfact> 0.73278745E+03</totfact>
</mgrwt>
</event>
<event>
 5    1  0.1111501E+001  0.2731555E+03  0.7818608E-02  0.1099487E+00
         -2   -1    0    0    0  501 -0.00000000000E+00  0.00000000000E+00  0.50611053994E+02  0.50611053994E+02  0.00000000000E+00 0.  1.
          2   -1    0    0  501    0  0.00000000000E+00 -0.00000000000E+00 -0.36856541990E+03  0.36856541990E+03  0.00000000000E+00 0.  1.
         35    2    1    2    0    0  0.00000000000E+00  0.00000000000E+00 -0.31795436590E+03  0.41917647389E+03  0.27315551883E+03 0.  0.
         25    1    3    3    0    0  0.43268103667E+02 -0.20744960954E+02 -0.91194961736E+02  0.15817396513E+03  0.12000000000E+03 0.  0.
         25    1    3    3    0    0 -0.43268103667E+02  0.20744960954E+02 -0.22675940417E+03  0.26100250876E+03  0.12000000000E+03 0.  0.
<mgrwt>
<rscale>  0 0.27315552E+03</rscale>
<asrwt>0</asrwt>
<pdfrwt beam="1">  1        2 0.56702373E-01 0.27315552E+03</pdfrwt>
<pdfrwt beam="2">  1       -2 0.77863159E-02 0.27315552E+03</pdfrwt>
<totfact> 0.85531146E+03</totfact>
</mgrwt>
</event>
<event>
 5    1  0.1111501E+001  0.2742907E+03  0.7818608E-02  0.1098849E+00
          2   -1    0    0  501    0  0.00000000000E+00  0.00000000000E+00  0.32797558475E+03  0.32797558475E+03  0.00000000000E+00 0.  1.
         -2   -1    0    0    0  501 -0.00000000000E+00 -0.00000000000E+00 -0.57348306495E+02  0.57348306495E+02  0.00000000000E+00 0.  1.
         35    2    1    2    0    0  0.00000000000E+00  0.00000000000E+00  0.27062727826E+03  0.38532389125E+03  0.27429068054E+03 0.  0.
         25    1    3    3    0    0 -0.11789057025E+02 -0.44260119515E+02  0.67782221449E+02  0.14523212313E+03  0.12000000000E+03 0.  0.
         25    1    3    3    0    0  0.11789057025E+02  0.44260119515E+02  0.20284505681E+03  0.24009176811E+03  0.12000000000E+03 0.  0.
<mgrwt>
<rscale>  0 0.27429068E+03</rscale>
<asrwt>0</asrwt>
<pdfrwt beam="1">  1        2 0.50457781E-01 0.27429068E+03</pdfrwt>
<pdfrwt beam="2">  1       -2 0.88228166E-02 0.27429068E+03</pdfrwt>
<totfact> 0.79776889E+03</totfact>
</mgrwt>
</event>
<event>
 5    1  0.1111501E+001  0.2751379E+03  0.7818608E-02  0.1098375E+00
          1   -1    0    0  501    0  0.00000000000E+00  0.00000000000E+00  0.17638436930E+04  0.17638436930E+04  0.00000000000E+00 0. -1.
         -1   -1    0    0    0  501 -0.00000000000E+00 -0.00000000000E+00 -0.10729530141E+02  0.10729530141E+02  0.00000000000E+00 0. -1.
         35    2    1    2    0    0  0.00000000000E+00  0.00000000000E+00  0.17531141629E+04  0.17745732232E+04  0.27513788593E+03 0.  0.
         25    1    3    3    0    0  0.13328190479E+02  0.51732803226E+02  0.61288175193E+03  0.62679978098E+03  0.12000000000E+03 0.  0.
         25    1    3    3    0    0 -0.13328190479E+02 -0.51732803226E+02  0.11402324110E+04  0.11477734422E+04  0.12000000000E+03 0.  0.
<mgrwt>
<rscale>  0 0.27513789E+03</rscale>
<asrwt>0</asrwt>
<pdfrwt beam="1">  1        1 0.27136034E+00 0.27513789E+03</pdfrwt>
<pdfrwt beam="2">  1       -1 0.16506984E-02 0.27513789E+03</pdfrwt>
<totfact> 0.43605106E+03</totfact>
</mgrwt>
</event>
<event>
 5    1  0.1111501E+001  0.2697700E+03  0.7818608E-02  0.1101411E+00
         -1   -1    0    0    0  501 -0.00000000000E+00  0.00000000000E+00  0.12624359359E+02  0.12624359359E+02  0.00000000000E+00 0. -1.
          1   -1    0    0  501    0  0.00000000000E+00 -0.00000000000E+00 -0.14411792341E+04  0.14411792341E+04  0.00000000000E+00 0. -1.
         35    2    1    2    0    0  0.00000000000E+00  0.00000000000E+00 -0.14285548748E+04  0.14538035935E+04  0.26977000984E+03 0.  0.
         25    1    3    3    0    0 -0.53244623236E+02  0.20353620958E+02 -0.58850292087E+03  0.60331165053E+03  0.12000000000E+03 0.  0.
         25    1    3    3    0    0  0.53244623236E+02 -0.20353620958E+02 -0.84005195388E+03  0.85049194295E+03  0.12000000000E+03 0.  0.
<mgrwt>
<rscale>  0 0.26977001E+03</rscale>
<asrwt>0</asrwt>
<pdfrwt beam="1">  1        1 0.22171992E+00 0.26977001E+03</pdfrwt>
<pdfrwt beam="2">  1       -1 0.19422088E-02 0.26977001E+03</pdfrwt>
<totfact> 0.56041050E+03</totfact>
</mgrwt>
</event>
<event>
 5    1  0.1111501E+001  0.2734232E+03  0.7818608E-02  0.1099336E+00
          2   -1    0    0  501    0  0.00000000000E+00  0.00000000000E+00  0.49455800665E+03  0.49455800665E+03  0.00000000000E+00 0. -1.
         -2   -1    0    0    0  501 -0.00000000000E+00 -0.00000000000E+00 -0.37791433648E+02  0.37791433648E+02  0.00000000000E+00 0. -1.
         35    2    1    2    0    0  0.00000000000E+00  0.00000000000E+00  0.45676657300E+03  0.53234944030E+03  0.27342315991E+03 0.  0.
         25    1    3    3    0    0  0.57547176098E+02  0.30991600208E+02  0.22014608044E+03  0.25910703096E+03  0.12000000000E+03 0.  0.
         25    1    3    3    0    0 -0.57547176098E+02 -0.30991600208E+02  0.23662049255E+03  0.27324240933E+03  0.12000000000E+03 0.  0.
<mgrwt>
<rscale>  0 0.27342316E+03</rscale>
<asrwt>0</asrwt>
<pdfrwt beam="1">  1        2 0.76085842E-01 0.27342316E+03</pdfrwt>
<pdfrwt beam="2">  1       -2 0.58140671E-02 0.27342316E+03</pdfrwt>
<totfact> 0.97321615E+03</totfact>
</mgrwt>
</event>
<event>
 5    1  0.1111501E+001  0.2746305E+03  0.7818608E-02  0.1098658E+00
         -2   -1    0    0    0  501 -0.00000000000E+00  0.00000000000E+00  0.21717774954E+02  0.21717774954E+02  0.00000000000E+00 0. -1.
          2   -1    0    0  501    0  0.00000000000E+00 -0.00000000000E+00 -0.86820477299E+03  0.86820477299E+03  0.00000000000E+00 0. -1.
         35    2    1    2    0    0  0.00000000000E+00  0.00000000000E+00 -0.84648699804E+03  0.88992254795E+03  0.27463048537E+03 0.  0.
         25    1    3    3    0    0 -0.83929917682E+01 -0.34353652964E+02 -0.60668939646E+03  0.61945350072E+03  0.12000000000E+03 0.  0.
         25    1    3    3    0    0  0.83929917682E+01  0.34353652964E+02 -0.23979760159E+03  0.27046904723E+03  0.12000000000E+03 0.  0.
<mgrwt>
<rscale>  0 0.27463049E+03</rscale>
<asrwt>0</asrwt>
<pdfrwt beam="1">  1        2 0.13356996E+00 0.27463049E+03</pdfrwt>
<pdfrwt beam="2">  1       -2 0.33411962E-02 0.27463049E+03</pdfrwt>
<totfact> 0.11454339E+04</totfact>
</mgrwt>
</event>
<event>
 5    1  0.1111501E+001  0.2743320E+03  0.7818608E-02  0.1098826E+00
          2   -1    0    0  501    0  0.00000000000E+00  0.00000000000E+00  0.20391979360E+03  0.20391979360E+03  0.00000000000E+00 0. -1.
         -2   -1    0    0    0  501 -0.00000000000E+00 -0.00000000000E+00 -0.92264257937E+02  0.92264257937E+02  0.00000000000E+00 0. -1.
         35    2    1    2    0    0  0.00000000000E+00  0.00000000000E+00  0.11165553566E+03  0.29618405154E+03  0.27433197725E+03 0.  0.
         25    1    3    3    0    0  0.11782645840E+02 -0.11894915668E+02 -0.13591556501E+02  0.12192231203E+03  0.12000000000E+03 0.  0.
         25    1    3    3    0    0 -0.11782645840E+02  0.11894915668E+02  0.12524709217E+03  0.17426173951E+03  0.12000000000E+03 0.  0.
<mgrwt>
<rscale>  0 0.27433198E+03</rscale>
<asrwt>0</asrwt>
<pdfrwt beam="1">  1        2 0.31372276E-01 0.27433198E+03</pdfrwt>
<pdfrwt beam="2">  1       -2 0.14194501E-01 0.27433198E+03</pdfrwt>
<totfact> 0.62134011E+03</totfact>
</mgrwt>
</event>
<event>
 5    1  0.1111501E+001  0.2749544E+03  0.7818608E-02  0.1098477E+00
         -2   -1    0    0    0  501 -0.00000000000E+00  0.00000000000E+00  0.50425894569E+02  0.50425894569E+02  0.00000000000E+00 0. -1.
          2   -1    0    0  501    0  0.00000000000E+00 -0.00000000000E+00 -0.37480693215E+03  0.37480693215E+03  0.00000000000E+00 0. -1.
         35    2    1    2    0    0  0.00000000000E+00  0.00000000000E+00 -0.32438103758E+03  0.42523282672E+03  0.27495435872E+03 0.  0.
         25    1    3    3    0    0 -0.30468015512E+02 -0.59515649016E+02 -0.17059935702E+03  0.21903094088E+03  0.12000000000E+03 0.  0.
         25    1    3    3    0    0  0.30468015512E+02  0.59515649016E+02 -0.15378168056E+03  0.20620188583E+03  0.12000000000E+03 0.  0.
<mgrwt>
<rscale>  0 0.27495436E+03</rscale>
<asrwt>0</asrwt>
<pdfrwt beam="1">  1        2 0.57662604E-01 0.27495436E+03</pdfrwt>
<pdfrwt beam="2">  1       -2 0.77578300E-02 0.27495436E+03</pdfrwt>
<totfact> 0.84494095E+03</totfact>
</mgrwt>
</event>
<event>
 5    1  0.1111501E+001  0.2714439E+03  0.7818608E-02  0.1100456E+00
         -4   -1    0    0    0  501 -0.00000000000E+00  0.00000000000E+00  0.26319011271E+03  0.26319011271E+03  0.00000000000E+00 0. -1.
          4   -1    0    0  501    0  0.00000000000E+00 -0.00000000000E+00 -0.69989131912E+02  0.69989131912E+02  0.00000000000E+00 0. -1.
         35    2    1    2    0    0  0.00000000000E+00  0.00000000000E+00  0.19320098080E+03  0.33317924463E+03  0.27144389856E+03 0.  0.
         25    1    3    3    0    0  0.51848794669E+02 -0.35452507481E+02  0.85951510468E+02  0.16041458770E+03  0.12000000000E+03 0.  0.
         25    1    3    3    0    0 -0.51848794669E+02  0.35452507481E+02  0.10724947033E+03  0.17276465692E+03  0.12000000000E+03 0.  0.
<mgrwt>
<rscale>  0 0.27144390E+03</rscale>
<asrwt>0</asrwt>
<pdfrwt beam="1">  1        4 0.10767559E-01 0.27144390E+03</pdfrwt>
<pdfrwt beam="2">  1       -4 0.40490786E-01 0.27144390E+03</pdfrwt>
<totfact> 0.74353571E+02</totfact>
</mgrwt>
</event>
<event>
 5    1  0.1111501E+001  0.2736852E+03  0.7818608E-02  0.1099189E+00
         -2   -1    0    0    0  501 -0.00000000000E+00  0.00000000000E+00  0.77616495154E+01  0.77616495154E+01  0.00000000000E+00 0.  1.
          2   -1    0    0  501    0  0.00000000000E+00 -0.00000000000E+00 -0.24126180916E+04  0.24126180916E+04  0.00000000000E+00 0.  1.
         35    2    1    2    0    0  0.00000000000E+00  0.00000000000E+00 -0.24048564421E+04  0.24203797411E+04  0.27368519172E+03 0.  0.
         25    1    3    3    0    0  0.65590078409E+02 -0.46997715255E+01 -0.11907298099E+04  0.11985664881E+04  0.12000000000E+03 0.  0.
         25    1    3    3    0    0 -0.65590078409E+02  0.46997715255E+01 -0.12141266322E+04  0.12218132530E+04  0.12000000000E+03 0.  0.
<mgrwt>
<rscale>  0 0.27368519E+03</rscale>
<asrwt>0</asrwt>
<pdfrwt beam="1">  1        2 0.37117198E+00 0.27368519E+03</pdfrwt>
<pdfrwt beam="2">  1       -2 0.11941000E-02 0.27368519E+03</pdfrwt>
<totfact> 0.73704533E+03</totfact>
</mgrwt>
</event>
<event>
 5    1  0.1111501E+001  0.2761666E+03  0.7818608E-02  0.1097801E+00
          3   -1    0    0  501    0  0.00000000000E+00  0.00000000000E+00  0.34748198782E+03  0.34748198782E+03  0.00000000000E+00 0. -1.
         -3   -1    0    0    0  501 -0.00000000000E+00 -0.00000000000E+00 -0.54871902317E+02  0.54871902317E+02  0.00000000000E+00 0. -1.
         35    2    1    2    0    0  0.00000000000E+00  0.00000000000E+00  0.29261008550E+03  0.40235389014E+03  0.27616659966E+03 0.  0.
         25    1    3    3    0    0  0.47091960492E+02  0.32594700026E+02  0.92046965670E+02  0.16171799869E+03  0.12000000000E+03 0.  0.
         25    1    3    3    0    0 -0.47091960492E+02 -0.32594700026E+02  0.20056311983E+03  0.24063589144E+03  0.12000000000E+03 0.  0.
<mgrwt>
<rscale>  0 0.27616660E+03</rscale>
<asrwt>0</asrwt>
<pdfrwt beam="1">  1        3 0.53458766E-01 0.27616660E+03</pdfrwt>
<pdfrwt beam="2">  1       -3 0.84418313E-02 0.27616660E+03</pdfrwt>
<totfact> 0.86715695E+02</totfact>
</mgrwt>
</event>
<event>
 5    1  0.1111501E+001  0.2748515E+03  0.7818608E-02  0.1098535E+00
         -1   -1    0    0    0  501 -0.00000000000E+00  0.00000000000E+00  0.59948457622E+02  0.59948457622E+02  0.00000000000E+00 0.  1.
          1   -1    0    0  501    0  0.00000000000E+00 -0.00000000000E+00 -0.31503467303E+03  0.31503467303E+03  0.00000000000E+00 0.  1.
         35    2    1    2    0    0  0.00000000000E+00  0.00000000000E+00 -0.25508621540E+03  0.37498313065E+03  0.27485154353E+03 0.  0.
         25    1    3    3    0    0 -0.19896479526E+02  0.38532224863E+02 -0.57906523449E+02  0.14012054706E+03  0.12000000000E+03 0.  0.
         25    1    3    3    0    0  0.19896479526E+02 -0.38532224863E+02 -0.19717969196E+03  0.23486258359E+03  0.12000000000E+03 0.  0.
<mgrwt>
<rscale>  0 0.27485154E+03</rscale>
<asrwt>0</asrwt>
<pdfrwt beam="1">  1        1 0.48466873E-01 0.27485154E+03</pdfrwt>
<pdfrwt beam="2">  1       -1 0.92228397E-02 0.27485154E+03</pdfrwt>
<totfact> 0.56535889E+03</totfact>
</mgrwt>
</event>
<event>
 5    1  0.1111501E+001  0.2736252E+03  0.7818608E-02  0.1099223E+00
         -2   -1    0    0    0  501 -0.00000000000E+00  0.00000000000E+00  0.10253399570E+02  0.10253399570E+02  0.00000000000E+00 0.  1.
          2   -1    0    0  501    0  0.00000000000E+00 -0.00000000000E+00 -0.18255109278E+04  0.18255109278E+04  0.00000000000E+00 0.  1.
         35    2    1    2    0    0  0.00000000000E+00  0.00000000000E+00 -0.18152575283E+04  0.18357643274E+04  0.27362523979E+03 0.  0.
         25    1    3    3    0    0  0.15206081144E+02  0.63854548516E+02 -0.92782811048E+03  0.93785586892E+03  0.12000000000E+03 0.  0.
         25    1    3    3    0    0 -0.15206081144E+02 -0.63854548516E+02 -0.88742941778E+03  0.89790845848E+03  0.12000000000E+03 0.  0.
<mgrwt>
<rscale>  0 0.27362524E+03</rscale>
<asrwt>0</asrwt>
<pdfrwt beam="1">  1        2 0.28084740E+00 0.27362524E+03</pdfrwt>
<pdfrwt beam="2">  1       -2 0.15774485E-02 0.27362524E+03</pdfrwt>
<totfact> 0.10055369E+04</totfact>
</mgrwt>
</event>
<event>
 5    1  0.1111501E+001  0.2748131E+03  0.7818608E-02  0.1098556E+00
         -1   -1    0    0    0  501 -0.00000000000E+00  0.00000000000E+00  0.52108396671E+02  0.52108396671E+02  0.00000000000E+00 0.  1.
          1   -1    0    0  501    0  0.00000000000E+00 -0.00000000000E+00 -0.36233240174E+03  0.36233240174E+03  0.00000000000E+00 0.  1.
         35    2    1    2    0    0  0.00000000000E+00  0.00000000000E+00 -0.31022400507E+03  0.41444079841E+03  0.27481310388E+03 0.  0.
         25    1    3    3    0    0  0.35742611709E+02  0.53404084788E+02 -0.12685688278E+03  0.18607041483E+03  0.12000000000E+03 0.  0.
         25    1    3    3    0    0 -0.35742611709E+02 -0.53404084788E+02 -0.18336712229E+03  0.22837038359E+03  0.12000000000E+03 0.  0.
<mgrwt>
<rscale>  0 0.27481310E+03</rscale>
<asrwt>0</asrwt>
<pdfrwt beam="1">  1        1 0.55743447E-01 0.27481310E+03</pdfrwt>
<pdfrwt beam="2">  1       -1 0.80166763E-02 0.27481310E+03</pdfrwt>
<totfact> 0.58717302E+03</totfact>
</mgrwt>
</event>
<event>
 5    1  0.1111501E+001  0.2746331E+03  0.7818608E-02  0.1098657E+00
          2   -1    0    0  501    0  0.00000000000E+00  0.00000000000E+00  0.20670027727E+04  0.20670027727E+04  0.00000000000E+00 0.  1.
         -2   -1    0    0    0  501 -0.00000000000E+00 -0.00000000000E+00 -0.91223075568E+01  0.91223075568E+01  0.00000000000E+00 0.  1.
         35    2    1    2    0    0  0.00000000000E+00  0.00000000000E+00  0.20578804651E+04  0.20761250802E+04  0.27463310079E+03 0.  0.
         25    1    3    3    0    0  0.23014697730E+01 -0.48035980876E+02  0.13789016033E+04  0.13849485131E+04  0.12000000000E+03 0.  0.
         25    1    3    3    0    0 -0.23014697730E+01  0.48035980876E+02  0.67897886180E+03  0.69117656716E+03  0.12000000000E+03 0.  0.
<mgrwt>
<rscale>  0 0.27463310E+03</rscale>
<asrwt>0</asrwt>
<pdfrwt beam="1">  1        2 0.31800005E+00 0.27463310E+03</pdfrwt>
<pdfrwt beam="2">  1       -2 0.14034336E-02 0.27463310E+03</pdfrwt>
<totfact> 0.89070464E+03</totfact>
</mgrwt>
</event>
<event>
 5    1  0.1111501E+001  0.2726936E+03  0.7818608E-02  0.1099748E+00
         -3   -1    0    0    0  501 -0.00000000000E+00  0.00000000000E+00  0.30100827080E+02  0.30100827080E+02  0.00000000000E+00 0.  1.
          3   -1    0    0  501    0  0.00000000000E+00 -0.00000000000E+00 -0.61760612073E+03  0.61760612073E+03  0.00000000000E+00 0.  1.
         35    2    1    2    0    0  0.00000000000E+00  0.00000000000E+00 -0.58750529365E+03  0.64770694781E+03  0.27269363794E+03 0.  0.
         25    1    3    3    0    0  0.59652191595E+02  0.11631422549E+02 -0.24081238580E+03  0.27583378892E+03  0.12000000000E+03 0.  0.
         25    1    3    3    0    0 -0.59652191595E+02 -0.11631422549E+02 -0.34669290784E+03  0.37187315889E+03  0.12000000000E+03 0.  0.
<mgrwt>
<rscale>  0 0.27269364E+03</rscale>
<asrwt>0</asrwt>
<pdfrwt beam="1">  1        3 0.95016322E-01 0.27269364E+03</pdfrwt>
<pdfrwt beam="2">  1       -3 0.46308967E-02 0.27269364E+03</pdfrwt>
<totfact> 0.66535806E+02</totfact>
</mgrwt>
</event>
<event>
 5    1  0.1111501E+001  0.2733127E+03  0.7818608E-02  0.1099399E+00
          1   -1    0    0  501    0  0.00000000000E+00  0.00000000000E+00  0.24995794123E+04  0.24995794123E+04  0.00000000000E+00 0. -1.
         -1   -1    0    0    0  501 -0.00000000000E+00 -0.00000000000E+00 -0.74712385918E+01  0.74712385918E+01  0.00000000000E+00 0. -1.
         35    2    1    2    0    0  0.00000000000E+00  0.00000000000E+00  0.24921081737E+04  0.25070506509E+04  0.27331267200E+03 0.  0.
         25    1    3    3    0    0 -0.56532759252E+02  0.32321843695E+02  0.12997756483E+04  0.13069266966E+04  0.12000000000E+03 0.  0.
         25    1    3    3    0    0  0.56532759252E+02 -0.32321843695E+02  0.11923325254E+04  0.12001239543E+04  0.12000000000E+03 0.  0.
<mgrwt>
<rscale>  0 0.27331267E+03</rscale>
<asrwt>0</asrwt>
<pdfrwt beam="1">  1        1 0.38455001E+00 0.27331267E+03</pdfrwt>
<pdfrwt beam="2">  1       -1 0.11494233E-02 0.27331267E+03</pdfrwt>
<totfact> 0.24392828E+03</totfact>
</mgrwt>
</event>
<event>
 5    1  0.1111501E+001  0.2750711E+03  0.7818608E-02  0.1098412E+00
          2   -1    0    0  501    0  0.00000000000E+00  0.00000000000E+00  0.10073003803E+04  0.10073003803E+04  0.00000000000E+00 0. -1.
         -2   -1    0    0    0  501 -0.00000000000E+00 -0.00000000000E+00 -0.18778940003E+02  0.18778940003E+02  0.00000000000E+00 0. -1.
         35    2    1    2    0    0  0.00000000000E+00  0.00000000000E+00  0.98852144028E+03  0.10260793203E+04  0.27507114285E+03 0.  0.
         25    1    3    3    0    0 -0.45296451137E+02  0.77027079306E+01  0.31132967611E+03  0.33680449436E+03  0.12000000000E+03 0.  0.
         25    1    3    3    0    0  0.45296451137E+02 -0.77027079306E+01  0.67719176417E+03  0.68927482592E+03  0.12000000000E+03 0.  0.
<mgrwt>
<rscale>  0 0.27507114E+03</rscale>
<asrwt>0</asrwt>
<pdfrwt beam="1">  1        2 0.15496925E+00 0.27507114E+03</pdfrwt>
<pdfrwt beam="2">  1       -2 0.28890685E-02 0.27507114E+03</pdfrwt>
<totfact> 0.11615321E+04</totfact>
</mgrwt>
</event>
<event>
 5    1  0.1111501E+001  0.2752967E+03  0.7818608E-02  0.1098286E+00
         -1   -1    0    0    0  501 -0.00000000000E+00  0.00000000000E+00  0.14418686512E+04  0.14418686512E+04  0.00000000000E+00 0. -1.
          1   -1    0    0  501    0  0.00000000000E+00 -0.00000000000E+00 -0.13140632110E+02  0.13140632110E+02  0.00000000000E+00 0. -1.
         35    2    1    2    0    0  0.00000000000E+00  0.00000000000E+00  0.14287280191E+04  0.14550092833E+04  0.27529667994E+03 0.  0.
         25    1    3    3    0    0 -0.10217631634E+02  0.28745545612E+02  0.10321981645E+04  0.10395978824E+04  0.12000000000E+03 0.  0.
         25    1    3    3    0    0  0.10217631634E+02 -0.28745545612E+02  0.39652985466E+03  0.41541140093E+03  0.12000000000E+03 0.  0.
<mgrwt>
<rscale>  0 0.27529668E+03</rscale>
<asrwt>0</asrwt>
<pdfrwt beam="1">  1        1 0.20216368E-02 0.27529668E+03</pdfrwt>
<pdfrwt beam="2">  1       -1 0.22182582E+00 0.27529668E+03</pdfrwt>
<totfact> 0.71493438E+02</totfact>
</mgrwt>
</event>
<event>
 5    1  0.1111501E+001  0.2744906E+03  0.7818608E-02  0.1098737E+00
         -1   -1    0    0    0  501 -0.00000000000E+00  0.00000000000E+00  0.90905654584E+02  0.90905654584E+02  0.00000000000E+00 0. -1.
          1   -1    0    0  501    0  0.00000000000E+00 -0.00000000000E+00 -0.20720682322E+03  0.20720682322E+03  0.00000000000E+00 0. -1.
         35    2    1    2    0    0  0.00000000000E+00  0.00000000000E+00 -0.11630116864E+03  0.29811247781E+03  0.27449059656E+03 0.  0.
         25    1    3    3    0    0  0.12237828081E+01 -0.13186442021E+02  0.12742349008E+02  0.12139912420E+03  0.12000000000E+03 0.  0.
         25    1    3    3    0    0 -0.12237828081E+01  0.13186442021E+02 -0.12904351765E+03  0.17671335361E+03  0.12000000000E+03 0.  0.
<mgrwt>
<rscale>  0 0.27449060E+03</rscale>
<asrwt>0</asrwt>
<pdfrwt beam="1">  1        1 0.31877973E-01 0.27449060E+03</pdfrwt>
<pdfrwt beam="2">  1       -1 0.13985485E-01 0.27449060E+03</pdfrwt>
<totfact> 0.50040582E+03</totfact>
</mgrwt>
</event>
<event>
 5    1  0.1111501E+001  0.2750843E+03  0.7818608E-02  0.1098404E+00
          1   -1    0    0  501    0  0.00000000000E+00  0.00000000000E+00  0.78336688655E+03  0.78336688655E+03  0.00000000000E+00 0.  1.
         -1   -1    0    0    0  501 -0.00000000000E+00 -0.00000000000E+00 -0.24149400035E+02  0.24149400035E+02  0.00000000000E+00 0.  1.
         35    2    1    2    0    0  0.00000000000E+00  0.00000000000E+00  0.75921748651E+03  0.80751628658E+03  0.27508428030E+03 0.  0.
         25    1    3    3    0    0 -0.29224991821E+02  0.58843211018E+02  0.42124939464E+03  0.44290820280E+03  0.12000000000E+03 0.  0.
         25    1    3    3    0    0  0.29224991821E+02 -0.58843211018E+02  0.33796809188E+03  0.36460808378E+03  0.12000000000E+03 0.  0.
<mgrwt>
<rscale>  0 0.27508428E+03</rscale>
<asrwt>0</asrwt>
<pdfrwt beam="1">  1        1 0.12051796E+00 0.27508428E+03</pdfrwt>
<pdfrwt beam="2">  1       -1 0.37152929E-02 0.27508428E+03</pdfrwt>
<totfact> 0.65217951E+03</totfact>
</mgrwt>
</event>
<event>
 5    1  0.1111501E+001  0.2738228E+03  0.7818608E-02  0.1099111E+00
         -2   -1    0    0    0  501 -0.00000000000E+00  0.00000000000E+00  0.63699982074E+02  0.63699982074E+02  0.00000000000E+00 0.  1.
          2   -1    0    0  501    0  0.00000000000E+00 -0.00000000000E+00 -0.29426579784E+03  0.29426579784E+03  0.00000000000E+00 0.  1.
         35    2    1    2    0    0  0.00000000000E+00  0.00000000000E+00 -0.23056581576E+03  0.35796577991E+03  0.27382276054E+03 0.  0.
         25    1    3    3    0    0 -0.24129761007E+01  0.65400992956E+02 -0.12554440344E+03  0.18559232088E+03  0.12000000000E+03 0.  0.
         25    1    3    3    0    0  0.24129761007E+01 -0.65400992956E+02 -0.10502141232E+03  0.17237345903E+03  0.12000000000E+03 0.  0.
<mgrwt>
<rscale>  0 0.27382276E+03</rscale>
<asrwt>0</asrwt>
<pdfrwt beam="1">  1        2 0.45271661E-01 0.27382276E+03</pdfrwt>
<pdfrwt beam="2">  1       -2 0.97999972E-02 0.27382276E+03</pdfrwt>
<totfact> 0.75933699E+03</totfact>
</mgrwt>
</event>
<event>
 5    1  0.1111501E+001  0.2750571E+03  0.7818608E-02  0.1098420E+00
         -1   -1    0    0    0  501 -0.00000000000E+00  0.00000000000E+00  0.10984052506E+02  0.10984052506E+02  0.00000000000E+00 0. -1.
          1   -1    0    0  501    0  0.00000000000E+00 -0.00000000000E+00 -0.17219597048E+04  0.17219597048E+04  0.00000000000E+00 0. -1.
         35    2    1    2    0    0  0.00000000000E+00  0.00000000000E+00 -0.17109756523E+04  0.17329437574E+04  0.27505705453E+03 0.  0.
         25    1    3    3    0    0  0.94811230001E+00 -0.50073395649E+02 -0.57331764522E+03  0.58787870023E+03  0.12000000000E+03 0.  0.
         25    1    3    3    0    0 -0.94811230001E+00  0.50073395649E+02 -0.11376580071E+04  0.11450650571E+04  0.12000000000E+03 0.  0.
<mgrwt>
<rscale>  0 0.27505705E+03</rscale>
<asrwt>0</asrwt>
<pdfrwt beam="1">  1        1 0.26491688E+00 0.27505705E+03</pdfrwt>
<pdfrwt beam="2">  1       -1 0.16898542E-02 0.27505705E+03</pdfrwt>
<totfact> 0.44871572E+03</totfact>
</mgrwt>
</event>
<event>
 5    1  0.1111501E+001  0.2744581E+03  0.7818608E-02  0.1098755E+00
         -1   -1    0    0    0  501 -0.00000000000E+00  0.00000000000E+00  0.12744159850E+02  0.12744159850E+02  0.00000000000E+00 0.  1.
          1   -1    0    0  501    0  0.00000000000E+00 -0.00000000000E+00 -0.14776815657E+04  0.14776815657E+04  0.00000000000E+00 0.  1.
         35    2    1    2    0    0  0.00000000000E+00  0.00000000000E+00 -0.14649374059E+04  0.14904257256E+04  0.27445808482E+03 0.  0.
         25    1    3    3    0    0 -0.50217969860E+02  0.77541852076E+01 -0.49890724321E+03  0.51564562368E+03  0.12000000000E+03 0.  0.
         25    1    3    3    0    0  0.50217969860E+02 -0.77541852076E+01 -0.96603016268E+03  0.97478010191E+03  0.12000000000E+03 0.  0.
<mgrwt>
<rscale>  0 0.27445808E+03</rscale>
<asrwt>0</asrwt>
<pdfrwt beam="1">  1        1 0.22733553E+00 0.27445808E+03</pdfrwt>
<pdfrwt beam="2">  1       -1 0.19606408E-02 0.27445808E+03</pdfrwt>
<totfact> 0.52273308E+03</totfact>
</mgrwt>
</event>
<event>
 5    1  0.1111501E+001  0.2752000E+03  0.7818608E-02  0.1098340E+00
         -3   -1    0    0    0  501 -0.00000000000E+00  0.00000000000E+00  0.56376577015E+01  0.56376577015E+01  0.00000000000E+00 0.  1.
          3   -1    0    0  501    0  0.00000000000E+00 -0.00000000000E+00 -0.33584437243E+04  0.33584437243E+04  0.00000000000E+00 0.  1.
         35    2    1    2    0    0  0.00000000000E+00  0.00000000000E+00 -0.33528060666E+04  0.33640813820E+04  0.27519997185E+03 0.  0.
         25    1    3    3    0    0 -0.42386667848E+01 -0.53468043560E+02 -0.11788104735E+04  0.11861159009E+04  0.12000000000E+03 0.  0.
         25    1    3    3    0    0  0.42386667848E+01  0.53468043560E+02 -0.21739955930E+04  0.21779654810E+04  0.12000000000E+03 0.  0.
<mgrwt>
<rscale>  0 0.27519997E+03</rscale>
<asrwt>0</asrwt>
<pdfrwt beam="1">  1        3 0.51668382E+00 0.27519997E+03</pdfrwt>
<pdfrwt beam="2">  1       -3 0.86733166E-03 0.27519997E+03</pdfrwt>
<totfact> 0.30551732E+01</totfact>
</mgrwt>
</event>
<event>
 5    1  0.1111501E+001  0.2741983E+03  0.7818608E-02  0.1098901E+00
          1   -1    0    0  501    0  0.00000000000E+00  0.00000000000E+00  0.65051083757E+03  0.65051083757E+03  0.00000000000E+00 0. -1.
         -1   -1    0    0    0  501 -0.00000000000E+00 -0.00000000000E+00 -0.28894486694E+02  0.28894486694E+02  0.00000000000E+00 0. -1.
         35    2    1    2    0    0  0.00000000000E+00  0.00000000000E+00  0.62161635088E+03  0.67940532426E+03  0.27419829861E+03 0.  0.
         25    1    3    3    0    0  0.45448010707E+02 -0.31965099231E+02  0.22116538862E+03  0.25768472669E+03  0.12000000000E+03 0.  0.
         25    1    3    3    0    0 -0.45448010707E+02  0.31965099231E+02  0.40045096226E+03  0.42172059757E+03  0.12000000000E+03 0.  0.
<mgrwt>
<rscale>  0 0.27419830E+03</rscale>
<asrwt>0</asrwt>
<pdfrwt beam="1">  1        1 0.10007858E+00 0.27419830E+03</pdfrwt>
<pdfrwt beam="2">  1       -1 0.44453061E-02 0.27419830E+03</pdfrwt>
<totfact> 0.65640228E+03</totfact>
</mgrwt>
</event>
<event>
 5    1  0.1111501E+001  0.2742175E+03  0.7818608E-02  0.1098890E+00
          2   -1    0    0  501    0  0.00000000000E+00  0.00000000000E+00  0.11976895046E+04  0.11976895046E+04  0.00000000000E+00 0. -1.
         -2   -1    0    0    0  501 -0.00000000000E+00 -0.00000000000E+00 -0.15695891272E+02  0.15695891272E+02  0.00000000000E+00 0. -1.
         35    2    1    2    0    0  0.00000000000E+00  0.00000000000E+00  0.11819936134E+04  0.12133853959E+04  0.27421746292E+03 0.  0.
         25    1    3    3    0    0 -0.44921716727E+02  0.30762019757E+02  0.75859149539E+03  0.76995150456E+03  0.12000000000E+03 0.  0.
         25    1    3    3    0    0  0.44921716727E+02 -0.30762019757E+02  0.42340211797E+03  0.44343389134E+03  0.12000000000E+03 0.  0.
<mgrwt>
<rscale>  0 0.27421746E+03</rscale>
<asrwt>0</asrwt>
<pdfrwt beam="1">  1        2 0.18425985E+00 0.27421746E+03</pdfrwt>
<pdfrwt beam="2">  1       -2 0.24147535E-02 0.27421746E+03</pdfrwt>
<totfact> 0.11709605E+04</totfact>
</mgrwt>
</event>
<event>
 5    1  0.1111501E+001  0.2778226E+03  0.7818608E-02  0.1096884E+00
          1   -1    0    0  501    0  0.00000000000E+00  0.00000000000E+00  0.47523132399E+03  0.47523132399E+03  0.00000000000E+00 0. -1.
         -1   -1    0    0    0  501 -0.00000000000E+00 -0.00000000000E+00 -0.40604131932E+02  0.40604131932E+02  0.00000000000E+00 0. -1.
         35    2    1    2    0    0  0.00000000000E+00  0.00000000000E+00  0.43462719206E+03  0.51583545593E+03  0.27782264398E+03 0.  0.
         25    1    3    3    0    0 -0.49070936093E+02 -0.29202374797E+02  0.14222313948E+03  0.19464880392E+03  0.12000000000E+03 0.  0.
         25    1    3    3    0    0  0.49070936093E+02  0.29202374797E+02  0.29240405258E+03  0.32118665201E+03  0.12000000000E+03 0.  0.
<mgrwt>
<rscale>  0 0.27782264E+03</rscale>
<asrwt>0</asrwt>
<pdfrwt beam="1">  1        1 0.73112508E-01 0.27782264E+03</pdfrwt>
<pdfrwt beam="2">  1       -1 0.62467899E-02 0.27782264E+03</pdfrwt>
<totfact> 0.60463341E+03</totfact>
</mgrwt>
</event>
<event>
 5    1  0.1111501E+001  0.2743102E+03  0.7818608E-02  0.1098838E+00
          2   -1    0    0  501    0  0.00000000000E+00  0.00000000000E+00  0.33570151194E+03  0.33570151194E+03  0.00000000000E+00 0. -1.
         -2   -1    0    0    0  501 -0.00000000000E+00 -0.00000000000E+00 -0.56036450701E+02  0.56036450701E+02  0.00000000000E+00 0. -1.
         35    2    1    2    0    0  0.00000000000E+00  0.00000000000E+00  0.27966506124E+03  0.39173796264E+03  0.27431019831E+03 0.  0.
         25    1    3    3    0    0  0.57405363050E+02 -0.11312741330E+02  0.94940529249E+02  0.16382019997E+03  0.12000000000E+03 0.  0.
         25    1    3    3    0    0 -0.57405363050E+02  0.11312741330E+02  0.18472453199E+03  0.22791776268E+03  0.12000000000E+03 0.  0.
<mgrwt>
<rscale>  0 0.27431020E+03</rscale>
<asrwt>0</asrwt>
<pdfrwt beam="1">  1        2 0.51646385E-01 0.27431020E+03</pdfrwt>
<pdfrwt beam="2">  1       -2 0.86209926E-02 0.27431020E+03</pdfrwt>
<totfact> 0.80683352E+03</totfact>
</mgrwt>
</event>
<event>
 5    1  0.1111501E+001  0.2755393E+03  0.7818608E-02  0.1098151E+00
          2   -1    0    0  501    0  0.00000000000E+00  0.00000000000E+00  0.78910548266E+03  0.78910548266E+03  0.00000000000E+00 0.  1.
         -2   -1    0    0    0  501 -0.00000000000E+00 -0.00000000000E+00 -0.24053151146E+02  0.24053151146E+02  0.00000000000E+00 0.  1.
         35    2    1    2    0    0  0.00000000000E+00  0.00000000000E+00  0.76505233151E+03  0.81315863381E+03  0.27553927810E+03 0.  0.
         25    1    3    3    0    0  0.38906079260E+02 -0.47171580283E+02  0.29691054727E+03  0.32602870129E+03  0.12000000000E+03 0.  0.
         25    1    3    3    0    0 -0.38906079260E+02  0.47171580283E+02  0.46814178425E+03  0.48712993251E+03  0.12000000000E+03 0.  0.
<mgrwt>
<rscale>  0 0.27553928E+03</rscale>
<asrwt>0</asrwt>
<pdfrwt beam="1">  1        2 0.12140082E+00 0.27553928E+03</pdfrwt>
<pdfrwt beam="2">  1       -2 0.37004854E-02 0.27553928E+03</pdfrwt>
<totfact> 0.11122176E+04</totfact>
</mgrwt>
</event>
<event>
 5    1  0.1111501E+001  0.2751723E+03  0.7818608E-02  0.1098355E+00
         -1   -1    0    0    0  501 -0.00000000000E+00  0.00000000000E+00  0.61829137897E+03  0.61829137897E+03  0.00000000000E+00 0.  1.
          1   -1    0    0  501    0  0.00000000000E+00 -0.00000000000E+00 -0.30616548399E+02  0.30616548399E+02  0.00000000000E+00 0.  1.
         35    2    1    2    0    0  0.00000000000E+00  0.00000000000E+00  0.58767483057E+03  0.64890792737E+03  0.27517229460E+03 0.  0.
         25    1    3    3    0    0 -0.58567297819E+02  0.78158925021E+01  0.21783454391E+03  0.25562297446E+03  0.12000000000E+03 0.  0.
         25    1    3    3    0    0  0.58567297819E+02 -0.78158925021E+01  0.36984028666E+03  0.39328495291E+03  0.12000000000E+03 0.  0.
<mgrwt>
<rscale>  0 0.27517229E+03</rscale>
<asrwt>0</asrwt>
<pdfrwt beam="1">  1        1 0.47102387E-02 0.27517229E+03</pdfrwt>
<pdfrwt beam="2">  1       -1 0.95121742E-01 0.27517229E+03</pdfrwt>
<totfact> 0.20348725E+03</totfact>
</mgrwt>
</event>
<event>
 5    1  0.1111501E+001  0.2750645E+03  0.7818608E-02  0.1098416E+00
         -2   -1    0    0    0  501 -0.00000000000E+00  0.00000000000E+00  0.22534448060E+02  0.22534448060E+02  0.00000000000E+00 0.  1.
          2   -1    0    0  501    0  0.00000000000E+00 -0.00000000000E+00 -0.83938670975E+03  0.83938670975E+03  0.00000000000E+00 0.  1.
         35    2    1    2    0    0  0.00000000000E+00  0.00000000000E+00 -0.81685226169E+03  0.86192115781E+03  0.27506447399E+03 0.  0.
         25    1    3    3    0    0 -0.55954657569E+02  0.37100544249E+02 -0.41714505995E+03  0.43922360493E+03  0.12000000000E+03 0.  0.
         25    1    3    3    0    0  0.55954657569E+02 -0.37100544249E+02 -0.39970720174E+03  0.42269755288E+03  0.12000000000E+03 0.  0.
<mgrwt>
<rscale>  0 0.27506447E+03</rscale>
<asrwt>0</asrwt>
<pdfrwt beam="1">  1        2 0.12913642E+00 0.27506447E+03</pdfrwt>
<pdfrwt beam="2">  1       -2 0.34668381E-02 0.27506447E+03</pdfrwt>
<totfact> 0.11329141E+04</totfact>
</mgrwt>
</event>
<event>
 5    1  0.1111501E+001  0.2744517E+03  0.7818608E-02  0.1098758E+00
          1   -1    0    0  501    0  0.00000000000E+00  0.00000000000E+00  0.23058788803E+02  0.23058788803E+02  0.00000000000E+00 0.  1.
         -1   -1    0    0    0  501 -0.00000000000E+00 -0.00000000000E+00 -0.81664910122E+03  0.81664910122E+03  0.00000000000E+00 0.  1.
         35    2    1    2    0    0  0.00000000000E+00  0.00000000000E+00 -0.79359031241E+03  0.83970789002E+03  0.27445173820E+03 0.  0.
         25    1    3    3    0    0  0.16523374658E+01  0.27036872474E+02 -0.21075800220E+03  0.24403413323E+03  0.12000000000E+03 0.  0.
         25    1    3    3    0    0 -0.16523374658E+01 -0.27036872474E+02 -0.58283231022E+03  0.59567375679E+03  0.12000000000E+03 0.  0.
<mgrwt>
<rscale>  0 0.27445174E+03</rscale>
<asrwt>0</asrwt>
<pdfrwt beam="1">  1        1 0.35475065E-02 0.27445174E+03</pdfrwt>
<pdfrwt beam="2">  1       -1 0.12563830E+00 0.27445174E+03</pdfrwt>
<totfact> 0.15921463E+03</totfact>
</mgrwt>
</event>
<event>
 5    1  0.1111501E+001  0.2754003E+03  0.7818608E-02  0.1098228E+00
         -2   -1    0    0    0  501 -0.00000000000E+00  0.00000000000E+00  0.25658227470E+02  0.25658227470E+02  0.00000000000E+00 0.  1.
          2   -1    0    0  501    0  0.00000000000E+00 -0.00000000000E+00 -0.73899593281E+03  0.73899593281E+03  0.00000000000E+00 0.  1.
         35    2    1    2    0    0  0.00000000000E+00  0.00000000000E+00 -0.71333770534E+03  0.76465416028E+03  0.27540025958E+03 0.  0.
         25    1    3    3    0    0  0.63474564865E+02  0.15532155149E+02 -0.40403740578E+03  0.42651669779E+03  0.12000000000E+03 0.  0.
         25    1    3    3    0    0 -0.63474564865E+02 -0.15532155149E+02 -0.30930029956E+03  0.33813746249E+03  0.12000000000E+03 0.  0.
<mgrwt>
<rscale>  0 0.27540026E+03</rscale>
<asrwt>0</asrwt>
<pdfrwt beam="1">  1        2 0.11369166E+00 0.27540026E+03</pdfrwt>
<pdfrwt beam="2">  1       -2 0.39474202E-02 0.27540026E+03</pdfrwt>
<totfact> 0.10957056E+04</totfact>
</mgrwt>
</event>
<event>
 5    1  0.1111501E+001  0.2751271E+03  0.7818608E-02  0.1098381E+00
         -2   -1    0    0    0  501 -0.00000000000E+00  0.00000000000E+00  0.20237025320E+02  0.20237025320E+02  0.00000000000E+00 0.  1.
          2   -1    0    0  501    0  0.00000000000E+00 -0.00000000000E+00 -0.93510430640E+03  0.93510430640E+03  0.00000000000E+00 0.  1.
         35    2    1    2    0    0  0.00000000000E+00  0.00000000000E+00 -0.91486728108E+03  0.95534133172E+03  0.27512709445E+03 0.  0.
         25    1    3    3    0    0  0.14707149721E+02 -0.44479822198E+02 -0.28985927256E+03  0.31719576404E+03  0.12000000000E+03 0.  0.
         25    1    3    3    0    0 -0.14707149721E+02  0.44479822198E+02 -0.62500800852E+03  0.63814556768E+03  0.12000000000E+03 0.  0.
<mgrwt>
<rscale>  0 0.27512709E+03</rscale>
<asrwt>0</asrwt>
<pdfrwt beam="1">  1        2 0.14386225E+00 0.27512709E+03</pdfrwt>
<pdfrwt beam="2">  1       -2 0.31133875E-02 0.27512709E+03</pdfrwt>
<totfact> 0.11522985E+04</totfact>
</mgrwt>
</event>
<event>
 5    1  0.1111501E+001  0.2746810E+03  0.7818608E-02  0.1098630E+00
         -2   -1    0    0    0  501 -0.00000000000E+00  0.00000000000E+00  0.14886147711E+03  0.14886147711E+03  0.00000000000E+00 0. -1.
          2   -1    0    0  501    0  0.00000000000E+00 -0.00000000000E+00 -0.12671115451E+03  0.12671115451E+03  0.00000000000E+00 0. -1.
         35    2    1    2    0    0  0.00000000000E+00  0.00000000000E+00  0.22150322599E+02  0.27557263161E+03  0.27468097587E+03 0.  0.
         25    1    3    3    0    0 -0.23005497235E+01 -0.63974114653E+02  0.30227173692E+02  0.13932574028E+03  0.12000000000E+03 0.  0.
         25    1    3    3    0    0  0.23005497235E+01  0.63974114653E+02 -0.80768510926E+01  0.13624689133E+03  0.12000000000E+03 0.  0.
<mgrwt>
<rscale>  0 0.27468098E+03</rscale>
<asrwt>0</asrwt>
<pdfrwt beam="1">  1        2 0.19494024E-01 0.27468098E+03</pdfrwt>
<pdfrwt beam="2">  1       -2 0.22901766E-01 0.27468098E+03</pdfrwt>
<totfact> 0.47173527E+03</totfact>
</mgrwt>
</event>
<event>
 5    1  0.1111501E+001  0.2751172E+03  0.7818608E-02  0.1098386E+00
         -4   -1    0    0    0  501 -0.00000000000E+00  0.00000000000E+00  0.41223633684E+03  0.41223633684E+03  0.00000000000E+00 0. -1.
          4   -1    0    0  501    0  0.00000000000E+00 -0.00000000000E+00 -0.45901760433E+02  0.45901760433E+02  0.00000000000E+00 0. -1.
         35    2    1    2    0    0  0.00000000000E+00  0.00000000000E+00  0.36633457641E+03  0.45813809727E+03  0.27511723738E+03 0.  0.
         25    1    3    3    0    0 -0.21258707019E+02  0.63323872942E+02  0.17021170380E+03  0.21870955539E+03  0.12000000000E+03 0.  0.
         25    1    3    3    0    0  0.21258707019E+02 -0.63323872942E+02  0.19612287260E+03  0.23942854188E+03  0.12000000000E+03 0.  0.
<mgrwt>
<rscale>  0 0.27511724E+03</rscale>
<asrwt>0</asrwt>
<pdfrwt beam="1">  1        4 0.70618096E-02 0.27511724E+03</pdfrwt>
<pdfrwt beam="2">  1       -4 0.63420972E-01 0.27511724E+03</pdfrwt>
<totfact> 0.60014624E+02</totfact>
</mgrwt>
</event>
<event>
 5    1  0.1111501E+001  0.2748334E+03  0.7818608E-02  0.1098545E+00
          2   -1    0    0  501    0  0.00000000000E+00  0.00000000000E+00  0.16901848258E+04  0.16901848258E+04  0.00000000000E+00 0.  1.
         -2   -1    0    0    0  501 -0.00000000000E+00 -0.00000000000E+00 -0.11172359935E+02  0.11172359935E+02  0.00000000000E+00 0.  1.
         35    2    1    2    0    0  0.00000000000E+00  0.00000000000E+00  0.16790124659E+04  0.17013571857E+04  0.27483342760E+03 0.  0.
         25    1    3    3    0    0 -0.62836974336E+02  0.16808412350E+02  0.93784470057E+03  0.94772553540E+03  0.12000000000E+03 0.  0.
         25    1    3    3    0    0  0.62836974336E+02 -0.16808412350E+02  0.74116776530E+03  0.75363165034E+03  0.12000000000E+03 0.  0.
<mgrwt>
<rscale>  0 0.27483343E+03</rscale>
<asrwt>0</asrwt>
<pdfrwt beam="1">  1        2 0.26002823E+00 0.27483343E+03</pdfrwt>
<pdfrwt beam="2">  1       -2 0.17188259E-02 0.27483343E+03</pdfrwt>
<totfact> 0.10445653E+04</totfact>
</mgrwt>
</event>
<event>
 5    1  0.1111501E+001  0.2740595E+03  0.7818608E-02  0.1098978E+00
          2   -1    0    0  501    0  0.00000000000E+00  0.00000000000E+00  0.16891679710E+03  0.16891679710E+03  0.00000000000E+00 0.  1.
         -2   -1    0    0    0  501 -0.00000000000E+00 -0.00000000000E+00 -0.11116217409E+03  0.11116217409E+03  0.00000000000E+00 0.  1.
         35    2    1    2    0    0  0.00000000000E+00  0.00000000000E+00  0.57754623010E+02  0.28007897119E+03  0.27405954394E+03 0.  0.
         25    1    3    3    0    0  0.19789761900E+02 -0.34277103562E+02 -0.25302238572E+02  0.12886720988E+03  0.12000000000E+03 0.  0.
         25    1    3    3    0    0 -0.19789761900E+02  0.34277103562E+02  0.83056861582E+02  0.15121176132E+03  0.12000000000E+03 0.  0.
<mgrwt>
<rscale>  0 0.27405954E+03</rscale>
<asrwt>0</asrwt>
<pdfrwt beam="1">  1        2 0.25987200E-01 0.27405954E+03</pdfrwt>
<pdfrwt beam="2">  1       -2 0.17101873E-01 0.27405954E+03</pdfrwt>
<totfact> 0.56134484E+03</totfact>
</mgrwt>
</event>
<event>
 5    1  0.1111501E+001  0.2747260E+03  0.7818608E-02  0.1098605E+00
          2   -1    0    0  501    0  0.00000000000E+00  0.00000000000E+00  0.63015383524E+03  0.63015383524E+03  0.00000000000E+00 0.  1.
         -2   -1    0    0    0  501 -0.00000000000E+00 -0.00000000000E+00 -0.29942843434E+02  0.29942843434E+02  0.00000000000E+00 0.  1.
         35    2    1    2    0    0  0.00000000000E+00  0.00000000000E+00  0.60021099180E+03  0.66009667867E+03  0.27472602809E+03 0.  0.
         25    1    3    3    0    0  0.18871892688E+01  0.63751953722E+02  0.34820390482E+03  0.37378313555E+03  0.12000000000E+03 0.  0.
         25    1    3    3    0    0 -0.18871892688E+01 -0.63751953722E+02  0.25200708698E+03  0.28631354312E+03  0.12000000000E+03 0.  0.
<mgrwt>
<rscale>  0 0.27472603E+03</rscale>
<asrwt>0</asrwt>
<pdfrwt beam="1">  1        2 0.96946734E-01 0.27472603E+03</pdfrwt>
<pdfrwt beam="2">  1       -2 0.46065918E-02 0.27472603E+03</pdfrwt>
<totfact> 0.10515763E+04</totfact>
</mgrwt>
</event>
<event>
 5    1  0.1111501E+001  0.2743327E+03  0.7818608E-02  0.1098825E+00
          3   -1    0    0  501    0  0.00000000000E+00  0.00000000000E+00  0.46871823158E+03  0.46871823158E+03  0.00000000000E+00 0. -1.
         -3   -1    0    0    0  501 -0.00000000000E+00 -0.00000000000E+00 -0.40140562714E+02  0.40140562714E+02  0.00000000000E+00 0. -1.
         35    2    1    2    0    0  0.00000000000E+00  0.00000000000E+00  0.42857766887E+03  0.50885879430E+03  0.27433274373E+03 0.  0.
         25    1    3    3    0    0 -0.31308347369E+02  0.22709445651E+01  0.32291108990E+03  0.34591464523E+03  0.12000000000E+03 0.  0.
         25    1    3    3    0    0  0.31308347369E+02 -0.22709445651E+01  0.10566657897E+03  0.16294414907E+03  0.12000000000E+03 0.  0.
<mgrwt>
<rscale>  0 0.27433274E+03</rscale>
<asrwt>0</asrwt>
<pdfrwt beam="1">  1        3 0.72110493E-01 0.27433274E+03</pdfrwt>
<pdfrwt beam="2">  1       -3 0.61754715E-02 0.27433274E+03</pdfrwt>
<totfact> 0.77152064E+02</totfact>
</mgrwt>
</event>
<event>
 5    1  0.1111501E+001  0.2757444E+03  0.7818608E-02  0.1098036E+00
         -2   -1    0    0    0  501 -0.00000000000E+00  0.00000000000E+00  0.13081055988E+02  0.13081055988E+02  0.00000000000E+00 0. -1.
          2   -1    0    0  501    0  0.00000000000E+00 -0.00000000000E+00 -0.14531510340E+04  0.14531510340E+04  0.00000000000E+00 0. -1.
         35    2    1    2    0    0  0.00000000000E+00  0.00000000000E+00 -0.14400699780E+04  0.14662320900E+04  0.27574444716E+03 0.  0.
         25    1    3    3    0    0 -0.21795775143E+02 -0.25499580458E+02 -0.40619974850E+03  0.42488059511E+03  0.12000000000E+03 0.  0.
         25    1    3    3    0    0  0.21795775143E+02  0.25499580458E+02 -0.10338702295E+04  0.10413514949E+04  0.12000000000E+03 0.  0.
<mgrwt>
<rscale>  0 0.27574445E+03</rscale>
<asrwt>0</asrwt>
<pdfrwt beam="1">  1        2 0.22356164E+00 0.27574445E+03</pdfrwt>
<pdfrwt beam="2">  1       -2 0.20124707E-02 0.27574445E+03</pdfrwt>
<totfact> 0.11076252E+04</totfact>
</mgrwt>
</event>
<event>
 5    1  0.1111501E+001  0.2750122E+03  0.7818608E-02  0.1098445E+00
          2   -1    0    0  501    0  0.00000000000E+00  0.00000000000E+00  0.25079011929E+04  0.25079011929E+04  0.00000000000E+00 0. -1.
         -2   -1    0    0    0  501 -0.00000000000E+00 -0.00000000000E+00 -0.75393423593E+01  0.75393423593E+01  0.00000000000E+00 0. -1.
         35    2    1    2    0    0  0.00000000000E+00  0.00000000000E+00  0.25003618506E+04  0.25154405353E+04  0.27501218662E+03 0.  0.
         25    1    3    3    0    0 -0.41170684444E+02 -0.48437985121E+02  0.10525916574E+04  0.10613154389E+04  0.12000000000E+03 0.  0.
         25    1    3    3    0    0  0.41170684444E+02  0.48437985121E+02  0.14477701931E+04  0.14541250963E+04  0.12000000000E+03 0.  0.
<mgrwt>
<rscale>  0 0.27501219E+03</rscale>
<asrwt>0</asrwt>
<pdfrwt beam="1">  1        2 0.38583029E+00 0.27501219E+03</pdfrwt>
<pdfrwt beam="2">  1       -2 0.11599008E-02 0.27501219E+03</pdfrwt>
<totfact> 0.68217704E+03</totfact>
</mgrwt>
</event>
<event>
 5    1  0.1111501E+001  0.2779965E+03  0.7818608E-02  0.1096788E+00
          1   -1    0    0  501    0  0.00000000000E+00  0.00000000000E+00  0.75138972706E+03  0.75138972706E+03  0.00000000000E+00 0.  1.
         -1   -1    0    0    0  501 -0.00000000000E+00 -0.00000000000E+00 -0.25713039063E+02  0.25713039063E+02  0.00000000000E+00 0.  1.
         35    2    1    2    0    0  0.00000000000E+00  0.00000000000E+00  0.72567668800E+03  0.77710276612E+03  0.27799649928E+03 0.  0.
         25    1    3    3    0    0 -0.63152087112E+01 -0.66210348054E+02  0.30053099776E+03  0.33036732990E+03  0.12000000000E+03 0.  0.
         25    1    3    3    0    0  0.63152087112E+01  0.66210348054E+02  0.42514569024E+03  0.44673543623E+03  0.12000000000E+03 0.  0.
<mgrwt>
<rscale>  0 0.27799650E+03</rscale>
<asrwt>0</asrwt>
<pdfrwt beam="1">  1        1 0.11559840E+00 0.27799650E+03</pdfrwt>
<pdfrwt beam="2">  1       -1 0.39558527E-02 0.27799650E+03</pdfrwt>
<totfact> 0.63297372E+03</totfact>
</mgrwt>
</event>
<event>
 5    1  0.1111501E+001  0.2671525E+03  0.7818608E-02  0.1102920E+00
         -2   -1    0    0    0  501 -0.00000000000E+00  0.00000000000E+00  0.18770006948E+02  0.18770006948E+02  0.00000000000E+00 0. -1.
          2   -1    0    0  501    0  0.00000000000E+00 -0.00000000000E+00 -0.95059187219E+03  0.95059187219E+03  0.00000000000E+00 0. -1.
         35    2    1    2    0    0  0.00000000000E+00  0.00000000000E+00 -0.93182186524E+03  0.96936187914E+03  0.26715251109E+03 0.  0.
         25    1    3    3    0    0 -0.42821839018E+02  0.39287387363E+02 -0.49525632557E+03  0.51288988752E+03  0.12000000000E+03 0.  0.
         25    1    3    3    0    0  0.42821839018E+02 -0.39287387363E+02 -0.43656553968E+03  0.45647199162E+03  0.12000000000E+03 0.  0.
<mgrwt>
<rscale>  0 0.26715251E+03</rscale>
<asrwt>0</asrwt>
<pdfrwt beam="1">  1        2 0.14624488E+00 0.26715251E+03</pdfrwt>
<pdfrwt beam="2">  1       -2 0.28876938E-02 0.26715251E+03</pdfrwt>
<totfact> 0.12589223E+04</totfact>
</mgrwt>
</event>
<event>
 5    1  0.1111501E+001  0.2754267E+03  0.7818608E-02  0.1098213E+00
          1   -1    0    0  501    0  0.00000000000E+00  0.00000000000E+00  0.13184336850E+04  0.13184336850E+04  0.00000000000E+00 0. -1.
         -1   -1    0    0    0  501 -0.00000000000E+00 -0.00000000000E+00 -0.14384464698E+02  0.14384464698E+02  0.00000000000E+00 0. -1.
         35    2    1    2    0    0  0.00000000000E+00  0.00000000000E+00  0.13040492203E+04  0.13328181497E+04  0.27542667118E+03 0.  0.
         25    1    3    3    0    0 -0.42572219266E+02  0.52405877296E+02  0.66406704866E+03  0.67819157687E+03  0.12000000000E+03 0.  0.
         25    1    3    3    0    0  0.42572219266E+02 -0.52405877296E+02  0.63998217169E+03  0.65462657287E+03  0.12000000000E+03 0.  0.
<mgrwt>
<rscale>  0 0.27542667E+03</rscale>
<asrwt>0</asrwt>
<pdfrwt beam="1">  1        1 0.20283586E+00 0.27542667E+03</pdfrwt>
<pdfrwt beam="2">  1       -1 0.22129956E-02 0.27542667E+03</pdfrwt>
<totfact> 0.56027581E+03</totfact>
</mgrwt>
</event>
<event>
 5    1  0.1111501E+001  0.2745110E+03  0.7818608E-02  0.1098725E+00
          2   -1    0    0  501    0  0.00000000000E+00  0.00000000000E+00  0.88329915283E+03  0.88329915283E+03  0.00000000000E+00 0.  1.
         -2   -1    0    0    0  501 -0.00000000000E+00 -0.00000000000E+00 -0.21328079622E+02  0.21328079622E+02  0.00000000000E+00 0.  1.
         35    2    1    2    0    0  0.00000000000E+00  0.00000000000E+00  0.86197107321E+03  0.90462723246E+03  0.27451101735E+03 0.  0.
         25    1    3    3    0    0  0.44752019536E+02 -0.29889727310E+02  0.56043008939E+03  0.57565443119E+03  0.12000000000E+03 0.  0.
         25    1    3    3    0    0 -0.44752019536E+02  0.29889727310E+02  0.30154098382E+03  0.32897280127E+03  0.12000000000E+03 0.  0.
<mgrwt>
<rscale>  0 0.27451102E+03</rscale>
<asrwt>0</asrwt>
<pdfrwt beam="1">  1        2 0.13589215E+00 0.27451102E+03</pdfrwt>
<pdfrwt beam="2">  1       -2 0.32812437E-02 0.27451102E+03</pdfrwt>
<totfact> 0.11502960E+04</totfact>
</mgrwt>
</event>
<event>
 5    1  0.1111501E+001  0.2755753E+03  0.7818608E-02  0.1098130E+00
         -2   -1    0    0    0  501 -0.00000000000E+00  0.00000000000E+00  0.48506635012E+02  0.48506635012E+02  0.00000000000E+00 0.  1.
          2   -1    0    0  501    0  0.00000000000E+00 -0.00000000000E+00 -0.39139861826E+03  0.39139861826E+03  0.00000000000E+00 0.  1.
         35    2    1    2    0    0  0.00000000000E+00  0.00000000000E+00 -0.34289198325E+03  0.43990525328E+03  0.27557525230E+03 0.  0.
         25    1    3    3    0    0  0.48075778636E+02  0.44086260419E+02 -0.14242326447E+03  0.19733034514E+03  0.12000000000E+03 0.  0.
         25    1    3    3    0    0 -0.48075778636E+02 -0.44086260419E+02 -0.20046871878E+03  0.24257490814E+03  0.12000000000E+03 0.  0.
<mgrwt>
<rscale>  0 0.27557525E+03</rscale>
<asrwt>0</asrwt>
<pdfrwt beam="1">  1        2 0.60215170E-01 0.27557525E+03</pdfrwt>
<pdfrwt beam="2">  1       -2 0.74625595E-02 0.27557525E+03</pdfrwt>
<totfact> 0.85649651E+03</totfact>
</mgrwt>
</event>
<event>
 5    1  0.1111501E+001  0.2743213E+03  0.7818608E-02  0.1098832E+00
          3   -1    0    0  501    0  0.00000000000E+00  0.00000000000E+00  0.97033407252E+02  0.97033407252E+02  0.00000000000E+00 0. -1.
         -3   -1    0    0    0  501 -0.00000000000E+00 -0.00000000000E+00 -0.19388214984E+03  0.19388214984E+03  0.00000000000E+00 0. -1.
         35    2    1    2    0    0  0.00000000000E+00  0.00000000000E+00 -0.96848742588E+02  0.29091555709E+03  0.27432131236E+03 0.  0.
         25    1    3    3    0    0  0.68782102850E+01  0.18819908475E+02 -0.11559251283E+03  0.16781873481E+03  0.12000000000E+03 0.  0.
         25    1    3    3    0    0 -0.68782102850E+01 -0.18819908475E+02  0.18743770245E+02  0.12309682228E+03  0.12000000000E+03 0.  0.
<mgrwt>
<rscale>  0 0.27432131E+03</rscale>
<asrwt>0</asrwt>
<pdfrwt beam="1">  1        3 0.14928217E-01 0.27432131E+03</pdfrwt>
<pdfrwt beam="2">  1       -3 0.29828023E-01 0.27432131E+03</pdfrwt>
<totfact> 0.10326359E+03</totfact>
</mgrwt>
</event>
<event>
 5    1  0.1111501E+001  0.2752532E+03  0.7818608E-02  0.1098310E+00
          3   -1    0    0  501    0  0.00000000000E+00  0.00000000000E+00  0.21680123523E+02  0.21680123523E+02  0.00000000000E+00 0. -1.
         -3   -1    0    0    0  501 -0.00000000000E+00 -0.00000000000E+00 -0.87366090997E+03  0.87366090997E+03  0.00000000000E+00 0. -1.
         35    2    1    2    0    0  0.00000000000E+00  0.00000000000E+00 -0.85198078644E+03  0.89534103349E+03  0.27525316670E+03 0.  0.
         25    1    3    3    0    0  0.43231554485E+02 -0.26997513086E+02 -0.28260009484E+03  0.31122443127E+03  0.12000000000E+03 0.  0.
         25    1    3    3    0    0 -0.43231554485E+02  0.26997513086E+02 -0.56938069160E+03  0.58411660222E+03  0.12000000000E+03 0.  0.
<mgrwt>
<rscale>  0 0.27525317E+03</rscale>
<asrwt>0</asrwt>
<pdfrwt beam="1">  1        3 0.33354039E-02 0.27525317E+03</pdfrwt>
<pdfrwt beam="2">  1       -3 0.13440936E+00 0.27525317E+03</pdfrwt>
<totfact> 0.49210924E+02</totfact>
</mgrwt>
</event>
<event>
 5    1  0.1111501E+001  0.2749041E+03  0.7818608E-02  0.1098505E+00
          2   -1    0    0  501    0  0.00000000000E+00  0.00000000000E+00  0.72779863238E+03  0.72779863238E+03  0.00000000000E+00 0.  1.
         -2   -1    0    0    0  501 -0.00000000000E+00 -0.00000000000E+00 -0.25959197288E+02  0.25959197288E+02  0.00000000000E+00 0.  1.
         35    2    1    2    0    0  0.00000000000E+00  0.00000000000E+00  0.70183943509E+03  0.75375782967E+03  0.27490411626E+03 0.  0.
         25    1    3    3    0    0  0.50801990562E+02  0.40712833904E+02  0.39467772708E+03  0.41762289849E+03  0.12000000000E+03 0.  0.
         25    1    3    3    0    0 -0.50801990562E+02 -0.40712833904E+02  0.30716170802E+03  0.33613493118E+03  0.12000000000E+03 0.  0.
<mgrwt>
<rscale>  0 0.27490412E+03</rscale>
<asrwt>0</asrwt>
<pdfrwt beam="1">  1        2 0.11196900E+00 0.27490412E+03</pdfrwt>
<pdfrwt beam="2">  1       -2 0.39937232E-02 0.27490412E+03</pdfrwt>
<totfact> 0.10970394E+04</totfact>
</mgrwt>
</event>
<event>
 5    1  0.1111501E+001  0.2747530E+03  0.7818608E-02  0.1098590E+00
          4   -1    0    0  501    0  0.00000000000E+00  0.00000000000E+00  0.31854793814E+02  0.31854793814E+02  0.00000000000E+00 0.  1.
         -4   -1    0    0    0  501 -0.00000000000E+00 -0.00000000000E+00 -0.59244780417E+03  0.59244780417E+03  0.00000000000E+00 0.  1.
         35    2    1    2    0    0  0.00000000000E+00  0.00000000000E+00 -0.56059301036E+03  0.62430259799E+03  0.27475299924E+03 0.  0.
         25    1    3    3    0    0  0.47121236341E+02 -0.40107760959E+02 -0.22266689017E+03  0.26040274073E+03  0.12000000000E+03 0.  0.
         25    1    3    3    0    0 -0.47121236341E+02  0.40107760959E+02 -0.33792612019E+03  0.36389985725E+03  0.12000000000E+03 0.  0.
<mgrwt>
<rscale>  0 0.27475300E+03</rscale>
<asrwt>0</asrwt>
<pdfrwt beam="1">  1        4 0.49007375E-02 0.27475300E+03</pdfrwt>
<pdfrwt beam="2">  1       -4 0.91145816E-01 0.27475300E+03</pdfrwt>
<totfact> 0.48874304E+02</totfact>
</mgrwt>
</event>
<event>
 5    1  0.1111501E+001  0.2756415E+03  0.7818608E-02  0.1098094E+00
         -2   -1    0    0    0  501 -0.00000000000E+00  0.00000000000E+00  0.25245346833E+02  0.25245346833E+02  0.00000000000E+00 0. -1.
          2   -1    0    0  501    0  0.00000000000E+00 -0.00000000000E+00 -0.75239819591E+03  0.75239819591E+03  0.00000000000E+00 0. -1.
         35    2    1    2    0    0  0.00000000000E+00  0.00000000000E+00 -0.72715284908E+03  0.77764354274E+03  0.27564145851E+03 0.  0.
         25    1    3    3    0    0 -0.45929276242E+02  0.12788260394E+00 -0.50421439939E+03  0.52032843025E+03  0.12000000000E+03 0.  0.
         25    1    3    3    0    0  0.45929276242E+02 -0.12788260394E+00 -0.22293844969E+03  0.25731511250E+03  0.12000000000E+03 0.  0.
<mgrwt>
<rscale>  0 0.27564146E+03</rscale>
<asrwt>0</asrwt>
<pdfrwt beam="1">  1        2 0.11575357E+00 0.27564146E+03</pdfrwt>
<pdfrwt beam="2">  1       -2 0.38838994E-02 0.27564146E+03</pdfrwt>
<totfact> 0.10980426E+04</totfact>
</mgrwt>
</event>
<event>
 5    1  0.1111501E+001  0.2760088E+03  0.7818608E-02  0.1097889E+00
         -1   -1    0    0    0  501 -0.00000000000E+00  0.00000000000E+00  0.54568424150E+02  0.54568424150E+02  0.00000000000E+00 0.  1.
          1   -1    0    0  501    0  0.00000000000E+00 -0.00000000000E+00 -0.34901528571E+03  0.34901528571E+03  0.00000000000E+00 0.  1.
         35    2    1    2    0    0  0.00000000000E+00  0.00000000000E+00 -0.29444686156E+03  0.40358370986E+03  0.27600879801E+03 0.  0.
         25    1    3    3    0    0  0.61446050655E+02 -0.17757263106E+02 -0.11279842840E+03  0.17667603964E+03  0.12000000000E+03 0.  0.
         25    1    3    3    0    0 -0.61446050655E+02  0.17757263106E+02 -0.18164843316E+03  0.22690767021E+03  0.12000000000E+03 0.  0.
<mgrwt>
<rscale>  0 0.27600880E+03</rscale>
<asrwt>0</asrwt>
<pdfrwt beam="1">  1        1 0.53694661E-01 0.27600880E+03</pdfrwt>
<pdfrwt beam="2">  1       -1 0.83951420E-02 0.27600880E+03</pdfrwt>
<totfact> 0.57390303E+03</totfact>
</mgrwt>
</event>
<event>
 5    1  0.1111501E+001  0.2746248E+03  0.7818608E-02  0.1098661E+00
         -2   -1    0    0    0  501 -0.00000000000E+00  0.00000000000E+00  0.98664825953E+01  0.98664825953E+01  0.00000000000E+00 0. -1.
          2   -1    0    0  501    0  0.00000000000E+00 -0.00000000000E+00 -0.19109849168E+04  0.19109849168E+04  0.00000000000E+00 0. -1.
         35    2    1    2    0    0  0.00000000000E+00  0.00000000000E+00 -0.19011184342E+04  0.19208513994E+04  0.27462483079E+03 0.  0.
         25    1    3    3    0    0 -0.41216403410E+02 -0.12790371601E+02 -0.59443807233E+03  0.60796299834E+03  0.12000000000E+03 0.  0.
         25    1    3    3    0    0  0.41216403410E+02  0.12790371601E+02 -0.13066803619E+04  0.13128884011E+04  0.12000000000E+03 0.  0.
<mgrwt>
<rscale>  0 0.27462483E+03</rscale>
<asrwt>0</asrwt>
<pdfrwt beam="1">  1        2 0.29399803E+00 0.27462483E+03</pdfrwt>
<pdfrwt beam="2">  1       -2 0.15179186E-02 0.27462483E+03</pdfrwt>
<totfact> 0.95942196E+03</totfact>
</mgrwt>
</event>
<event>
 5    1  0.1111501E+001  0.2751750E+03  0.7818608E-02  0.1098354E+00
         -2   -1    0    0    0  501 -0.00000000000E+00  0.00000000000E+00  0.15882214314E+02  0.15882214314E+02  0.00000000000E+00 0.  1.
          2   -1    0    0  501    0  0.00000000000E+00 -0.00000000000E+00 -0.11919191760E+04  0.11919191760E+04  0.00000000000E+00 0.  1.
         35    2    1    2    0    0  0.00000000000E+00  0.00000000000E+00 -0.11760369617E+04  0.12078013903E+04  0.27517496833E+03 0.  0.
         25    1    3    3    0    0  0.71269777215E+00 -0.47300871486E+02 -0.37786569342E+03  0.39927479590E+03  0.12000000000E+03 0.  0.
         25    1    3    3    0    0 -0.71269777215E+00  0.47300871486E+02 -0.79817126828E+03  0.80852659442E+03  0.12000000000E+03 0.  0.
<mgrwt>
<rscale>  0 0.27517497E+03</rscale>
<asrwt>0</asrwt>
<pdfrwt beam="1">  1        2 0.18337214E+00 0.27517497E+03</pdfrwt>
<pdfrwt beam="2">  1       -2 0.24434181E-02 0.27517497E+03</pdfrwt>
<totfact> 0.11595513E+04</totfact>
</mgrwt>
</event>
<event>
 5    1  0.1111501E+001  0.2746786E+03  0.7818608E-02  0.1098631E+00
          2   -1    0    0  501    0  0.00000000000E+00  0.00000000000E+00  0.95449813882E+03  0.95449813882E+03  0.00000000000E+00 0.  1.
         -2   -1    0    0    0  501 -0.00000000000E+00 -0.00000000000E+00 -0.19761260300E+02  0.19761260300E+02  0.00000000000E+00 0.  1.
         35    2    1    2    0    0  0.00000000000E+00  0.00000000000E+00  0.93473687852E+03  0.97425939912E+03  0.27467862077E+03 0.  0.
         25    1    3    3    0    0 -0.31871013424E+02  0.58650498404E+02  0.45836480226E+03  0.47849131069E+03  0.12000000000E+03 0.  0.
         25    1    3    3    0    0  0.31871013424E+02 -0.58650498404E+02  0.47637207626E+03  0.49576808842E+03  0.12000000000E+03 0.  0.
<mgrwt>
<rscale>  0 0.27467862E+03</rscale>
<asrwt>0</asrwt>
<pdfrwt beam="1">  1        2 0.14684583E+00 0.27467862E+03</pdfrwt>
<pdfrwt beam="2">  1       -2 0.30401946E-02 0.27467862E+03</pdfrwt>
<totfact> 0.11606932E+04</totfact>
</mgrwt>
</event>
<event>
 5    1  0.1111501E+001  0.2753705E+03  0.7818608E-02  0.1098245E+00
          2   -1    0    0  501    0  0.00000000000E+00  0.00000000000E+00  0.96100612758E+03  0.96100612758E+03  0.00000000000E+00 0.  1.
         -2   -1    0    0    0  501 -0.00000000000E+00 -0.00000000000E+00 -0.19726435859E+02  0.19726435859E+02  0.00000000000E+00 0.  1.
         35    2    1    2    0    0  0.00000000000E+00  0.00000000000E+00  0.94127969172E+03  0.98073256344E+03  0.27537048307E+03 0.  0.
         25    1    3    3    0    0  0.18169823288E+02 -0.64710345387E+02  0.49306726066E+03  0.51189148735E+03  0.12000000000E+03 0.  0.
         25    1    3    3    0    0 -0.18169823288E+02  0.64710345387E+02  0.44821243105E+03  0.46884107609E+03  0.12000000000E+03 0.  0.
<mgrwt>
<rscale>  0 0.27537048E+03</rscale>
<asrwt>0</asrwt>
<pdfrwt beam="1">  1        2 0.14784706E+00 0.27537048E+03</pdfrwt>
<pdfrwt beam="2">  1       -2 0.30348370E-02 0.27537048E+03</pdfrwt>
<totfact> 0.11529814E+04</totfact>
</mgrwt>
</event>
<event>
 5    1  0.1111501E+001  0.2745803E+03  0.7818608E-02  0.1098686E+00
          2   -1    0    0  501    0  0.00000000000E+00  0.00000000000E+00  0.84183351291E+03  0.84183351291E+03  0.00000000000E+00 0.  1.
         -2   -1    0    0    0  501 -0.00000000000E+00 -0.00000000000E+00 -0.22389917211E+02  0.22389917211E+02  0.00000000000E+00 0.  1.
         35    2    1    2    0    0  0.00000000000E+00  0.00000000000E+00  0.81944359570E+03  0.86422343012E+03  0.27458028086E+03 0.  0.
         25    1    3    3    0    0  0.68549988728E+01  0.46790762369E+02  0.55775886631E+03  0.57247822614E+03  0.12000000000E+03 0.  0.
         25    1    3    3    0    0 -0.68549988728E+01 -0.46790762369E+02  0.26168472939E+03  0.29174520398E+03  0.12000000000E+03 0.  0.
<mgrwt>
<rscale>  0 0.27458028E+03</rscale>
<asrwt>0</asrwt>
<pdfrwt beam="1">  1        2 0.12951282E+00 0.27458028E+03</pdfrwt>
<pdfrwt beam="2">  1       -2 0.34446033E-02 0.27458028E+03</pdfrwt>
<totfact> 0.11394839E+04</totfact>
</mgrwt>
</event>
<event>
 5    1  0.1111501E+001  0.2750183E+03  0.7818608E-02  0.1098441E+00
         -1   -1    0    0    0  501 -0.00000000000E+00  0.00000000000E+00  0.69172454330E+02  0.69172454330E+02  0.00000000000E+00 0. -1.
          1   -1    0    0  501    0  0.00000000000E+00 -0.00000000000E+00 -0.27335696256E+03  0.27335696256E+03  0.00000000000E+00 0. -1.
         35    2    1    2    0    0  0.00000000000E+00  0.00000000000E+00 -0.20418450823E+03  0.34252941689E+03  0.27501834127E+03 0.  0.
         25    1    3    3    0    0  0.48945349209E+02  0.39607310265E+02 -0.73032656244E+02  0.15394205115E+03  0.12000000000E+03 0.  0.
         25    1    3    3    0    0 -0.48945349209E+02 -0.39607310265E+02 -0.13115185199E+03  0.18858736574E+03  0.12000000000E+03 0.  0.
<mgrwt>
<rscale>  0 0.27501834E+03</rscale>
<asrwt>0</asrwt>
<pdfrwt beam="1">  1        1 0.42054917E-01 0.27501834E+03</pdfrwt>
<pdfrwt beam="2">  1       -1 0.10641916E-01 0.27501834E+03</pdfrwt>
<totfact> 0.54173800E+03</totfact>
</mgrwt>
</event>
<event>
 5    1  0.1111501E+001  0.2714127E+03  0.7818608E-02  0.1100474E+00
          1   -1    0    0  501    0  0.00000000000E+00  0.00000000000E+00  0.22900110465E+03  0.22900110465E+03  0.00000000000E+00 0. -1.
         -1   -1    0    0    0  501 -0.00000000000E+00 -0.00000000000E+00 -0.80419746829E+02  0.80419746829E+02  0.00000000000E+00 0. -1.
         35    2    1    2    0    0  0.00000000000E+00  0.00000000000E+00  0.14858135782E+03  0.30942085148E+03  0.27141268106E+03 0.  0.
         25    1    3    3    0    0 -0.53503688338E+02 -0.20825943131E+02  0.10487785097E+03  0.16939813516E+03  0.12000000000E+03 0.  0.
         25    1    3    3    0    0  0.53503688338E+02  0.20825943131E+02  0.43703506853E+02  0.14002271632E+03  0.12000000000E+03 0.  0.
<mgrwt>
<rscale>  0 0.27141268E+03</rscale>
<asrwt>0</asrwt>
<pdfrwt beam="1">  1        1 0.35230939E-01 0.27141268E+03</pdfrwt>
<pdfrwt beam="2">  1       -1 0.12372269E-01 0.27141268E+03</pdfrwt>
<totfact> 0.53480216E+03</totfact>
</mgrwt>
</event>
<event>
 5    1  0.1111501E+001  0.2762090E+03  0.7818608E-02  0.1097778E+00
          1   -1    0    0  501    0  0.00000000000E+00  0.00000000000E+00  0.38172878035E+03  0.38172878035E+03  0.00000000000E+00 0. -1.
         -1   -1    0    0    0  501 -0.00000000000E+00 -0.00000000000E+00 -0.49964415611E+02  0.49964415611E+02  0.00000000000E+00 0. -1.
         35    2    1    2    0    0  0.00000000000E+00  0.00000000000E+00  0.33176436474E+03  0.43169319596E+03  0.27620901819E+03 0.  0.
         25    1    3    3    0    0  0.51726420518E+02  0.19171337437E+02  0.22897649394E+03  0.26433576666E+03  0.12000000000E+03 0.  0.
         25    1    3    3    0    0 -0.51726420518E+02 -0.19171337437E+02  0.10278787080E+03  0.16735742930E+03  0.12000000000E+03 0.  0.
<mgrwt>
<rscale>  0 0.27620902E+03</rscale>
<asrwt>0</asrwt>
<pdfrwt beam="1">  1        1 0.58727503E-01 0.27620902E+03</pdfrwt>
<pdfrwt beam="2">  1       -1 0.76868334E-02 0.27620902E+03</pdfrwt>
<totfact> 0.58590917E+03</totfact>
</mgrwt>
</event>
<event>
 5    1  0.1111501E+001  0.2774070E+03  0.7818608E-02  0.1097114E+00
         -3   -1    0    0    0  501 -0.00000000000E+00  0.00000000000E+00  0.24937590317E+03  0.24937590317E+03  0.00000000000E+00 0. -1.
          3   -1    0    0  501    0  0.00000000000E+00 -0.00000000000E+00 -0.77147253330E+02  0.77147253330E+02  0.00000000000E+00 0. -1.
         35    2    1    2    0    0  0.00000000000E+00  0.00000000000E+00  0.17222864984E+03  0.32652315650E+03  0.27740703651E+03 0.  0.
         25    1    3    3    0    0 -0.28514186542E+01  0.62839380745E+02  0.51162596256E+02  0.14482585963E+03  0.12000000000E+03 0.  0.
         25    1    3    3    0    0  0.28514186542E+01 -0.62839380745E+02  0.12106605358E+03  0.18169729687E+03  0.12000000000E+03 0.  0.
<mgrwt>
<rscale>  0 0.27740704E+03</rscale>
<asrwt>0</asrwt>
<pdfrwt beam="1">  1        3 0.11868808E-01 0.27740704E+03</pdfrwt>
<pdfrwt beam="2">  1       -3 0.38365523E-01 0.27740704E+03</pdfrwt>
<totfact> 0.94844317E+02</totfact>
</mgrwt>
</event>
<event>
 5    1  0.1111501E+001  0.2768501E+03  0.7818608E-02  0.1097422E+00
          2   -1    0    0  501    0  0.00000000000E+00  0.00000000000E+00  0.30820894104E+02  0.30820894104E+02  0.00000000000E+00 0. -1.
         -2   -1    0    0    0  501 -0.00000000000E+00 -0.00000000000E+00 -0.62170450479E+03  0.62170450479E+03  0.00000000000E+00 0. -1.
         35    2    1    2    0    0  0.00000000000E+00  0.00000000000E+00 -0.59088361069E+03  0.65252539890E+03  0.27685005838E+03 0.  0.
         25    1    3    3    0    0 -0.19244657827E+02 -0.42024518680E+02 -0.41620188333E+03  0.43561499597E+03  0.12000000000E+03 0.  0.
         25    1    3    3    0    0  0.19244657827E+02  0.42024518680E+02 -0.17468172736E+03  0.21691040292E+03  0.12000000000E+03 0.  0.
<mgrwt>
<rscale>  0 0.27685006E+03</rscale>
<asrwt>0</asrwt>
<pdfrwt beam="1">  1        2 0.47416762E-02 0.27685006E+03</pdfrwt>
<pdfrwt beam="2">  1       -2 0.95646842E-01 0.27685006E+03</pdfrwt>
<totfact> 0.16031768E+03</totfact>
</mgrwt>
</event>
<event>
 5    1  0.1111501E+001  0.2755221E+03  0.7818608E-02  0.1098160E+00
         -1   -1    0    0    0  501 -0.00000000000E+00  0.00000000000E+00  0.26786011405E+02  0.26786011405E+02  0.00000000000E+00 0.  1.
          1   -1    0    0  501    0  0.00000000000E+00 -0.00000000000E+00 -0.70850806133E+03  0.70850806133E+03  0.00000000000E+00 0.  1.
         35    2    1    2    0    0  0.00000000000E+00  0.00000000000E+00 -0.68172204993E+03  0.73529407274E+03  0.27552208631E+03 0.  0.
         25    1    3    3    0    0  0.24044381553E+02 -0.73154669408E+01 -0.17320918806E+03  0.21220996954E+03  0.12000000000E+03 0.  0.
         25    1    3    3    0    0 -0.24044381553E+02  0.73154669408E+01 -0.50851286186E+03  0.52308410320E+03  0.12000000000E+03 0.  0.
<mgrwt>
<rscale>  0 0.27552209E+03</rscale>
<asrwt>0</asrwt>
<pdfrwt beam="1">  1        1 0.10900125E+00 0.27552209E+03</pdfrwt>
<pdfrwt beam="2">  1       -1 0.41209245E-02 0.27552209E+03</pdfrwt>
<totfact> 0.64968110E+03</totfact>
</mgrwt>
</event>
<event>
 5    1  0.1111501E+001  0.2756865E+03  0.7818608E-02  0.1098068E+00
          2   -1    0    0  501    0  0.00000000000E+00  0.00000000000E+00  0.15992593769E+04  0.15992593769E+04  0.00000000000E+00 0.  1.
         -2   -1    0    0    0  501 -0.00000000000E+00 -0.00000000000E+00 -0.11880973778E+02  0.11880973778E+02  0.00000000000E+00 0.  1.
         35    2    1    2    0    0  0.00000000000E+00  0.00000000000E+00  0.15873784031E+04  0.16111403506E+04  0.27568647933E+03 0.  0.
         25    1    3    3    0    0  0.33827018158E+02 -0.58738760366E+02  0.77907941658E+03  0.79117586317E+03  0.12000000000E+03 0.  0.
         25    1    3    3    0    0 -0.33827018158E+02  0.58738760366E+02  0.80829898651E+03  0.81996448748E+03  0.12000000000E+03 0.  0.
<mgrwt>
<rscale>  0 0.27568648E+03</rscale>
<asrwt>0</asrwt>
<pdfrwt beam="1">  1        2 0.24603973E+00 0.27568648E+03</pdfrwt>
<pdfrwt beam="2">  1       -2 0.18278434E-02 0.27568648E+03</pdfrwt>
<totfact> 0.10661217E+04</totfact>
</mgrwt>
</event>
<event>
 5    1  0.1111501E+001  0.2741169E+03  0.7818608E-02  0.1098946E+00
         -2   -1    0    0    0  501 -0.00000000000E+00  0.00000000000E+00  0.20479739483E+02  0.20479739483E+02  0.00000000000E+00 0.  1.
          2   -1    0    0  501    0  0.00000000000E+00 -0.00000000000E+00 -0.91724883615E+03  0.91724883615E+03  0.00000000000E+00 0.  1.
         35    2    1    2    0    0  0.00000000000E+00  0.00000000000E+00 -0.89676909667E+03  0.93772857563E+03  0.27411688897E+03 0.  0.
         25    1    3    3    0    0 -0.53038862772E+02 -0.34942658549E+02 -0.51246672904E+03  0.53014739339E+03  0.12000000000E+03 0.  0.
         25    1    3    3    0    0  0.53038862772E+02  0.34942658549E+02 -0.38430236763E+03  0.40758118224E+03  0.12000000000E+03 0.  0.
<mgrwt>
<rscale>  0 0.27411689E+03</rscale>
<asrwt>0</asrwt>
<pdfrwt beam="1">  1        2 0.14111516E+00 0.27411689E+03</pdfrwt>
<pdfrwt beam="2">  1       -2 0.31507301E-02 0.27411689E+03</pdfrwt>
<totfact> 0.11618664E+04</totfact>
</mgrwt>
</event>
<event>
 5    1  0.1111501E+001  0.2737964E+03  0.7818608E-02  0.1099126E+00
          1   -1    0    0  501    0  0.00000000000E+00  0.00000000000E+00  0.22050795922E+03  0.22050795922E+03  0.00000000000E+00 0.  1.
         -1   -1    0    0    0  501 -0.00000000000E+00 -0.00000000000E+00 -0.84990683044E+02  0.84990683044E+02  0.00000000000E+00 0.  1.
         35    2    1    2    0    0  0.00000000000E+00  0.00000000000E+00  0.13551727618E+03  0.30549864227E+03  0.27379643585E+03 0.  0.
         25    1    3    3    0    0  0.54621174488E+02 -0.36842881578E+02  0.67199133563E+02  0.15250112845E+03  0.12000000000E+03 0.  0.
         25    1    3    3    0    0 -0.54621174488E+02  0.36842881578E+02  0.68318142618E+02  0.15299751382E+03  0.12000000000E+03 0.  0.
<mgrwt>
<rscale>  0 0.27379644E+03</rscale>
<asrwt>0</asrwt>
<pdfrwt beam="1">  1        1 0.33924301E-01 0.27379644E+03</pdfrwt>
<pdfrwt beam="2">  1       -1 0.13075490E-01 0.27379644E+03</pdfrwt>
<totfact> 0.51440388E+03</totfact>
</mgrwt>
</event>
<event>
 5    1  0.1111501E+001  0.2786994E+03  0.7818608E-02  0.1096401E+00
         -1   -1    0    0    0  501 -0.00000000000E+00  0.00000000000E+00  0.21212073483E+03  0.21212073483E+03  0.00000000000E+00 0. -1.
          1   -1    0    0  501    0  0.00000000000E+00 -0.00000000000E+00 -0.91543811590E+02  0.91543811590E+02  0.00000000000E+00 0. -1.
         35    2    1    2    0    0  0.00000000000E+00  0.00000000000E+00  0.12057692324E+03  0.30366454642E+03  0.27869941216E+03 0.  0.
         25    1    3    3    0    0  0.19368946060E+02 -0.47714987556E+02  0.72845364852E+01  0.13078585772E+03  0.12000000000E+03 0.  0.
         25    1    3    3    0    0 -0.19368946060E+02  0.47714987556E+02  0.11329238676E+03  0.17287868870E+03  0.12000000000E+03 0.  0.
<mgrwt>
<rscale>  0 0.27869941E+03</rscale>
<asrwt>0</asrwt>
<pdfrwt beam="1">  1        1 0.14083663E-01 0.27869941E+03</pdfrwt>
<pdfrwt beam="2">  1       -1 0.32633959E-01 0.27869941E+03</pdfrwt>
<totfact> 0.35638760E+03</totfact>
</mgrwt>
</event>
<event>
 5    1  0.1111501E+001  0.2747424E+03  0.7818608E-02  0.1098596E+00
         -2   -1    0    0    0  501 -0.00000000000E+00  0.00000000000E+00  0.22947243718E+03  0.22947243718E+03  0.00000000000E+00 0.  1.
          2   -1    0    0  501    0  0.00000000000E+00 -0.00000000000E+00 -0.82235764109E+02  0.82235764109E+02  0.00000000000E+00 0.  1.
         35    2    1    2    0    0  0.00000000000E+00  0.00000000000E+00  0.14723667307E+03  0.31170820128E+03  0.27474236086E+03 0.  0.
         25    1    3    3    0    0 -0.65436080084E+02  0.20392989607E-01  0.89214141540E+02  0.16322084439E+03  0.12000000000E+03 0.  0.
         25    1    3    3    0    0  0.65436080084E+02 -0.20392989607E-01  0.58022531527E+02  0.14848735689E+03  0.12000000000E+03 0.  0.
<mgrwt>
<rscale>  0 0.27474236E+03</rscale>
<asrwt>0</asrwt>
<pdfrwt beam="1">  1        2 0.12651656E-01 0.27474236E+03</pdfrwt>
<pdfrwt beam="2">  1       -2 0.35303452E-01 0.27474236E+03</pdfrwt>
<totfact> 0.36012078E+03</totfact>
</mgrwt>
</event>
<event>
 5    1  0.1111501E+001  0.2762986E+03  0.7818608E-02  0.1097728E+00
         -2   -1    0    0    0  501 -0.00000000000E+00  0.00000000000E+00  0.15885270995E+02  0.15885270995E+02  0.00000000000E+00 0. -1.
          2   -1    0    0  501    0  0.00000000000E+00 -0.00000000000E+00 -0.12014417490E+04  0.12014417490E+04  0.00000000000E+00 0. -1.
         35    2    1    2    0    0  0.00000000000E+00  0.00000000000E+00 -0.11855564780E+04  0.12173270200E+04  0.27629859042E+03 0.  0.
         25    1    3    3    0    0 -0.42709774838E+02  0.43169290702E+02 -0.73192988966E+03  0.74418349612E+03  0.12000000000E+03 0.  0.
         25    1    3    3    0    0  0.42709774838E+02 -0.43169290702E+02 -0.45362658831E+03  0.47314352384E+03  0.12000000000E+03 0.  0.
<mgrwt>
<rscale>  0 0.27629859E+03</rscale>
<asrwt>0</asrwt>
<pdfrwt beam="1">  1        2 0.18483714E+00 0.27629859E+03</pdfrwt>
<pdfrwt beam="2">  1       -2 0.24438886E-02 0.27629859E+03</pdfrwt>
<totfact> 0.11449794E+04</totfact>
</mgrwt>
</event>
<event>
 5    1  0.1111501E+001  0.2756107E+03  0.7818608E-02  0.1098111E+00
         -2   -1    0    0    0  501 -0.00000000000E+00  0.00000000000E+00  0.10136580187E+02  0.10136580187E+02  0.00000000000E+00 0. -1.
          2   -1    0    0  501    0  0.00000000000E+00 -0.00000000000E+00 -0.18734443592E+04  0.18734443592E+04  0.00000000000E+00 0. -1.
         35    2    1    2    0    0  0.00000000000E+00  0.00000000000E+00 -0.18633077790E+04  0.18835809393E+04  0.27561073253E+03 0.  0.
         25    1    3    3    0    0  0.17142098635E+02 -0.89253154566E+01 -0.48786136651E+03  0.50277452773E+03  0.12000000000E+03 0.  0.
         25    1    3    3    0    0 -0.17142098635E+02  0.89253154566E+01 -0.13754464125E+04  0.13808064116E+04  0.12000000000E+03 0.  0.
<mgrwt>
<rscale>  0 0.27561073E+03</rscale>
<asrwt>0</asrwt>
<pdfrwt beam="1">  1        2 0.28822203E+00 0.27561073E+03</pdfrwt>
<pdfrwt beam="2">  1       -2 0.15594748E-02 0.27561073E+03</pdfrwt>
<totfact> 0.96509158E+03</totfact>
</mgrwt>
</event>
<event>
 5    1  0.1111501E+001  0.2742803E+03  0.7818608E-02  0.1098855E+00
          2   -1    0    0  501    0  0.00000000000E+00  0.00000000000E+00  0.40933409470E+03  0.40933409470E+03  0.00000000000E+00 0.  1.
         -2   -1    0    0    0  501 -0.00000000000E+00 -0.00000000000E+00 -0.45946397699E+02  0.45946397699E+02  0.00000000000E+00 0.  1.
         35    2    1    2    0    0  0.00000000000E+00  0.00000000000E+00  0.36338769700E+03  0.45528049240E+03  0.27428034641E+03 0.  0.
         25    1    3    3    0    0 -0.61235011206E+02 -0.23338586891E+02  0.19933977496E+03  0.24172455837E+03  0.12000000000E+03 0.  0.
         25    1    3    3    0    0  0.61235011206E+02  0.23338586891E+02  0.16404792204E+03  0.21355593403E+03  0.12000000000E+03 0.  0.
<mgrwt>
<rscale>  0 0.27428035E+03</rscale>
<asrwt>0</asrwt>
<pdfrwt beam="1">  1        2 0.62974474E-01 0.27428035E+03</pdfrwt>
<pdfrwt beam="2">  1       -2 0.70686769E-02 0.27428035E+03</pdfrwt>
<totfact> 0.88725391E+03</totfact>
</mgrwt>
</event>
<event>
 5    1  0.1111501E+001  0.2757675E+03  0.7818608E-02  0.1098023E+00
         -1   -1    0    0    0  501 -0.00000000000E+00  0.00000000000E+00  0.42398906128E+03  0.42398906128E+03  0.00000000000E+00 0. -1.
          1   -1    0    0  501    0  0.00000000000E+00 -0.00000000000E+00 -0.44840598399E+02  0.44840598399E+02  0.00000000000E+00 0. -1.
         35    2    1    2    0    0  0.00000000000E+00  0.00000000000E+00  0.37914846288E+03  0.46882965968E+03  0.27576746162E+03 0.  0.
         25    1    3    3    0    0  0.59915087766E+02  0.36471238419E+00  0.13522521931E+03  0.19046209779E+03  0.12000000000E+03 0.  0.
         25    1    3    3    0    0 -0.59915087766E+02 -0.36471238419E+00  0.24392324358E+03  0.27836756189E+03  0.12000000000E+03 0.  0.
<mgrwt>
<rscale>  0 0.27576746E+03</rscale>
<asrwt>0</asrwt>
<pdfrwt beam="1">  1        1 0.68985539E-02 0.27576746E+03</pdfrwt>
<pdfrwt beam="2">  1       -1 0.65229083E-01 0.27576746E+03</pdfrwt>
<totfact> 0.26231989E+03</totfact>
</mgrwt>
</event>
<event>
 5    1  0.1111501E+001  0.2812593E+03  0.7818608E-02  0.1095003E+00
         -1   -1    0    0    0  501 -0.00000000000E+00  0.00000000000E+00  0.86322692613E+02  0.86322692613E+02  0.00000000000E+00 0. -1.
          1   -1    0    0  501    0  0.00000000000E+00 -0.00000000000E+00 -0.22910193958E+03  0.22910193958E+03  0.00000000000E+00 0. -1.
         35    2    1    2    0    0  0.00000000000E+00  0.00000000000E+00 -0.14277924697E+03  0.31542463219E+03  0.28125928470E+03 0.  0.
         25    1    3    3    0    0 -0.70569304462E+02 -0.10413653309E+02 -0.52350153134E+02  0.14909396178E+03  0.12000000000E+03 0.  0.
         25    1    3    3    0    0  0.70569304462E+02  0.10413653309E+02 -0.90429093834E+02  0.16633067041E+03  0.12000000000E+03 0.  0.
<mgrwt>
<rscale>  0 0.28125928E+03</rscale>
<asrwt>0</asrwt>
<pdfrwt beam="1">  1        1 0.35246453E-01 0.28125928E+03</pdfrwt>
<pdfrwt beam="2">  1       -1 0.13280414E-01 0.28125928E+03</pdfrwt>
<totfact> 0.47882594E+03</totfact>
</mgrwt>
</event>
<event>
 5    1  0.1111501E+001  0.2781550E+03  0.7818608E-02  0.1096701E+00
         -3   -1    0    0    0  501 -0.00000000000E+00  0.00000000000E+00  0.15160792080E+04  0.15160792080E+04  0.00000000000E+00 0.  1.
          3   -1    0    0  501    0  0.00000000000E+00 -0.00000000000E+00 -0.12758276266E+02  0.12758276266E+02  0.00000000000E+00 0.  1.
         35    2    1    2    0    0  0.00000000000E+00  0.00000000000E+00  0.15033209318E+04  0.15288374843E+04  0.27815504581E+03 0.  0.
         25    1    3    3    0    0 -0.55962219520E+02  0.32661842894E+02  0.60174089441E+03  0.61700135332E+03  0.12000000000E+03 0.  0.
         25    1    3    3    0    0  0.55962219520E+02 -0.32661842894E+02  0.90158003736E+03  0.91183613098E+03  0.12000000000E+03 0.  0.
<mgrwt>
<rscale>  0 0.27815505E+03</rscale>
<asrwt>0</asrwt>
<pdfrwt beam="1">  1        3 0.19628129E-02 0.27815505E+03</pdfrwt>
<pdfrwt beam="2">  1       -3 0.23324281E+00 0.27815505E+03</pdfrwt>
<totfact> 0.25276436E+02</totfact>
</mgrwt>
</event>
<event>
 5    1  0.1111501E+001  0.2754077E+03  0.7818608E-02  0.1098224E+00
          2   -1    0    0  501    0  0.00000000000E+00  0.00000000000E+00  0.96228451124E+03  0.96228451124E+03  0.00000000000E+00 0. -1.
         -2   -1    0    0    0  501 -0.00000000000E+00 -0.00000000000E+00 -0.19705549755E+02  0.19705549755E+02  0.00000000000E+00 0. -1.
         35    2    1    2    0    0  0.00000000000E+00  0.00000000000E+00  0.94257896148E+03  0.98199006099E+03  0.27540766376E+03 0.  0.
         25    1    3    3    0    0  0.27476486063E+02  0.61660428608E+02  0.47955946969E+03  0.49893311246E+03  0.12000000000E+03 0.  0.
         25    1    3    3    0    0 -0.27476486063E+02 -0.61660428608E+02  0.46301949179E+03  0.48305694853E+03  0.12000000000E+03 0.  0.
<mgrwt>
<rscale>  0 0.27540766E+03</rscale>
<asrwt>0</asrwt>
<pdfrwt beam="1">  1        2 0.14804373E+00 0.27540766E+03</pdfrwt>
<pdfrwt beam="2">  1       -2 0.30316238E-02 0.27540766E+03</pdfrwt>
<totfact> 0.11526863E+04</totfact>
</mgrwt>
</event>
<event>
 5    1  0.1111501E+001  0.2752895E+03  0.7818608E-02  0.1098290E+00
         -1   -1    0    0    0  501 -0.00000000000E+00  0.00000000000E+00  0.24325519964E+02  0.24325519964E+02  0.00000000000E+00 0.  1.
          1   -1    0    0  501    0  0.00000000000E+00 -0.00000000000E+00 -0.77885617651E+03  0.77885617651E+03  0.00000000000E+00 0.  1.
         35    2    1    2    0    0  0.00000000000E+00  0.00000000000E+00 -0.75453065654E+03  0.80318169647E+03  0.27528953101E+03 0.  0.
         25    1    3    3    0    0  0.36589077902E+02  0.80622660989E+01 -0.54081488113E+03  0.55523373133E+03  0.12000000000E+03 0.  0.
         25    1    3    3    0    0 -0.36589077902E+02 -0.80622660989E+01 -0.21371577542E+03  0.24794796514E+03  0.12000000000E+03 0.  0.
<mgrwt>
<rscale>  0 0.27528953E+03</rscale>
<asrwt>0</asrwt>
<pdfrwt beam="1">  1        1 0.11982402E+00 0.27528953E+03</pdfrwt>
<pdfrwt beam="2">  1       -1 0.37423880E-02 0.27528953E+03</pdfrwt>
<totfact> 0.65090102E+03</totfact>
</mgrwt>
</event>
<event>
 5    1  0.1111501E+001  0.2747492E+03  0.7818608E-02  0.1098592E+00
         -4   -1    0    0    0  501 -0.00000000000E+00  0.00000000000E+00  0.63874373171E+02  0.63874373171E+02  0.00000000000E+00 0. -1.
          4   -1    0    0  501    0  0.00000000000E+00 -0.00000000000E+00 -0.29545160846E+03  0.29545160846E+03  0.00000000000E+00 0. -1.
         35    2    1    2    0    0  0.00000000000E+00  0.00000000000E+00 -0.23157723529E+03  0.35932598163E+03  0.27474924053E+03 0.  0.
         25    1    3    3    0    0 -0.39853210868E+02  0.53168679997E+02 -0.12562777297E+03  0.18600409751E+03  0.12000000000E+03 0.  0.
         25    1    3    3    0    0  0.39853210868E+02 -0.53168679997E+02 -0.10594946231E+03  0.17332188412E+03  0.12000000000E+03 0.  0.
<mgrwt>
<rscale>  0 0.27474924E+03</rscale>
<asrwt>0</asrwt>
<pdfrwt beam="1">  1        4 0.45454093E-01 0.27474924E+03</pdfrwt>
<pdfrwt beam="2">  1       -4 0.98268268E-02 0.27474924E+03</pdfrwt>
<totfact> 0.68999417E+02</totfact>
</mgrwt>
</event>
<event>
 5    1  0.1111501E+001  0.2750585E+03  0.7818608E-02  0.1098419E+00
         -1   -1    0    0    0  501 -0.00000000000E+00  0.00000000000E+00  0.27243340154E+02  0.27243340154E+02  0.00000000000E+00 0. -1.
          1   -1    0    0  501    0  0.00000000000E+00 -0.00000000000E+00 -0.69427199127E+03  0.69427199127E+03  0.00000000000E+00 0. -1.
         35    2    1    2    0    0  0.00000000000E+00  0.00000000000E+00 -0.66702865112E+03  0.72151533143E+03  0.27505845210E+03 0.  0.
         25    1    3    3    0    0 -0.12880533303E+02  0.60661458051E+02 -0.26568880075E+03  0.29805412172E+03  0.12000000000E+03 0.  0.
         25    1    3    3    0    0  0.12880533303E+02 -0.60661458051E+02 -0.40133985037E+03  0.42346120970E+03  0.12000000000E+03 0.  0.
<mgrwt>
<rscale>  0 0.27505845E+03</rscale>
<asrwt>0</asrwt>
<pdfrwt beam="1">  1        1 0.10681106E+00 0.27505845E+03</pdfrwt>
<pdfrwt beam="2">  1       -1 0.41912835E-02 0.27505845E+03</pdfrwt>
<totfact> 0.65254339E+03</totfact>
</mgrwt>
</event>
<event>
 5    1  0.1111501E+001  0.2749852E+03  0.7818608E-02  0.1098460E+00
          1   -1    0    0  501    0  0.00000000000E+00  0.00000000000E+00  0.45545480314E+03  0.45545480314E+03  0.00000000000E+00 0. -1.
         -1   -1    0    0    0  501 -0.00000000000E+00 -0.00000000000E+00 -0.41506240220E+02  0.41506240220E+02  0.00000000000E+00 0. -1.
         35    2    1    2    0    0  0.00000000000E+00  0.00000000000E+00  0.41394856292E+03  0.49696104336E+03  0.27498521028E+03 0.  0.
         25    1    3    3    0    0  0.96581844429E+01 -0.47430420990E+02  0.29099175977E+03  0.31846370219E+03  0.12000000000E+03 0.  0.
         25    1    3    3    0    0 -0.96581844429E+01  0.47430420990E+02  0.12295680315E+03  0.17849734117E+03  0.12000000000E+03 0.  0.
<mgrwt>
<rscale>  0 0.27498521E+03</rscale>
<asrwt>0</asrwt>
<pdfrwt beam="1">  1        1 0.70069966E-01 0.27498521E+03</pdfrwt>
<pdfrwt beam="2">  1       -1 0.63855757E-02 0.27498521E+03</pdfrwt>
<totfact> 0.61820277E+03</totfact>
</mgrwt>
</event>
<event>
 5    1  0.1111501E+001  0.2751206E+03  0.7818608E-02  0.1098384E+00
         -2   -1    0    0    0  501 -0.00000000000E+00  0.00000000000E+00  0.71222523255E+01  0.71222523255E+01  0.00000000000E+00 0.  1.
          2   -1    0    0  501    0  0.00000000000E+00 -0.00000000000E+00 -0.26568614581E+04  0.26568614581E+04  0.00000000000E+00 0.  1.
         35    2    1    2    0    0  0.00000000000E+00  0.00000000000E+00 -0.26497392058E+04  0.26639837105E+04  0.27512061136E+03 0.  0.
         25    1    3    3    0    0  0.39065785139E+02 -0.43933814777E+02 -0.10086466744E+04  0.10174597925E+04  0.12000000000E+03 0.  0.
         25    1    3    3    0    0 -0.39065785139E+02  0.43933814777E+02 -0.16410925314E+04  0.16465239179E+04  0.12000000000E+03 0.  0.
<mgrwt>
<rscale>  0 0.27512061E+03</rscale>
<asrwt>0</asrwt>
<pdfrwt beam="1">  1        2 0.40874831E+00 0.27512061E+03</pdfrwt>
<pdfrwt beam="2">  1       -2 0.10957301E-02 0.27512061E+03</pdfrwt>
<totfact> 0.61283617E+03</totfact>
</mgrwt>
</event>
<event>
 5    1  0.1111501E+001  0.2753407E+03  0.7818608E-02  0.1098261E+00
          2   -1    0    0  501    0  0.00000000000E+00  0.00000000000E+00  0.20745425853E+03  0.20745425853E+03  0.00000000000E+00 0.  1.
         -2   -1    0    0    0  501 -0.00000000000E+00 -0.00000000000E+00 -0.91360478705E+02  0.91360478705E+02  0.00000000000E+00 0.  1.
         35    2    1    2    0    0  0.00000000000E+00  0.00000000000E+00  0.11609377983E+03  0.29881473724E+03  0.27534066441E+03 0.  0.
         25    1    3    3    0    0  0.22295439724E+02 -0.31653538324E+02  0.11802218265E+03  0.17270862375E+03  0.12000000000E+03 0.  0.
         25    1    3    3    0    0 -0.22295439724E+02  0.31653538324E+02 -0.19284028229E+01  0.12610611349E+03  0.12000000000E+03 0.  0.
<mgrwt>
<rscale>  0 0.27534066E+03</rscale>
<asrwt>0</asrwt>
<pdfrwt beam="1">  1        2 0.31916040E-01 0.27534066E+03</pdfrwt>
<pdfrwt beam="2">  1       -2 0.14055458E-01 0.27534066E+03</pdfrwt>
<totfact> 0.61979618E+03</totfact>
</mgrwt>
</event>
<event>
 5    1  0.1111501E+001  0.2780598E+03  0.7818608E-02  0.1096753E+00
          2   -1    0    0  501    0  0.00000000000E+00  0.00000000000E+00  0.33288763816E+04  0.33288763816E+04  0.00000000000E+00 0.  1.
         -2   -1    0    0    0  501 -0.00000000000E+00 -0.00000000000E+00 -0.58065564649E+01  0.58065564649E+01  0.00000000000E+00 0.  1.
         35    2    1    2    0    0  0.00000000000E+00  0.00000000000E+00  0.33230698251E+04  0.33346829380E+04  0.27805976821E+03 0.  0.
         25    1    3    3    0    0  0.40939758914E+02  0.28197155608E+01  0.97834190029E+03  0.98652769273E+03  0.12000000000E+03 0.  0.
         25    1    3    3    0    0 -0.40939758914E+02 -0.28197155608E+01  0.23447279248E+04  0.23481552453E+04  0.12000000000E+03 0.  0.
<mgrwt>
<rscale>  0 0.27805977E+03</rscale>
<asrwt>0</asrwt>
<pdfrwt beam="1">  1        2 0.51213330E+00 0.27805977E+03</pdfrwt>
<pdfrwt beam="2">  1       -2 0.89331904E-03 0.27805977E+03</pdfrwt>
<totfact> 0.32879515E+03</totfact>
</mgrwt>
</event>
<event>
 5    1  0.1111501E+001  0.2753834E+03  0.7818608E-02  0.1098237E+00
         -1   -1    0    0    0  501 -0.00000000000E+00  0.00000000000E+00  0.29869170337E+02  0.29869170337E+02  0.00000000000E+00 0. -1.
          1   -1    0    0  501    0  0.00000000000E+00 -0.00000000000E+00 -0.63473480124E+03  0.63473480124E+03  0.00000000000E+00 0. -1.
         35    2    1    2    0    0  0.00000000000E+00  0.00000000000E+00 -0.60486563090E+03  0.66460397157E+03  0.27538338292E+03 0.  0.
         25    1    3    3    0    0  0.31004620418E+02  0.55870657149E+02 -0.35509672464E+03  0.38023216680E+03  0.12000000000E+03 0.  0.
         25    1    3    3    0    0 -0.31004620418E+02 -0.55870657149E+02 -0.24976890626E+03  0.28437180478E+03  0.12000000000E+03 0.  0.
<mgrwt>
<rscale>  0 0.27538338E+03</rscale>
<asrwt>0</asrwt>
<pdfrwt beam="1">  1        1 0.97651506E-01 0.27538338E+03</pdfrwt>
<pdfrwt beam="2">  1       -1 0.45952571E-02 0.27538338E+03</pdfrwt>
<totfact> 0.64688215E+03</totfact>
</mgrwt>
</event>
<event>
 5    1  0.1111501E+001  0.2748386E+03  0.7818608E-02  0.1098542E+00
         -1   -1    0    0    0  501 -0.00000000000E+00  0.00000000000E+00  0.25386753911E+02  0.25386753911E+02  0.00000000000E+00 0. -1.
          1   -1    0    0  501    0  0.00000000000E+00 -0.00000000000E+00 -0.74385498762E+03  0.74385498762E+03  0.00000000000E+00 0. -1.
         35    2    1    2    0    0  0.00000000000E+00  0.00000000000E+00 -0.71846823371E+03  0.76924174153E+03  0.27483859639E+03 0.  0.
         25    1    3    3    0    0  0.32686690105E+02  0.18889591036E+02 -0.20443709924E+03  0.24004117127E+03  0.12000000000E+03 0.  0.
         25    1    3    3    0    0 -0.32686690105E+02 -0.18889591036E+02 -0.51403113446E+03  0.52920057025E+03  0.12000000000E+03 0.  0.
<mgrwt>
<rscale>  0 0.27483860E+03</rscale>
<asrwt>0</asrwt>
<pdfrwt beam="1">  1        1 0.11443924E+00 0.27483860E+03</pdfrwt>
<pdfrwt beam="2">  1       -1 0.39056541E-02 0.27483860E+03</pdfrwt>
<totfact> 0.65471217E+03</totfact>
</mgrwt>
</event>
<event>
 5    1  0.1111501E+001  0.2729949E+03  0.7818608E-02  0.1099578E+00
          1   -1    0    0  501    0  0.00000000000E+00  0.00000000000E+00  0.30696332001E+03  0.30696332001E+03  0.00000000000E+00 0.  1.
         -1   -1    0    0    0  501 -0.00000000000E+00 -0.00000000000E+00 -0.60696345785E+02  0.60696345785E+02  0.00000000000E+00 0.  1.
         35    2    1    2    0    0  0.00000000000E+00  0.00000000000E+00  0.24626697422E+03  0.36765966579E+03  0.27299488504E+03 0.  0.
         25    1    3    3    0    0  0.22074002712E+02 -0.61179646740E+02  0.12157388819E+03  0.18278517735E+03  0.12000000000E+03 0.  0.
         25    1    3    3    0    0 -0.22074002712E+02  0.61179646740E+02  0.12469308604E+03  0.18487448844E+03  0.12000000000E+03 0.  0.
<mgrwt>
<rscale>  0 0.27299489E+03</rscale>
<asrwt>0</asrwt>
<pdfrwt beam="1">  1        1 0.47225125E-01 0.27299489E+03</pdfrwt>
<pdfrwt beam="2">  1       -1 0.93378995E-02 0.27299489E+03</pdfrwt>
<totfact> 0.57297395E+03</totfact>
</mgrwt>
</event>
<event>
 5    1  0.1111501E+001  0.2743338E+03  0.7818608E-02  0.1098825E+00
          2   -1    0    0  501    0  0.00000000000E+00  0.00000000000E+00  0.15712344989E+04  0.15712344989E+04  0.00000000000E+00 0. -1.
         -2   -1    0    0    0  501 -0.00000000000E+00 -0.00000000000E+00 -0.11974503927E+02  0.11974503927E+02  0.00000000000E+00 0. -1.
         35    2    1    2    0    0  0.00000000000E+00  0.00000000000E+00  0.15592599949E+04  0.15832090028E+04  0.27433376516E+03 0.  0.
         25    1    3    3    0    0 -0.43047341748E+00  0.58681976588E+02  0.95946211506E+03  0.96871632067E+03  0.12000000000E+03 0.  0.
         25    1    3    3    0    0  0.43047341748E+00 -0.58681976588E+02  0.59979787989E+03  0.61449268214E+03  0.12000000000E+03 0.  0.
<mgrwt>
<rscale>  0 0.27433377E+03</rscale>
<asrwt>0</asrwt>
<pdfrwt beam="1">  1        2 0.24172822E+00 0.27433377E+03</pdfrwt>
<pdfrwt beam="2">  1       -2 0.18422326E-02 0.27433377E+03</pdfrwt>
<totfact> 0.10905268E+04</totfact>
</mgrwt>
</event>
<event>
 5    1  0.1111501E+001  0.2751705E+03  0.7818608E-02  0.1098356E+00
          2   -1    0    0  501    0  0.00000000000E+00  0.00000000000E+00  0.37607104450E+04  0.37607104450E+04  0.00000000000E+00 0.  1.
         -2   -1    0    0    0  501 -0.00000000000E+00 -0.00000000000E+00 -0.50335446789E+01  0.50335446789E+01  0.00000000000E+00 0.  1.
         35    2    1    2    0    0  0.00000000000E+00  0.00000000000E+00  0.37556769003E+04  0.37657439897E+04  0.27517052203E+03 0.  0.
         25    1    3    3    0    0 -0.27163049937E+02 -0.27572325845E-01  0.27205437371E+04  0.27233244496E+04  0.12000000000E+03 0.  0.
         25    1    3    3    0    0  0.27163049937E+02  0.27572325845E-01  0.10351331632E+04  0.10424195401E+04  0.12000000000E+03 0.  0.
<mgrwt>
<rscale>  0 0.27517052E+03</rscale>
<asrwt>0</asrwt>
<pdfrwt beam="1">  1        2 0.57856859E+00 0.27517052E+03</pdfrwt>
<pdfrwt beam="2">  1       -2 0.77439449E-03 0.27517052E+03</pdfrwt>
<totfact> 0.20753161E+03</totfact>
</mgrwt>
</event>
<event>
 5    1  0.1111501E+001  0.2751092E+03  0.7818608E-02  0.1098391E+00
          4   -1    0    0  501    0  0.00000000000E+00  0.00000000000E+00  0.47479680236E+02  0.47479680236E+02  0.00000000000E+00 0. -1.
         -4   -1    0    0    0  501 -0.00000000000E+00 -0.00000000000E+00 -0.39851290782E+03  0.39851290782E+03  0.00000000000E+00 0. -1.
         35    2    1    2    0    0  0.00000000000E+00  0.00000000000E+00 -0.35103322759E+03  0.44599258806E+03  0.27510918148E+03 0.  0.
         25    1    3    3    0    0 -0.56652984064E+02  0.23376054216E+02 -0.22036310393E+03  0.25829420839E+03  0.12000000000E+03 0.  0.
         25    1    3    3    0    0  0.56652984064E+02 -0.23376054216E+02 -0.13067012365E+03  0.18769837967E+03  0.12000000000E+03 0.  0.
<mgrwt>
<rscale>  0 0.27510918E+03</rscale>
<asrwt>0</asrwt>
<pdfrwt beam="1">  1        4 0.73045662E-02 0.27510918E+03</pdfrwt>
<pdfrwt beam="2">  1       -4 0.61309678E-01 0.27510918E+03</pdfrwt>
<totfact> 0.60997555E+02</totfact>
</mgrwt>
</event>
<event>
 5    1  0.1111501E+001  0.2726772E+03  0.7818608E-02  0.1099757E+00
          2   -1    0    0  501    0  0.00000000000E+00  0.00000000000E+00  0.35463867591E+03  0.35463867591E+03  0.00000000000E+00 0.  1.
         -2   -1    0    0    0  501 -0.00000000000E+00 -0.00000000000E+00 -0.52414498977E+02  0.52414498977E+02  0.00000000000E+00 0.  1.
         35    2    1    2    0    0  0.00000000000E+00  0.00000000000E+00  0.30222417694E+03  0.40705317489E+03  0.27267716088E+03 0.  0.
         25    1    3    3    0    0  0.55944784605E+02 -0.25141600536E+02  0.18193365496E+03  0.22641063096E+03  0.12000000000E+03 0.  0.
         25    1    3    3    0    0 -0.55944784605E+02  0.25141600536E+02  0.12029052197E+03  0.18064254393E+03  0.12000000000E+03 0.  0.
<mgrwt>
<rscale>  0 0.27267716E+03</rscale>
<asrwt>0</asrwt>
<pdfrwt beam="1">  1        2 0.54559795E-01 0.27267716E+03</pdfrwt>
<pdfrwt beam="2">  1       -2 0.80637693E-02 0.27267716E+03</pdfrwt>
<totfact> 0.84418994E+03</totfact>
</mgrwt>
</event>
<event>
 5    1  0.1111501E+001  0.2778010E+03  0.7818608E-02  0.1096896E+00
          1   -1    0    0  501    0  0.00000000000E+00  0.00000000000E+00  0.11066770835E+04  0.11066770835E+04  0.00000000000E+00 0.  1.
         -1   -1    0    0    0  501 -0.00000000000E+00 -0.00000000000E+00 -0.17433580186E+02  0.17433580186E+02  0.00000000000E+00 0.  1.
         35    2    1    2    0    0  0.00000000000E+00  0.00000000000E+00  0.10892435033E+04  0.11241106636E+04  0.27780096238E+03 0.  0.
         25    1    3    3    0    0 -0.51825433648E+02  0.46646451139E+02  0.52188341578E+03  0.54002228347E+03  0.12000000000E+03 0.  0.
         25    1    3    3    0    0  0.51825433648E+02 -0.46646451139E+02  0.56736008749E+03  0.58408838018E+03  0.12000000000E+03 0.  0.
<mgrwt>
<rscale>  0 0.27780096E+03</rscale>
<asrwt>0</asrwt>
<pdfrwt beam="1">  1        1 0.17025796E+00 0.27780096E+03</pdfrwt>
<pdfrwt beam="2">  1       -1 0.26820901E-02 0.27780096E+03</pdfrwt>
<totfact> 0.59397101E+03</totfact>
</mgrwt>
</event>
<event>
 5    1  0.1111501E+001  0.2750278E+03  0.7818608E-02  0.1098436E+00
         -4   -1    0    0    0  501 -0.00000000000E+00  0.00000000000E+00  0.70127929495E+03  0.70127929495E+03  0.00000000000E+00 0.  1.
          4   -1    0    0  501    0  0.00000000000E+00 -0.00000000000E+00 -0.26965118394E+02  0.26965118394E+02  0.00000000000E+00 0.  1.
         35    2    1    2    0    0  0.00000000000E+00  0.00000000000E+00  0.67431417655E+03  0.72824441334E+03  0.27502784743E+03 0.  0.
         25    1    3    3    0    0  0.22587799587E+02 -0.37968427821E+02  0.47108577100E+03  0.48813278300E+03  0.12000000000E+03 0.  0.
         25    1    3    3    0    0 -0.22587799587E+02  0.37968427821E+02  0.20322840555E+03  0.24011163034E+03  0.12000000000E+03 0.  0.
<mgrwt>
<rscale>  0 0.27502785E+03</rscale>
<asrwt>0</asrwt>
<pdfrwt beam="1">  1        4 0.41484803E-02 0.27502785E+03</pdfrwt>
<pdfrwt beam="2">  1       -4 0.10788911E+00 0.27502785E+03</pdfrwt>
<totfact> 0.43112004E+02</totfact>
</mgrwt>
</event>
<event>
 5    1  0.1111501E+001  0.2744005E+03  0.7818608E-02  0.1098787E+00
         -1   -1    0    0    0  501 -0.00000000000E+00  0.00000000000E+00  0.56006147498E+02  0.56006147498E+02  0.00000000000E+00 0.  1.
          1   -1    0    0  501    0  0.00000000000E+00 -0.00000000000E+00 -0.33610421019E+03  0.33610421019E+03  0.00000000000E+00 0.  1.
         35    2    1    2    0    0  0.00000000000E+00  0.00000000000E+00 -0.28009806270E+03  0.39211035769E+03  0.27440045168E+03 0.  0.
         25    1    3    3    0    0 -0.16826265108E+02  0.51182735786E+02 -0.19578085824E+03  0.23586636066E+03  0.12000000000E+03 0.  0.
         25    1    3    3    0    0  0.16826265108E+02 -0.51182735786E+02 -0.84317204459E+02  0.15624399703E+03  0.12000000000E+03 0.  0.
<mgrwt>
<rscale>  0 0.27440045E+03</rscale>
<asrwt>0</asrwt>
<pdfrwt beam="1">  1        1 0.51708341E-01 0.27440045E+03</pdfrwt>
<pdfrwt beam="2">  1       -1 0.86163302E-02 0.27440045E+03</pdfrwt>
<totfact> 0.57833905E+03</totfact>
</mgrwt>
</event>
<event>
 5    1  0.1111501E+001  0.2745022E+03  0.7818608E-02  0.1098730E+00
         -2   -1    0    0    0  501 -0.00000000000E+00  0.00000000000E+00  0.32373156823E+02  0.32373156823E+02  0.00000000000E+00 0.  1.
          2   -1    0    0  501    0  0.00000000000E+00 -0.00000000000E+00 -0.58189763508E+03  0.58189763508E+03  0.00000000000E+00 0.  1.
         35    2    1    2    0    0  0.00000000000E+00  0.00000000000E+00 -0.54952447826E+03  0.61427079191E+03  0.27450219231E+03 0.  0.
         25    1    3    3    0    0 -0.33211133607E+02  0.53036614579E+02 -0.32588919430E+03  0.35287338925E+03  0.12000000000E+03 0.  0.
         25    1    3    3    0    0  0.33211133607E+02 -0.53036614579E+02 -0.22363528396E+03  0.26139740266E+03  0.12000000000E+03 0.  0.
<mgrwt>
<rscale>  0 0.27450219E+03</rscale>
<asrwt>0</asrwt>
<pdfrwt beam="1">  1        2 0.89522707E-01 0.27450219E+03</pdfrwt>
<pdfrwt beam="2">  1       -2 0.49804860E-02 0.27450219E+03</pdfrwt>
<totfact> 0.10249815E+04</totfact>
</mgrwt>
</event>
<event>
 5    1  0.1111501E+001  0.2759249E+03  0.7818608E-02  0.1097936E+00
         -2   -1    0    0    0  501 -0.00000000000E+00  0.00000000000E+00  0.95724150738E+01  0.95724150738E+01  0.00000000000E+00 0.  1.
          2   -1    0    0  501    0  0.00000000000E+00 -0.00000000000E+00 -0.19883839015E+04  0.19883839015E+04  0.00000000000E+00 0.  1.
         35    2    1    2    0    0  0.00000000000E+00  0.00000000000E+00 -0.19788114864E+04  0.19979563165E+04  0.27592488855E+03 0.  0.
         25    1    3    3    0    0  0.60564213307E+02 -0.22111971972E+02 -0.83131541725E+03  0.84240268649E+03  0.12000000000E+03 0.  0.
         25    1    3    3    0    0 -0.60564213307E+02  0.22111971972E+02 -0.11474960691E+04  0.11555536300E+04  0.12000000000E+03 0.  0.
<mgrwt>
<rscale>  0 0.27592489E+03</rscale>
<asrwt>0</asrwt>
<pdfrwt beam="1">  1        2 0.30590539E+00 0.27592489E+03</pdfrwt>
<pdfrwt beam="2">  1       -2 0.14726784E-02 0.27592489E+03</pdfrwt>
<totfact> 0.91324107E+03</totfact>
</mgrwt>
</event>
<event>
 5    1  0.1111501E+001  0.2761004E+03  0.7818608E-02  0.1097838E+00
         -1   -1    0    0    0  501 -0.00000000000E+00  0.00000000000E+00  0.50160931041E+02  0.50160931041E+02  0.00000000000E+00 0.  1.
          1   -1    0    0  501    0  0.00000000000E+00 -0.00000000000E+00 -0.37993418472E+03  0.37993418472E+03  0.00000000000E+00 0.  1.
         35    2    1    2    0    0  0.00000000000E+00  0.00000000000E+00 -0.32977325368E+03  0.43009511576E+03  0.27610036175E+03 0.  0.
         25    1    3    3    0    0  0.56236300579E+02  0.19299893611E+02 -0.11268819594E+03  0.17502467512E+03  0.12000000000E+03 0.  0.
         25    1    3    3    0    0 -0.56236300579E+02 -0.19299893611E+02 -0.21708505774E+03  0.25507044064E+03  0.12000000000E+03 0.  0.
<mgrwt>
<rscale>  0 0.27610036E+03</rscale>
<asrwt>0</asrwt>
<pdfrwt beam="1">  1        1 0.58451411E-01 0.27610036E+03</pdfrwt>
<pdfrwt beam="2">  1       -1 0.77170665E-02 0.27610036E+03</pdfrwt>
<totfact> 0.58591862E+03</totfact>
</mgrwt>
</event>
<event>
 5    1  0.1111501E+001  0.2749964E+03  0.7818608E-02  0.1098454E+00
         -1   -1    0    0    0  501 -0.00000000000E+00  0.00000000000E+00  0.15214360059E+02  0.15214360059E+02  0.00000000000E+00 0. -1.
          1   -1    0    0  501    0  0.00000000000E+00 -0.00000000000E+00 -0.12426254121E+04  0.12426254121E+04  0.00000000000E+00 0. -1.
         35    2    1    2    0    0  0.00000000000E+00  0.00000000000E+00 -0.12274110520E+04  0.12578397721E+04  0.27499636679E+03 0.  0.
         25    1    3    3    0    0 -0.41537683318E+02 -0.45532593487E+02 -0.73533965211E+03  0.74761153025E+03  0.12000000000E+03 0.  0.
         25    1    3    3    0    0  0.41537683318E+02  0.45532593487E+02 -0.49207139990E+03  0.51022824188E+03  0.12000000000E+03 0.  0.
<mgrwt>
<rscale>  0 0.27499637E+03</rscale>
<asrwt>0</asrwt>
<pdfrwt beam="1">  1        1 0.19117320E+00 0.27499637E+03</pdfrwt>
<pdfrwt beam="2">  1       -1 0.23406700E-02 0.27499637E+03</pdfrwt>
<totfact> 0.58173860E+03</totfact>
</mgrwt>
</event>
<event>
 5    1  0.1111501E+001  0.2751738E+03  0.7818608E-02  0.1098354E+00
          1   -1    0    0  501    0  0.00000000000E+00  0.00000000000E+00  0.84441680367E+02  0.84441680367E+02  0.00000000000E+00 0. -1.
         -1   -1    0    0    0  501 -0.00000000000E+00 -0.00000000000E+00 -0.22418025483E+03  0.22418025483E+03  0.00000000000E+00 0. -1.
         35    2    1    2    0    0  0.00000000000E+00  0.00000000000E+00 -0.13973857446E+03  0.30862193520E+03  0.27517381724E+03 0.  0.
         25    1    3    3    0    0  0.23289327922E+02 -0.30648951083E+02 -0.79456987416E+01  0.12627305780E+03  0.12000000000E+03 0.  0.
         25    1    3    3    0    0 -0.23289327922E+02  0.30648951083E+02 -0.13179287572E+03  0.18234887740E+03  0.12000000000E+03 0.  0.
<mgrwt>
<rscale>  0 0.27517382E+03</rscale>
<asrwt>0</asrwt>
<pdfrwt beam="1">  1        1 0.12991028E-01 0.27517382E+03</pdfrwt>
<pdfrwt beam="2">  1       -1 0.34489270E-01 0.27517382E+03</pdfrwt>
<totfact> 0.36024884E+03</totfact>
</mgrwt>
</event>
<event>
 5    1  0.1111501E+001  0.2744176E+03  0.7818608E-02  0.1098778E+00
         -1   -1    0    0    0  501 -0.00000000000E+00  0.00000000000E+00  0.13402579014E+03  0.13402579014E+03  0.00000000000E+00 0.  1.
          1   -1    0    0  501    0  0.00000000000E+00 -0.00000000000E+00 -0.14046736286E+03  0.14046736286E+03  0.00000000000E+00 0.  1.
         35    2    1    2    0    0  0.00000000000E+00  0.00000000000E+00 -0.64415727190E+01  0.27449315300E+03  0.27441755990E+03 0.  0.
         25    1    3    3    0    0 -0.32627069685E+01  0.15477990413E+02 -0.67860842766E+02  0.13876349457E+03  0.12000000000E+03 0.  0.
         25    1    3    3    0    0  0.32627069685E+01 -0.15477990413E+02  0.61419270047E+02  0.13572965843E+03  0.12000000000E+03 0.  0.
<mgrwt>
<rscale>  0 0.27441756E+03</rscale>
<asrwt>0</asrwt>
<pdfrwt beam="1">  1        1 0.21610363E-01 0.27441756E+03</pdfrwt>
<pdfrwt beam="2">  1       -1 0.20619353E-01 0.27441756E+03</pdfrwt>
<totfact> 0.44001401E+03</totfact>
</mgrwt>
</event>
<event>
 5    1  0.1111501E+001  0.2757165E+03  0.7818608E-02  0.1098052E+00
          2   -1    0    0  501    0  0.00000000000E+00  0.00000000000E+00  0.37755789294E+03  0.37755789294E+03  0.00000000000E+00 0. -1.
         -2   -1    0    0    0  501 -0.00000000000E+00 -0.00000000000E+00 -0.50336368830E+02  0.50336368830E+02  0.00000000000E+00 0. -1.
         35    2    1    2    0    0  0.00000000000E+00  0.00000000000E+00  0.32722152411E+03  0.42789426177E+03  0.27571647287E+03 0.  0.
         25    1    3    3    0    0  0.29217116000E+02  0.58542652270E+02  0.13567542851E+03  0.19258427740E+03  0.12000000000E+03 0.  0.
         25    1    3    3    0    0 -0.29217116000E+02 -0.58542652270E+02  0.19154609560E+03  0.23530998436E+03  0.12000000000E+03 0.  0.
<mgrwt>
<rscale>  0 0.27571647E+03</rscale>
<asrwt>0</asrwt>
<pdfrwt beam="1">  1        2 0.58085828E-01 0.27571647E+03</pdfrwt>
<pdfrwt beam="2">  1       -2 0.77440570E-02 0.27571647E+03</pdfrwt>
<totfact> 0.84069762E+03</totfact>
</mgrwt>
</event>
<event>
 5    1  0.1111501E+001  0.2755519E+03  0.7818608E-02  0.1098143E+00
          1   -1    0    0  501    0  0.00000000000E+00  0.00000000000E+00  0.45951459655E+03  0.45951459655E+03  0.00000000000E+00 0. -1.
         -1   -1    0    0    0  501 -0.00000000000E+00 -0.00000000000E+00 -0.41309280564E+02  0.41309280564E+02  0.00000000000E+00 0. -1.
         35    2    1    2    0    0  0.00000000000E+00  0.00000000000E+00  0.41820531599E+03  0.50082387712E+03  0.27555193625E+03 0.  0.
         25    1    3    3    0    0 -0.30582352730E+02 -0.59775819767E+02  0.22471527827E+03  0.26344901825E+03  0.12000000000E+03 0.  0.
         25    1    3    3    0    0  0.30582352730E+02  0.59775819767E+02  0.19349003772E+03  0.23737485887E+03  0.12000000000E+03 0.  0.
<mgrwt>
<rscale>  0 0.27555194E+03</rscale>
<asrwt>0</asrwt>
<pdfrwt beam="1">  1        1 0.70694550E-01 0.27555194E+03</pdfrwt>
<pdfrwt beam="2">  1       -1 0.63552743E-02 0.27555194E+03</pdfrwt>
<totfact> 0.61552344E+03</totfact>
</mgrwt>
</event>
<event>
 5    1  0.1111501E+001  0.2744620E+03  0.7818608E-02  0.1098753E+00
         -2   -1    0    0    0  501 -0.00000000000E+00  0.00000000000E+00  0.56004854706E+01  0.56004854706E+01  0.00000000000E+00 0.  1.
          2   -1    0    0  501    0  0.00000000000E+00 -0.00000000000E+00 -0.33626277417E+04  0.33626277417E+04  0.00000000000E+00 0.  1.
         35    2    1    2    0    0  0.00000000000E+00  0.00000000000E+00 -0.33570272563E+04  0.33682282272E+04  0.27446200328E+03 0.  0.
         25    1    3    3    0    0  0.60510133141E+02 -0.18891851772E+02 -0.14288222924E+04  0.14352531210E+04  0.12000000000E+03 0.  0.
         25    1    3    3    0    0 -0.60510133141E+02  0.18891851772E+02 -0.19282049639E+04  0.19329751062E+04  0.12000000000E+03 0.  0.
<mgrwt>
<rscale>  0 0.27446200E+03</rscale>
<asrwt>0</asrwt>
<pdfrwt beam="1">  1        2 0.51732606E+00 0.27446200E+03</pdfrwt>
<pdfrwt beam="2">  1       -2 0.86161529E-03 0.27446200E+03</pdfrwt>
<totfact> 0.32986689E+03</totfact>
</mgrwt>
</event>
<event>
 5    1  0.1111501E+001  0.2764519E+03  0.7818608E-02  0.1097643E+00
         -2   -1    0    0    0  501 -0.00000000000E+00  0.00000000000E+00  0.15743218023E+03  0.15743218023E+03  0.00000000000E+00 0.  1.
          2   -1    0    0  501    0  0.00000000000E+00 -0.00000000000E+00 -0.12136277854E+03  0.12136277854E+03  0.00000000000E+00 0.  1.
         35    2    1    2    0    0  0.00000000000E+00  0.00000000000E+00  0.36069401685E+02  0.27879495877E+03  0.27645185349E+03 0.  0.
         25    1    3    3    0    0 -0.39087793618E+02 -0.18062225826E+02 -0.35824953326E+02  0.13242932792E+03  0.12000000000E+03 0.  0.
         25    1    3    3    0    0  0.39087793618E+02  0.18062225826E+02  0.71894355011E+02  0.14636563085E+03  0.12000000000E+03 0.  0.
<mgrwt>
<rscale>  0 0.27645185E+03</rscale>
<asrwt>0</asrwt>
<pdfrwt beam="1">  1        2 0.18671197E-01 0.27645185E+03</pdfrwt>
<pdfrwt beam="2">  1       -2 0.24220335E-01 0.27645185E+03</pdfrwt>
<totfact> 0.44960570E+03</totfact>
</mgrwt>
</event>
<event>
 5    1  0.1111501E+001  0.2743271E+03  0.7818608E-02  0.1098828E+00
         -1   -1    0    0    0  501 -0.00000000000E+00  0.00000000000E+00  0.10286827470E+04  0.10286827470E+04  0.00000000000E+00 0.  1.
          1   -1    0    0  501    0  0.00000000000E+00 -0.00000000000E+00 -0.18289250652E+02  0.18289250652E+02  0.00000000000E+00 0.  1.
         35    2    1    2    0    0  0.00000000000E+00  0.00000000000E+00  0.10103934963E+04  0.10469719976E+04  0.27432707923E+03 0.  0.
         25    1    3    3    0    0  0.32367966336E+01 -0.27329424343E+02  0.27441740265E+03  0.30076948842E+03  0.12000000000E+03 0.  0.
         25    1    3    3    0    0 -0.32367966336E+01  0.27329424343E+02  0.73597609367E+03  0.74620250921E+03  0.12000000000E+03 0.  0.
<mgrwt>
<rscale>  0 0.27432708E+03</rscale>
<asrwt>0</asrwt>
<pdfrwt beam="1">  1        1 0.28137317E-02 0.27432708E+03</pdfrwt>
<pdfrwt beam="2">  1       -1 0.15825884E+00 0.27432708E+03</pdfrwt>
<totfact> 0.12224719E+03</totfact>
</mgrwt>
</event>
<event>
 5    1  0.1111501E+001  0.2750493E+03  0.7818608E-02  0.1098424E+00
         -1   -1    0    0    0  501 -0.00000000000E+00  0.00000000000E+00  0.50796950305E+02  0.50796950305E+02  0.00000000000E+00 0. -1.
          1   -1    0    0  501    0  0.00000000000E+00 -0.00000000000E+00 -0.37232618604E+03  0.37232618604E+03  0.00000000000E+00 0. -1.
         35    2    1    2    0    0  0.00000000000E+00  0.00000000000E+00 -0.32152923574E+03  0.42312313634E+03  0.27504933935E+03 0.  0.
         25    1    3    3    0    0  0.48609039906E+02  0.24703411853E+02 -0.10039649001E+03  0.16568811824E+03  0.12000000000E+03 0.  0.
         25    1    3    3    0    0 -0.48609039906E+02 -0.24703411853E+02 -0.22113274572E+03  0.25743501811E+03  0.12000000000E+03 0.  0.
<mgrwt>
<rscale>  0 0.27504934E+03</rscale>
<asrwt>0</asrwt>
<pdfrwt beam="1">  1        1 0.57280953E-01 0.27504934E+03</pdfrwt>
<pdfrwt beam="2">  1       -1 0.78149153E-02 0.27504934E+03</pdfrwt>
<totfact> 0.58970566E+03</totfact>
</mgrwt>
</event>
<event>
 5    1  0.1111501E+001  0.2763937E+03  0.7818608E-02  0.1097675E+00
         -2   -1    0    0    0  501 -0.00000000000E+00  0.00000000000E+00  0.71473539006E+01  0.71473539006E+01  0.00000000000E+00 0.  1.
          2   -1    0    0  501    0  0.00000000000E+00 -0.00000000000E+00 -0.26720902284E+04  0.26720902284E+04  0.00000000000E+00 0.  1.
         35    2    1    2    0    0  0.00000000000E+00  0.00000000000E+00 -0.26649428745E+04  0.26792375823E+04  0.27639373739E+03 0.  0.
         25    1    3    3    0    0  0.18370816181E+02 -0.32149434033E+02 -0.77332043542E+03  0.78345106345E+03  0.12000000000E+03 0.  0.
         25    1    3    3    0    0 -0.18370816181E+02  0.32149434033E+02 -0.18916224391E+04  0.18957865189E+04  0.12000000000E+03 0.  0.
<mgrwt>
<rscale>  0 0.27639374E+03</rscale>
<asrwt>0</asrwt>
<pdfrwt beam="1">  1        2 0.41109078E+00 0.27639374E+03</pdfrwt>
<pdfrwt beam="2">  1       -2 0.10995930E-02 0.27639374E+03</pdfrwt>
<totfact> 0.59781465E+03</totfact>
</mgrwt>
</event>
<event>
 5    1  0.1111501E+001  0.2741523E+03  0.7818608E-02  0.1098926E+00
          2   -1    0    0  501    0  0.00000000000E+00  0.00000000000E+00  0.16927035541E+04  0.16927035541E+04  0.00000000000E+00 0.  1.
         -2   -1    0    0    0  501 -0.00000000000E+00 -0.00000000000E+00 -0.11100505263E+02  0.11100505263E+02  0.00000000000E+00 0.  1.
         35    2    1    2    0    0  0.00000000000E+00  0.00000000000E+00  0.16816030488E+04  0.17038040594E+04  0.27415225486E+03 0.  0.
         25    1    3    3    0    0 -0.59423968783E+01  0.62253998269E+02  0.70478486456E+03  0.71765770232E+03  0.12000000000E+03 0.  0.
         25    1    3    3    0    0  0.59423968783E+01 -0.62253998269E+02  0.97681818429E+03  0.98614635706E+03  0.12000000000E+03 0.  0.
<mgrwt>
<rscale>  0 0.27415225E+03</rscale>
<asrwt>0</asrwt>
<pdfrwt beam="1">  1        2 0.26041573E+00 0.27415225E+03</pdfrwt>
<pdfrwt beam="2">  1       -2 0.17077714E-02 0.27415225E+03</pdfrwt>
<totfact> 0.10512340E+04</totfact>
</mgrwt>
</event>
<event>
 4    1  0.1111501E+001  0.3078313E+03  0.7818608E-02  0.1081390E+00
          1   -1    0    0  501    0  0.00000000000E+00  0.00000000000E+00  0.24239259011E+04  0.24239259011E+04  0.00000000000E+00 0.  1.
         -1   -1    0    0    0  501 -0.00000000000E+00 -0.00000000000E+00 -0.97734149411E+01  0.97734149411E+01  0.00000000000E+00 0.  1.
         25    1    1    2    0    0  0.13212914684E+02  0.67820722683E+02  0.67579860628E+03  0.68983910283E+03  0.12000000000E+03 0.  0.
         25    1    1    2    0    0 -0.13212914684E+02 -0.67820722683E+02  0.17383538799E+04  0.17438602132E+04  0.12000000000E+03 0.  0.
<mgrwt>
<rscale>  0 0.30783134E+03</rscale>
<asrwt>0</asrwt>
<pdfrwt beam="1">  1        1 0.37291120E+00 0.30783134E+03</pdfrwt>
<pdfrwt beam="2">  1       -1 0.15036042E-02 0.30783134E+03</pdfrwt>
<totfact> 0.18485711E+03</totfact>
</mgrwt>
</event>
<event>
 5    1  0.1111501E+001  0.2751405E+03  0.7818608E-02  0.1098373E+00
         -1   -1    0    0    0  501 -0.00000000000E+00  0.00000000000E+00  0.11149014120E+02  0.11149014120E+02  0.00000000000E+00 0. -1.
          1   -1    0    0  501    0  0.00000000000E+00 -0.00000000000E+00 -0.16975110528E+04  0.16975110528E+04  0.00000000000E+00 0. -1.
         35    2    1    2    0    0  0.00000000000E+00  0.00000000000E+00 -0.16863620387E+04  0.17086600670E+04  0.27514050735E+03 0.  0.
         25    1    3    3    0    0 -0.59497335966E+02  0.53346037958E+01 -0.10353126133E+04  0.10439543085E+04  0.12000000000E+03 0.  0.
         25    1    3    3    0    0  0.59497335966E+02 -0.53346037958E+01 -0.65104942543E+03  0.66470575846E+03  0.12000000000E+03 0.  0.
<mgrwt>
<rscale>  0 0.27514051E+03</rscale>
<asrwt>0</asrwt>
<pdfrwt beam="1">  1        1 0.26115536E+00 0.27514051E+03</pdfrwt>
<pdfrwt beam="2">  1       -1 0.17152341E-02 0.27514051E+03</pdfrwt>
<totfact> 0.45548926E+03</totfact>
</mgrwt>
</event>
<event>
 5    1  0.1111501E+001  0.2773984E+03  0.7818608E-02  0.1097118E+00
          2   -1    0    0  501    0  0.00000000000E+00  0.00000000000E+00  0.84003841960E+03  0.84003841960E+03  0.00000000000E+00 0. -1.
         -2   -1    0    0    0  501 -0.00000000000E+00 -0.00000000000E+00 -0.22900695328E+02  0.22900695328E+02  0.00000000000E+00 0. -1.
         35    2    1    2    0    0  0.00000000000E+00  0.00000000000E+00  0.81713772428E+03  0.86293911493E+03  0.27739836994E+03 0.  0.
         25    1    3    3    0    0 -0.66411254115E+02 -0.11687032902E+02  0.46158296058E+03  0.48166987752E+03  0.12000000000E+03 0.  0.
         25    1    3    3    0    0  0.66411254115E+02  0.11687032902E+02  0.35555476369E+03  0.38126923741E+03  0.12000000000E+03 0.  0.
<mgrwt>
<rscale>  0 0.27739837E+03</rscale>
<asrwt>0</asrwt>
<pdfrwt beam="1">  1        2 0.12923666E+00 0.27739837E+03</pdfrwt>
<pdfrwt beam="2">  1       -2 0.35231846E-02 0.27739837E+03</pdfrwt>
<totfact> 0.11051125E+04</totfact>
</mgrwt>
</event>
<event>
 5    1  0.1111501E+001  0.2746765E+03  0.7818608E-02  0.1098633E+00
          2   -1    0    0  501    0  0.00000000000E+00  0.00000000000E+00  0.51652657133E+03  0.51652657133E+03  0.00000000000E+00 0.  1.
         -2   -1    0    0    0  501 -0.00000000000E+00 -0.00000000000E+00 -0.36516603700E+02  0.36516603700E+02  0.00000000000E+00 0.  1.
         35    2    1    2    0    0  0.00000000000E+00  0.00000000000E+00  0.48000996763E+03  0.55304317502E+03  0.27467650868E+03 0.  0.
         25    1    3    3    0    0 -0.24002796935E+02  0.19335055838E+02  0.12068766508E+03  0.17296095266E+03  0.12000000000E+03 0.  0.
         25    1    3    3    0    0  0.24002796935E+02 -0.19335055838E+02  0.35932230255E+03  0.38008222236E+03  0.12000000000E+03 0.  0.
<mgrwt>
<rscale>  0 0.27467651E+03</rscale>
<asrwt>0</asrwt>
<pdfrwt beam="1">  1        2 0.79465621E-01 0.27467651E+03</pdfrwt>
<pdfrwt beam="2">  1       -2 0.56179394E-02 0.27467651E+03</pdfrwt>
<totfact> 0.97708214E+03</totfact>
</mgrwt>
</event>
<event>
 5    1  0.1111501E+001  0.2751250E+03  0.7818608E-02  0.1098382E+00
         -3   -1    0    0    0  501 -0.00000000000E+00  0.00000000000E+00  0.54738309708E+02  0.54738309708E+02  0.00000000000E+00 0. -1.
          3   -1    0    0  501    0  0.00000000000E+00 -0.00000000000E+00 -0.34570756746E+03  0.34570756746E+03  0.00000000000E+00 0. -1.
         35    2    1    2    0    0  0.00000000000E+00  0.00000000000E+00 -0.29096925775E+03  0.40044587717E+03  0.27512504718E+03 0.  0.
         25    1    3    3    0    0  0.44098379177E+01 -0.33946560345E+02 -0.61220666348E+02  0.13899563165E+03  0.12000000000E+03 0.  0.
         25    1    3    3    0    0 -0.44098379177E+01  0.33946560345E+02 -0.22974859140E+03  0.26145024552E+03  0.12000000000E+03 0.  0.
<mgrwt>
<rscale>  0 0.27512505E+03</rscale>
<asrwt>0</asrwt>
<pdfrwt beam="1">  1        3 0.53185780E-01 0.27512505E+03</pdfrwt>
<pdfrwt beam="2">  1       -3 0.84212784E-02 0.27512505E+03</pdfrwt>
<totfact> 0.87942825E+02</totfact>
</mgrwt>
</event>
<event>
 5    1  0.1111501E+001  0.2761354E+03  0.7818608E-02  0.1097819E+00
          4   -1    0    0  501    0  0.00000000000E+00  0.00000000000E+00  0.19590138232E+03  0.19590138232E+03  0.00000000000E+00 0. -1.
         -4   -1    0    0    0  501 -0.00000000000E+00 -0.00000000000E+00 -0.97307558804E+02  0.97307558804E+02  0.00000000000E+00 0. -1.
         35    2    1    2    0    0  0.00000000000E+00  0.00000000000E+00  0.98593823512E+02  0.29320894112E+03  0.27613536738E+03 0.  0.
         25    1    3    3    0    0 -0.46356819800E+02  0.34477370258E+02  0.10645095035E+02  0.13360749174E+03  0.12000000000E+03 0.  0.
         25    1    3    3    0    0  0.46356819800E+02 -0.34477370258E+02  0.87948728477E+02  0.15960144937E+03  0.12000000000E+03 0.  0.
<mgrwt>
<rscale>  0 0.27613537E+03</rscale>
<asrwt>0</asrwt>
<pdfrwt beam="1">  1        4 0.30138674E-01 0.27613537E+03</pdfrwt>
<pdfrwt beam="2">  1       -4 0.14970394E-01 0.27613537E+03</pdfrwt>
<totfact> 0.74798288E+02</totfact>
</mgrwt>
</event>
<event>
 5    1  0.1111501E+001  0.2772901E+03  0.7818608E-02  0.1097178E+00
          1   -1    0    0  501    0  0.00000000000E+00  0.00000000000E+00  0.82713773083E+02  0.82713773083E+02  0.00000000000E+00 0. -1.
         -1   -1    0    0    0  501 -0.00000000000E+00 -0.00000000000E+00 -0.23239719600E+03  0.23239719600E+03  0.00000000000E+00 0. -1.
         35    2    1    2    0    0  0.00000000000E+00  0.00000000000E+00 -0.14968342292E+03  0.31511096909E+03  0.27729009312E+03 0.  0.
         25    1    3    3    0    0  0.54239895645E+02 -0.43326122333E+02 -0.76915368326E+02  0.15854050915E+03  0.12000000000E+03 0.  0.
         25    1    3    3    0    0 -0.54239895645E+02  0.43326122333E+02 -0.72768054594E+02  0.15657045994E+03  0.12000000000E+03 0.  0.
<mgrwt>
<rscale>  0 0.27729009E+03</rscale>
<asrwt>0</asrwt>
<pdfrwt beam="1">  1        1 0.12725196E-01 0.27729009E+03</pdfrwt>
<pdfrwt beam="2">  1       -1 0.35753414E-01 0.27729009E+03</pdfrwt>
<totfact> 0.34786243E+03</totfact>
</mgrwt>
</event>
<event>
 5    1  0.1111501E+001  0.2737046E+03  0.7818608E-02  0.1099178E+00
         -1   -1    0    0    0  501 -0.00000000000E+00  0.00000000000E+00  0.11299876907E+04  0.11299876907E+04  0.00000000000E+00 0.  1.
          1   -1    0    0  501    0  0.00000000000E+00 -0.00000000000E+00 -0.16574122077E+02  0.16574122077E+02  0.00000000000E+00 0.  1.
         35    2    1    2    0    0  0.00000000000E+00  0.00000000000E+00  0.11134135686E+04  0.11465618128E+04  0.27370461400E+03 0.  0.
         25    1    3    3    0    0  0.15743311758E+02 -0.28917819434E+02  0.31809785822E+03  0.34157040204E+03  0.12000000000E+03 0.  0.
         25    1    3    3    0    0 -0.15743311758E+02  0.28917819434E+02  0.79531571039E+03  0.80499141073E+03  0.12000000000E+03 0.  0.
<mgrwt>
<rscale>  0 0.27370461E+03</rscale>
<asrwt>0</asrwt>
<pdfrwt beam="1">  1        1 0.25498658E-02 0.27370461E+03</pdfrwt>
<pdfrwt beam="2">  1       -1 0.17384420E+00 0.27370461E+03</pdfrwt>
<totfact> 0.10833763E+03</totfact>
</mgrwt>
</event>
<event>
 5    1  0.1111501E+001  0.2754739E+03  0.7818608E-02  0.1098187E+00
          2   -1    0    0  501    0  0.00000000000E+00  0.00000000000E+00  0.22761707603E+03  0.22761707603E+03  0.00000000000E+00 0.  1.
         -2   -1    0    0    0  501 -0.00000000000E+00 -0.00000000000E+00 -0.83348146237E+02  0.83348146237E+02  0.00000000000E+00 0.  1.
         35    2    1    2    0    0  0.00000000000E+00  0.00000000000E+00  0.14426892979E+03  0.31096522227E+03  0.27547385603E+03 0.  0.
         25    1    3    3    0    0 -0.19604585027E+02  0.57502798799E+02  0.10563165464E+03  0.17102326768E+03  0.12000000000E+03 0.  0.
         25    1    3    3    0    0  0.19604585027E+02 -0.57502798799E+02  0.38637275149E+02  0.13994195459E+03  0.12000000000E+03 0.  0.
<mgrwt>
<rscale>  0 0.27547386E+03</rscale>
<asrwt>0</asrwt>
<pdfrwt beam="1">  1        2 0.35018011E-01 0.27547386E+03</pdfrwt>
<pdfrwt beam="2">  1       -2 0.12822792E-01 0.27547386E+03</pdfrwt>
<totfact> 0.65086237E+03</totfact>
</mgrwt>
</event>
<event>
 5    1  0.1111501E+001  0.2754656E+03  0.7818608E-02  0.1098192E+00
         -2   -1    0    0    0  501 -0.00000000000E+00  0.00000000000E+00  0.78556716692E+01  0.78556716692E+01  0.00000000000E+00 0.  1.
          2   -1    0    0  501    0  0.00000000000E+00 -0.00000000000E+00 -0.24148566783E+04  0.24148566783E+04  0.00000000000E+00 0.  1.
         35    2    1    2    0    0  0.00000000000E+00  0.00000000000E+00 -0.24070010066E+04  0.24227123500E+04  0.27546557820E+03 0.  0.
         25    1    3    3    0    0  0.12102674317E+02  0.65082830603E+02 -0.13241140692E+04  0.13311875592E+04  0.12000000000E+03 0.  0.
         25    1    3    3    0    0 -0.12102674317E+02 -0.65082830603E+02 -0.10828869374E+04  0.10915247907E+04  0.12000000000E+03 0.  0.
<mgrwt>
<rscale>  0 0.27546558E+03</rscale>
<asrwt>0</asrwt>
<pdfrwt beam="1">  1        2 0.37151667E+00 0.27546558E+03</pdfrwt>
<pdfrwt beam="2">  1       -2 0.12085640E-02 0.27546558E+03</pdfrwt>
<totfact> 0.72219350E+03</totfact>
</mgrwt>
</event>
<event>
 5    1  0.1111501E+001  0.2749890E+03  0.7818608E-02  0.1098458E+00
         -4   -1    0    0    0  501 -0.00000000000E+00  0.00000000000E+00  0.17382340081E+02  0.17382340081E+02  0.00000000000E+00 0.  1.
          4   -1    0    0  501    0  0.00000000000E+00 -0.00000000000E+00 -0.10875828247E+04  0.10875828247E+04  0.00000000000E+00 0.  1.
         35    2    1    2    0    0  0.00000000000E+00  0.00000000000E+00 -0.10702004846E+04  0.11049651648E+04  0.27498897814E+03 0.  0.
         25    1    3    3    0    0 -0.28529777571E+02 -0.60525936876E+02 -0.51406792942E+03  0.53211199319E+03  0.12000000000E+03 0.  0.
         25    1    3    3    0    0  0.28529777571E+02  0.60525936876E+02 -0.55613255518E+03  0.57285317156E+03  0.12000000000E+03 0.  0.
<mgrwt>
<rscale>  0 0.27498898E+03</rscale>
<asrwt>0</asrwt>
<pdfrwt beam="1">  1        4 0.16732048E+00 0.27498898E+03</pdfrwt>
<pdfrwt beam="2">  1       -4 0.26742055E-02 0.27498898E+03</pdfrwt>
<totfact> 0.28667882E+02</totfact>
</mgrwt>
</event>
<event>
 5    1  0.1111501E+001  0.2750998E+03  0.7818608E-02  0.1098396E+00
          2   -1    0    0  501    0  0.00000000000E+00  0.00000000000E+00  0.16031443603E+04  0.16031443603E+04  0.00000000000E+00 0. -1.
         -2   -1    0    0    0  501 -0.00000000000E+00 -0.00000000000E+00 -0.11801789532E+02  0.11801789532E+02  0.00000000000E+00 0. -1.
         35    2    1    2    0    0  0.00000000000E+00  0.00000000000E+00  0.15913425707E+04  0.16149461498E+04  0.27509978066E+03 0.  0.
         25    1    3    3    0    0  0.34228217964E+02 -0.47465034838E+02  0.60137324487E+03  0.61601483755E+03  0.12000000000E+03 0.  0.
         25    1    3    3    0    0 -0.34228217964E+02  0.47465034838E+02  0.98996932586E+03  0.99893131224E+03  0.12000000000E+03 0.  0.
<mgrwt>
<rscale>  0 0.27509978E+03</rscale>
<asrwt>0</asrwt>
<pdfrwt beam="1">  1        2 0.24663742E+00 0.27509978E+03</pdfrwt>
<pdfrwt beam="2">  1       -2 0.18156612E-02 0.27509978E+03</pdfrwt>
<totfact> 0.10715064E+04</totfact>
</mgrwt>
</event>
<event>
 5    1  0.1111501E+001  0.2740249E+03  0.7818608E-02  0.1098998E+00
          2   -1    0    0  501    0  0.00000000000E+00  0.00000000000E+00  0.13146563258E+04  0.13146563258E+04  0.00000000000E+00 0. -1.
         -2   -1    0    0    0  501 -0.00000000000E+00 -0.00000000000E+00 -0.14279329767E+02  0.14279329767E+02  0.00000000000E+00 0. -1.
         35    2    1    2    0    0  0.00000000000E+00  0.00000000000E+00  0.13003769960E+04  0.13289356555E+04  0.27402489818E+03 0.  0.
         25    1    3    3    0    0 -0.33482696145E+02  0.46329572286E+02  0.48898530267E+03  0.50672886876E+03  0.12000000000E+03 0.  0.
         25    1    3    3    0    0  0.33482696145E+02 -0.46329572286E+02  0.81139169334E+03  0.82220678678E+03  0.12000000000E+03 0.  0.
<mgrwt>
<rscale>  0 0.27402490E+03</rscale>
<asrwt>0</asrwt>
<pdfrwt beam="1">  1        2 0.20225472E+00 0.27402490E+03</pdfrwt>
<pdfrwt beam="2">  1       -2 0.21968210E-02 0.27402490E+03</pdfrwt>
<totfact> 0.11579954E+04</totfact>
</mgrwt>
</event>
<event>
 5    1  0.1111501E+001  0.2783418E+03  0.7818608E-02  0.1096598E+00
         -2   -1    0    0    0  501 -0.00000000000E+00  0.00000000000E+00  0.91895224692E+01  0.91895224692E+01  0.00000000000E+00 0. -1.
          2   -1    0    0  501    0  0.00000000000E+00 -0.00000000000E+00 -0.21076757312E+04  0.21076757312E+04  0.00000000000E+00 0. -1.
         35    2    1    2    0    0  0.00000000000E+00  0.00000000000E+00 -0.20984862088E+04  0.21168652537E+04  0.27834175748E+03 0.  0.
         25    1    3    3    0    0  0.48009773238E+02  0.19081245119E+02 -0.68454653823E+03  0.69690242878E+03  0.12000000000E+03 0.  0.
         25    1    3    3    0    0 -0.48009773238E+02 -0.19081245119E+02 -0.14139396705E+04  0.14199628249E+04  0.12000000000E+03 0.  0.
<mgrwt>
<rscale>  0 0.27834176E+03</rscale>
<asrwt>0</asrwt>
<pdfrwt beam="1">  1        2 0.32425775E+00 0.27834176E+03</pdfrwt>
<pdfrwt beam="2">  1       -2 0.14137729E-02 0.27834176E+03</pdfrwt>
<totfact> 0.83873653E+03</totfact>
</mgrwt>
</event>
<event>
 5    1  0.1111501E+001  0.2733892E+03  0.7818608E-02  0.1099355E+00
          2   -1    0    0  501    0  0.00000000000E+00  0.00000000000E+00  0.95379466230E+03  0.95379466230E+03  0.00000000000E+00 0. -1.
         -2   -1    0    0    0  501 -0.00000000000E+00 -0.00000000000E+00 -0.19590606947E+02  0.19590606947E+02  0.00000000000E+00 0. -1.
         35    2    1    2    0    0  0.00000000000E+00  0.00000000000E+00  0.93420405535E+03  0.97338526925E+03  0.27338921952E+03 0.  0.
         25    1    3    3    0    0  0.45847346897E+02  0.28430313586E+02  0.59913400096E+03  0.61340998774E+03  0.12000000000E+03 0.  0.
         25    1    3    3    0    0 -0.45847346897E+02 -0.28430313586E+02  0.33507005439E+03  0.35997528151E+03  0.12000000000E+03 0.  0.
<mgrwt>
<rscale>  0 0.27338922E+03</rscale>
<asrwt>0</asrwt>
<pdfrwt beam="1">  1        2 0.14673760E+00 0.27338922E+03</pdfrwt>
<pdfrwt beam="2">  1       -2 0.30139403E-02 0.27338922E+03</pdfrwt>
<totfact> 0.11767899E+04</totfact>
</mgrwt>
</event>
<event>
 5    1  0.1111501E+001  0.2745005E+03  0.7818608E-02  0.1098731E+00
          1   -1    0    0  501    0  0.00000000000E+00  0.00000000000E+00  0.17678753273E+04  0.17678753273E+04  0.00000000000E+00 0. -1.
         -1   -1    0    0    0  501 -0.00000000000E+00 -0.00000000000E+00 -0.10655522754E+02  0.10655522754E+02  0.00000000000E+00 0. -1.
         35    2    1    2    0    0  0.00000000000E+00  0.00000000000E+00  0.17572198045E+04  0.17785308500E+04  0.27450053389E+03 0.  0.
         25    1    3    3    0    0 -0.15487469444E+02 -0.62454431767E+02  0.76690923257E+03  0.77890319601E+03  0.12000000000E+03 0.  0.
         25    1    3    3    0    0  0.15487469444E+02  0.62454431767E+02  0.99031057193E+03  0.99962765400E+03  0.12000000000E+03 0.  0.
<mgrwt>
<rscale>  0 0.27450053E+03</rscale>
<asrwt>0</asrwt>
<pdfrwt beam="1">  1        1 0.27198059E+00 0.27450053E+03</pdfrwt>
<pdfrwt beam="2">  1       -1 0.16393126E-02 0.27450053E+03</pdfrwt>
<totfact> 0.43781750E+03</totfact>
</mgrwt>
</event>
<event>
 5    1  0.1111501E+001  0.2753232E+03  0.7818608E-02  0.1098271E+00
         -2   -1    0    0    0  501 -0.00000000000E+00  0.00000000000E+00  0.18362670589E+02  0.18362670589E+02  0.00000000000E+00 0.  1.
          2   -1    0    0  501    0  0.00000000000E+00 -0.00000000000E+00 -0.10320236355E+04  0.10320236355E+04  0.00000000000E+00 0.  1.
         35    2    1    2    0    0  0.00000000000E+00  0.00000000000E+00 -0.10136609649E+04  0.10503863061E+04  0.27532315601E+03 0.  0.
         25    1    3    3    0    0  0.13196702565E+02 -0.54485064794E+02 -0.36367842772E+03  0.38704621692E+03  0.12000000000E+03 0.  0.
         25    1    3    3    0    0 -0.13196702565E+02  0.54485064794E+02 -0.64998253719E+03  0.66334008917E+03  0.12000000000E+03 0.  0.
<mgrwt>
<rscale>  0 0.27532316E+03</rscale>
<asrwt>0</asrwt>
<pdfrwt beam="1">  1        2 0.15877291E+00 0.27532316E+03</pdfrwt>
<pdfrwt beam="2">  1       -2 0.28250254E-02 0.27532316E+03</pdfrwt>
<totfact> 0.11601102E+04</totfact>
</mgrwt>
</event>
<event>
 5    1  0.1111501E+001  0.2759485E+03  0.7818608E-02  0.1097923E+00
         -1   -1    0    0    0  501 -0.00000000000E+00  0.00000000000E+00  0.59850354148E+02  0.59850354148E+02  0.00000000000E+00 0.  1.
          1   -1    0    0  501    0  0.00000000000E+00 -0.00000000000E+00 -0.31807496385E+03  0.31807496385E+03  0.00000000000E+00 0.  1.
         35    2    1    2    0    0  0.00000000000E+00  0.00000000000E+00 -0.25822460970E+03  0.37792531799E+03  0.27594854036E+03 0.  0.
         25    1    3    3    0    0  0.19645897442E+02 -0.43752577412E+02 -0.19531485377E+03  0.23419680062E+03  0.12000000000E+03 0.  0.
         25    1    3    3    0    0 -0.19645897442E+02  0.43752577412E+02 -0.62909755930E+02  0.14372851738E+03  0.12000000000E+03 0.  0.
<mgrwt>
<rscale>  0 0.27594854E+03</rscale>
<asrwt>0</asrwt>
<pdfrwt beam="1">  1        1 0.48934609E-01 0.27594854E+03</pdfrwt>
<pdfrwt beam="2">  1       -1 0.92077470E-02 0.27594854E+03</pdfrwt>
<totfact> 0.56003754E+03</totfact>
</mgrwt>
</event>
<event>
 5    1  0.1111501E+001  0.2749533E+03  0.7818608E-02  0.1098478E+00
          2   -1    0    0  501    0  0.00000000000E+00  0.00000000000E+00  0.43997654846E+03  0.43997654846E+03  0.00000000000E+00 0.  1.
         -2   -1    0    0    0  501 -0.00000000000E+00 -0.00000000000E+00 -0.42956456503E+02  0.42956456503E+02  0.00000000000E+00 0.  1.
         35    2    1    2    0    0  0.00000000000E+00  0.00000000000E+00  0.39702009196E+03  0.48293300496E+03  0.27495333034E+03 0.  0.
         25    1    3    3    0    0  0.54007260699E+02 -0.23943273127E+02  0.14269659132E+03  0.19558216102E+03  0.12000000000E+03 0.  0.
         25    1    3    3    0    0 -0.54007260699E+02  0.23943273127E+02  0.25432350063E+03  0.28735084394E+03  0.12000000000E+03 0.  0.
<mgrwt>
<rscale>  0 0.27495333E+03</rscale>
<asrwt>0</asrwt>
<pdfrwt beam="1">  1        2 0.67688697E-01 0.27495333E+03</pdfrwt>
<pdfrwt beam="2">  1       -2 0.66086859E-02 0.27495333E+03</pdfrwt>
<totfact> 0.90990368E+03</totfact>
</mgrwt>
</event>
<event>
 5    1  0.1111501E+001  0.2751932E+03  0.7818608E-02  0.1098344E+00
          2   -1    0    0  501    0  0.00000000000E+00  0.00000000000E+00  0.43983693766E+03  0.43983693766E+03  0.00000000000E+00 0. -1.
         -2   -1    0    0    0  501 -0.00000000000E+00 -0.00000000000E+00 -0.43045095894E+02  0.43045095894E+02  0.00000000000E+00 0. -1.
         35    2    1    2    0    0  0.00000000000E+00  0.00000000000E+00  0.39679184177E+03  0.48288203355E+03  0.27519319148E+03 0.  0.
         25    1    3    3    0    0  0.52683252850E+02  0.92350331660E+01  0.27014611527E+03  0.30039929188E+03  0.12000000000E+03 0.  0.
         25    1    3    3    0    0 -0.52683252850E+02 -0.92350331660E+01  0.12664572650E+03  0.18248274167E+03  0.12000000000E+03 0.  0.
<mgrwt>
<rscale>  0 0.27519319E+03</rscale>
<asrwt>0</asrwt>
<pdfrwt beam="1">  1        2 0.67667218E-01 0.27519319E+03</pdfrwt>
<pdfrwt beam="2">  1       -2 0.66223228E-02 0.27519319E+03</pdfrwt>
<totfact> 0.90736043E+03</totfact>
</mgrwt>
</event>
<event>
 5    1  0.1111501E+001  0.2748612E+03  0.7818608E-02  0.1098529E+00
         -2   -1    0    0    0  501 -0.00000000000E+00  0.00000000000E+00  0.12013852777E+02  0.12013852777E+02  0.00000000000E+00 0.  1.
          2   -1    0    0  501    0  0.00000000000E+00 -0.00000000000E+00 -0.15721159417E+04  0.15721159417E+04  0.00000000000E+00 0.  1.
         35    2    1    2    0    0  0.00000000000E+00  0.00000000000E+00 -0.15601020889E+04  0.15841297944E+04  0.27486119750E+03 0.  0.
         25    1    3    3    0    0 -0.65137925843E+02  0.13384307945E+02 -0.73355645672E+03  0.74627552839E+03  0.12000000000E+03 0.  0.
         25    1    3    3    0    0  0.65137925843E+02 -0.13384307945E+02 -0.82654563217E+03  0.83785426605E+03  0.12000000000E+03 0.  0.
<mgrwt>
<rscale>  0 0.27486120E+03</rscale>
<asrwt>0</asrwt>
<pdfrwt beam="1">  1        2 0.24186394E+00 0.27486120E+03</pdfrwt>
<pdfrwt beam="2">  1       -2 0.18482854E-02 0.27486120E+03</pdfrwt>
<totfact> 0.10841564E+04</totfact>
</mgrwt>
</event>
<event>
 5    1  0.1111501E+001  0.2747667E+03  0.7818608E-02  0.1098582E+00
          3   -1    0    0  501    0  0.00000000000E+00  0.00000000000E+00  0.18397003139E+03  0.18397003139E+03  0.00000000000E+00 0. -1.
         -3   -1    0    0    0  501 -0.00000000000E+00 -0.00000000000E+00 -0.10259376697E+03  0.10259376697E+03  0.00000000000E+00 0. -1.
         35    2    1    2    0    0  0.00000000000E+00  0.00000000000E+00  0.81376264421E+02  0.28656379836E+03  0.27476665394E+03 0.  0.
         25    1    3    3    0    0  0.38511321258E+02 -0.49794193192E+02  0.64277724839E+02  0.14998069693E+03  0.12000000000E+03 0.  0.
         25    1    3    3    0    0 -0.38511321258E+02  0.49794193192E+02  0.17098539582E+02  0.13658310143E+03  0.12000000000E+03 0.  0.
<mgrwt>
<rscale>  0 0.27476665E+03</rscale>
<asrwt>0</asrwt>
<pdfrwt beam="1">  1        3 0.28303082E-01 0.27476665E+03</pdfrwt>
<pdfrwt beam="2">  1       -3 0.15783656E-01 0.27476665E+03</pdfrwt>
<totfact> 0.10341519E+03</totfact>
</mgrwt>
</event>
<event>
 5    1  0.1111501E+001  0.2755221E+03  0.7818608E-02  0.1098160E+00
         -1   -1    0    0    0  501 -0.00000000000E+00  0.00000000000E+00  0.20557308202E+02  0.20557308202E+02  0.00000000000E+00 0.  1.
          1   -1    0    0  501    0  0.00000000000E+00 -0.00000000000E+00 -0.92318042086E+03  0.92318042086E+03  0.00000000000E+00 0.  1.
         35    2    1    2    0    0  0.00000000000E+00  0.00000000000E+00 -0.90262311266E+03  0.94373772906E+03  0.27552208215E+03 0.  0.
         25    1    3    3    0    0  0.79051344116E+01 -0.92605415980E+01 -0.67928785253E+03  0.68991320858E+03  0.12000000000E+03 0.  0.
         25    1    3    3    0    0 -0.79051344116E+01  0.92605415980E+01 -0.22333526013E+03  0.25382452048E+03  0.12000000000E+03 0.  0.
<mgrwt>
<rscale>  0 0.27552208E+03</rscale>
<asrwt>0</asrwt>
<pdfrwt beam="1">  1        1 0.14202776E+00 0.27552208E+03</pdfrwt>
<pdfrwt beam="2">  1       -1 0.31626628E-02 0.27552208E+03</pdfrwt>
<totfact> 0.63812429E+03</totfact>
</mgrwt>
</event>
<event>
 5    1  0.1111501E+001  0.2749825E+03  0.7818608E-02  0.1098461E+00
          2   -1    0    0  501    0  0.00000000000E+00  0.00000000000E+00  0.29821550140E+03  0.29821550140E+03  0.00000000000E+00 0.  1.
         -2   -1    0    0    0  501 -0.00000000000E+00 -0.00000000000E+00 -0.63389859321E+02  0.63389859321E+02  0.00000000000E+00 0.  1.
         35    2    1    2    0    0  0.00000000000E+00  0.00000000000E+00  0.23482564207E+03  0.36160536072E+03  0.27498246257E+03 0.  0.
         25    1    3    3    0    0  0.55577969868E+02 -0.23318704748E+02  0.15622609795E+03  0.20600792802E+03  0.12000000000E+03 0.  0.
         25    1    3    3    0    0 -0.55577969868E+02  0.23318704748E+02  0.78599544123E+02  0.15559743270E+03  0.12000000000E+03 0.  0.
<mgrwt>
<rscale>  0 0.27498246E+03</rscale>
<asrwt>0</asrwt>
<pdfrwt beam="1">  1        2 0.45879307E-01 0.27498246E+03</pdfrwt>
<pdfrwt beam="2">  1       -2 0.97522862E-02 0.27498246E+03</pdfrwt>
<totfact> 0.75446874E+03</totfact>
</mgrwt>
</event>
<event>
 5    1  0.1111501E+001  0.2769617E+03  0.7818608E-02  0.1097360E+00
          1   -1    0    0  501    0  0.00000000000E+00  0.00000000000E+00  0.34659234701E+03  0.34659234701E+03  0.00000000000E+00 0. -1.
         -1   -1    0    0    0  501 -0.00000000000E+00 -0.00000000000E+00 -0.55329968455E+02  0.55329968455E+02  0.00000000000E+00 0. -1.
         35    2    1    2    0    0  0.00000000000E+00  0.00000000000E+00  0.29126237856E+03  0.40192231547E+03  0.27696168419E+03 0.  0.
         25    1    3    3    0    0 -0.93435311022E+01 -0.58043668013E+02  0.19836679121E+03  0.23917724145E+03  0.12000000000E+03 0.  0.
         25    1    3    3    0    0  0.93435311022E+01  0.58043668013E+02  0.92895587345E+02  0.16274507402E+03  0.12000000000E+03 0.  0.
<mgrwt>
<rscale>  0 0.27696168E+03</rscale>
<asrwt>0</asrwt>
<pdfrwt beam="1">  1        1 0.53321898E-01 0.27696168E+03</pdfrwt>
<pdfrwt beam="2">  1       -1 0.85123030E-02 0.27696168E+03</pdfrwt>
<totfact> 0.56689496E+03</totfact>
</mgrwt>
</event>
<event>
 5    1  0.1111501E+001  0.2714809E+03  0.7818608E-02  0.1100435E+00
         -2   -1    0    0    0  501 -0.00000000000E+00  0.00000000000E+00  0.24128642822E+03  0.24128642822E+03  0.00000000000E+00 0.  1.
          2   -1    0    0  501    0  0.00000000000E+00 -0.00000000000E+00 -0.76363488320E+02  0.76363488320E+02  0.00000000000E+00 0.  1.
         35    2    1    2    0    0  0.00000000000E+00  0.00000000000E+00  0.16492293990E+03  0.31764991654E+03  0.27148092635E+03 0.  0.
         25    1    3    3    0    0  0.17293988857E+02  0.60103630757E+02  0.69971632188E+02  0.15234026976E+03  0.12000000000E+03 0.  0.
         25    1    3    3    0    0 -0.17293988857E+02 -0.60103630757E+02  0.94951307711E+02  0.16530964677E+03  0.12000000000E+03 0.  0.
<mgrwt>
<rscale>  0 0.27148093E+03</rscale>
<asrwt>0</asrwt>
<pdfrwt beam="1">  1        2 0.11748229E-01 0.27148093E+03</pdfrwt>
<pdfrwt beam="2">  1       -2 0.37120989E-01 0.27148093E+03</pdfrwt>
<totfact> 0.35850061E+03</totfact>
</mgrwt>
</event>
<event>
 5    1  0.1111501E+001  0.2748932E+03  0.7818608E-02  0.1098511E+00
         -2   -1    0    0    0  501 -0.00000000000E+00  0.00000000000E+00  0.63368924026E+02  0.63368924026E+02  0.00000000000E+00 0.  1.
          2   -1    0    0  501    0  0.00000000000E+00 -0.00000000000E+00 -0.29812038031E+03  0.29812038031E+03  0.00000000000E+00 0.  1.
         35    2    1    2    0    0  0.00000000000E+00  0.00000000000E+00 -0.23475145628E+03  0.36148930434E+03  0.27489319912E+03 0.  0.
         25    1    3    3    0    0  0.69703219797E-01  0.30400537121E+01 -0.20541631554E+03  0.23791828319E+03  0.12000000000E+03 0.  0.
         25    1    3    3    0    0 -0.69703219797E-01 -0.30400537121E+01 -0.29335140743E+02  0.12357102115E+03  0.12000000000E+03 0.  0.
<mgrwt>
<rscale>  0 0.27489320E+03</rscale>
<asrwt>0</asrwt>
<pdfrwt beam="1">  1        2 0.45864673E-01 0.27489320E+03</pdfrwt>
<pdfrwt beam="2">  1       -2 0.97490654E-02 0.27489320E+03</pdfrwt>
<totfact> 0.75511374E+03</totfact>
</mgrwt>
</event>
<event>
 5    1  0.1111501E+001  0.2758081E+03  0.7818608E-02  0.1098001E+00
         -1   -1    0    0    0  501 -0.00000000000E+00  0.00000000000E+00  0.94755646708E+03  0.94755646708E+03  0.00000000000E+00 0.  1.
          1   -1    0    0  501    0  0.00000000000E+00 -0.00000000000E+00 -0.20070066669E+02  0.20070066669E+02  0.00000000000E+00 0.  1.
         35    2    1    2    0    0  0.00000000000E+00  0.00000000000E+00  0.92748640041E+03  0.96762653375E+03  0.27580805983E+03 0.  0.
         25    1    3    3    0    0  0.48416883646E+02 -0.13338186621E+02  0.30314661044E+03  0.32987871903E+03  0.12000000000E+03 0.  0.
         25    1    3    3    0    0 -0.48416883646E+02  0.13338186621E+02  0.62433978997E+03  0.63774781472E+03  0.12000000000E+03 0.  0.
<mgrwt>
<rscale>  0 0.27580806E+03</rscale>
<asrwt>0</asrwt>
<pdfrwt beam="1">  1        1 0.30877033E-02 0.27580806E+03</pdfrwt>
<pdfrwt beam="2">  1       -1 0.14577788E+00 0.27580806E+03</pdfrwt>
<totfact> 0.13328029E+03</totfact>
</mgrwt>
</event>
<event>
 5    1  0.1111501E+001  0.2724141E+03  0.7818608E-02  0.1099906E+00
          2   -1    0    0  501    0  0.00000000000E+00  0.00000000000E+00  0.73423675726E+03  0.73423675726E+03  0.00000000000E+00 0. -1.
         -2   -1    0    0    0  501 -0.00000000000E+00 -0.00000000000E+00 -0.25267540387E+02  0.25267540387E+02  0.00000000000E+00 0. -1.
         35    2    1    2    0    0  0.00000000000E+00  0.00000000000E+00  0.70896921688E+03  0.75950429765E+03  0.27241407392E+03 0.  0.
         25    1    3    3    0    0 -0.15110902865E+00 -0.63182835441E+02  0.31918922889E+03  0.34680521531E+03  0.12000000000E+03 0.  0.
         25    1    3    3    0    0  0.15110902865E+00  0.63182835441E+02  0.38977998799E+03  0.41269908234E+03  0.12000000000E+03 0.  0.
<mgrwt>
<rscale>  0 0.27241407E+03</rscale>
<asrwt>0</asrwt>
<pdfrwt beam="1">  1        2 0.11295948E+00 0.27241407E+03</pdfrwt>
<pdfrwt beam="2">  1       -2 0.38873145E-02 0.27241407E+03</pdfrwt>
<totfact> 0.11297923E+04</totfact>
</mgrwt>
</event>
<event>
 5    1  0.1111501E+001  0.2752305E+03  0.7818608E-02  0.1098323E+00
          1   -1    0    0  501    0  0.00000000000E+00  0.00000000000E+00  0.88341241114E+03  0.88341241114E+03  0.00000000000E+00 0. -1.
         -1   -1    0    0    0  501 -0.00000000000E+00 -0.00000000000E+00 -0.21437274312E+02  0.21437274312E+02  0.00000000000E+00 0. -1.
         35    2    1    2    0    0  0.00000000000E+00  0.00000000000E+00  0.86197513683E+03  0.90484968546E+03  0.27523047933E+03 0.  0.
         25    1    3    3    0    0  0.65788198044E+02  0.12265254303E+02  0.40564296953E+03  0.42828114854E+03  0.12000000000E+03 0.  0.
         25    1    3    3    0    0 -0.65788198044E+02 -0.12265254303E+02  0.45633216730E+03  0.47656853692E+03  0.12000000000E+03 0.  0.
<mgrwt>
<rscale>  0 0.27523048E+03</rscale>
<asrwt>0</asrwt>
<pdfrwt beam="1">  1        1 0.13590957E+00 0.27523048E+03</pdfrwt>
<pdfrwt beam="2">  1       -1 0.32980429E-02 0.27523048E+03</pdfrwt>
<totfact> 0.64443512E+03</totfact>
</mgrwt>
</event>
<event>
 5    1  0.1111501E+001  0.2744636E+03  0.7818608E-02  0.1098752E+00
         -2   -1    0    0    0  501 -0.00000000000E+00  0.00000000000E+00  0.43324051396E+01  0.43324051396E+01  0.00000000000E+00 0. -1.
          2   -1    0    0  501    0  0.00000000000E+00 -0.00000000000E+00 -0.43469071541E+04  0.43469071541E+04  0.00000000000E+00 0. -1.
         35    2    1    2    0    0  0.00000000000E+00  0.00000000000E+00 -0.43425747490E+04  0.43512395592E+04  0.27446357060E+03 0.  0.
         25    1    3    3    0    0  0.50251837745E+02  0.27401848374E+02 -0.16321585616E+04  0.16375645571E+04  0.12000000000E+03 0.  0.
         25    1    3    3    0    0 -0.50251837745E+02 -0.27401848374E+02 -0.27104161873E+04  0.27136750021E+04  0.12000000000E+03 0.  0.
<mgrwt>
<rscale>  0 0.27446357E+03</rscale>
<asrwt>0</asrwt>
<pdfrwt beam="1">  1        2 0.66875633E+00 0.27446357E+03</pdfrwt>
<pdfrwt beam="2">  1       -2 0.66652249E-03 0.27446357E+03</pdfrwt>
<totfact> 0.89466336E+02</totfact>
</mgrwt>
</event>
<event>
 5    1  0.1111501E+001  0.2749067E+03  0.7818608E-02  0.1098504E+00
         -1   -1    0    0    0  501 -0.00000000000E+00  0.00000000000E+00  0.15516680843E+04  0.15516680843E+04  0.00000000000E+00 0.  1.
          1   -1    0    0  501    0  0.00000000000E+00 -0.00000000000E+00 -0.12176202817E+02  0.12176202817E+02  0.00000000000E+00 0.  1.
         35    2    1    2    0    0  0.00000000000E+00  0.00000000000E+00  0.15394918815E+04  0.15638442871E+04  0.27490671363E+03 0.  0.
         25    1    3    3    0    0 -0.62592336693E+02  0.14669447872E+00  0.63326570957E+03  0.64756720196E+03  0.12000000000E+03 0.  0.
         25    1    3    3    0    0  0.62592336693E+02 -0.14669447872E+00  0.90622617193E+03  0.91627708518E+03  0.12000000000E+03 0.  0.
<mgrwt>
<rscale>  0 0.27490671E+03</rscale>
<asrwt>0</asrwt>
<pdfrwt beam="1">  1        1 0.18732632E-02 0.27490671E+03</pdfrwt>
<pdfrwt beam="2">  1       -1 0.23871801E+00 0.27490671E+03</pdfrwt>
<totfact> 0.62078100E+02</totfact>
</mgrwt>
</event>
<event>
 5    1  0.1111501E+001  0.2742610E+03  0.7818608E-02  0.1098865E+00
         -1   -1    0    0    0  501 -0.00000000000E+00  0.00000000000E+00  0.19783188230E+02  0.19783188230E+02  0.00000000000E+00 0. -1.
          1   -1    0    0  501    0  0.00000000000E+00 -0.00000000000E+00 -0.95054304283E+03  0.95054304283E+03  0.00000000000E+00 0. -1.
         35    2    1    2    0    0  0.00000000000E+00  0.00000000000E+00 -0.93075985460E+03  0.97032623106E+03  0.27426098473E+03 0.  0.
         25    1    3    3    0    0  0.14565731736E+02  0.35286536152E+02 -0.65745834411E+03  0.66940927273E+03  0.12000000000E+03 0.  0.
         25    1    3    3    0    0 -0.14565731736E+02 -0.35286536152E+02 -0.27330151048E+03  0.30091695832E+03  0.12000000000E+03 0.  0.
<mgrwt>
<rscale>  0 0.27426098E+03</rscale>
<asrwt>0</asrwt>
<pdfrwt beam="1">  1        1 0.14623733E+00 0.27426098E+03</pdfrwt>
<pdfrwt beam="2">  1       -1 0.30435687E-02 0.27426098E+03</pdfrwt>
<totfact> 0.64326309E+03</totfact>
</mgrwt>
</event>
<event>
 5    1  0.1111501E+001  0.2745808E+03  0.7818608E-02  0.1098686E+00
          2   -1    0    0  501    0  0.00000000000E+00  0.00000000000E+00  0.19846903624E+04  0.19846903624E+04  0.00000000000E+00 0.  1.
         -2   -1    0    0    0  501 -0.00000000000E+00 -0.00000000000E+00 -0.94970261759E+01  0.94970261759E+01  0.00000000000E+00 0.  1.
         35    2    1    2    0    0  0.00000000000E+00  0.00000000000E+00  0.19751933362E+04  0.19941873885E+04  0.27458081741E+03 0.  0.
         25    1    3    3    0    0  0.29334690671E+02  0.53448601290E+02  0.11840082502E+04  0.11916345135E+04  0.12000000000E+03 0.  0.
         25    1    3    3    0    0 -0.29334690671E+02 -0.53448601290E+02  0.79118508597E+03  0.80255287509E+03  0.12000000000E+03 0.  0.
<mgrwt>
<rscale>  0 0.27458082E+03</rscale>
<asrwt>0</asrwt>
<pdfrwt beam="1">  1        2 0.30533665E+00 0.27458082E+03</pdfrwt>
<pdfrwt beam="2">  1       -2 0.14610825E-02 0.27458082E+03</pdfrwt>
<totfact> 0.92796107E+03</totfact>
</mgrwt>
</event>
<event>
 5    1  0.1111501E+001  0.2724687E+03  0.7818608E-02  0.1099875E+00
          2   -1    0    0  501    0  0.00000000000E+00  0.00000000000E+00  0.21024557860E+03  0.21024557860E+03  0.00000000000E+00 0.  1.
         -2   -1    0    0    0  501 -0.00000000000E+00 -0.00000000000E+00 -0.88276779381E+02  0.88276779381E+02  0.00000000000E+00 0.  1.
         35    2    1    2    0    0  0.00000000000E+00  0.00000000000E+00  0.12196879922E+03  0.29852235798E+03  0.27246873258E+03 0.  0.
         25    1    3    3    0    0 -0.41612543473E+02  0.41293944933E+02  0.90444350062E+02  0.16129778089E+03  0.12000000000E+03 0.  0.
         25    1    3    3    0    0  0.41612543473E+02 -0.41293944933E+02  0.31524449156E+02  0.13722457709E+03  0.12000000000E+03 0.  0.
<mgrwt>
<rscale>  0 0.27246873E+03</rscale>
<asrwt>0</asrwt>
<pdfrwt beam="1">  1        2 0.32345474E-01 0.27246873E+03</pdfrwt>
<pdfrwt beam="2">  1       -2 0.13581043E-01 0.27246873E+03</pdfrwt>
<totfact> 0.64589995E+03</totfact>
</mgrwt>
</event>
<event>
 5    1  0.1111501E+001  0.2739109E+03  0.7818608E-02  0.1099062E+00
          2   -1    0    0  501    0  0.00000000000E+00  0.00000000000E+00  0.12180155995E+04  0.12180155995E+04  0.00000000000E+00 0.  1.
         -2   -1    0    0    0  501 -0.00000000000E+00 -0.00000000000E+00 -0.15399471298E+02  0.15399471298E+02  0.00000000000E+00 0.  1.
         35    2    1    2    0    0  0.00000000000E+00  0.00000000000E+00  0.12026161283E+04  0.12334150708E+04  0.27391090716E+03 0.  0.
         25    1    3    3    0    0 -0.49914365269E+02  0.38746110784E+02  0.68723020264E+03  0.70048415855E+03  0.12000000000E+03 0.  0.
         25    1    3    3    0    0  0.49914365269E+02 -0.38746110784E+02  0.51538592561E+03  0.53293091229E+03  0.12000000000E+03 0.  0.
<mgrwt>
<rscale>  0 0.27391091E+03</rscale>
<asrwt>0</asrwt>
<pdfrwt beam="1">  1        2 0.18738694E+00 0.27391091E+03</pdfrwt>
<pdfrwt beam="2">  1       -2 0.23691504E-02 0.27391091E+03</pdfrwt>
<totfact> 0.11728524E+04</totfact>
</mgrwt>
</event>
<event>
 5    1  0.1111501E+001  0.2771013E+03  0.7818608E-02  0.1097283E+00
         -2   -1    0    0    0  501 -0.00000000000E+00  0.00000000000E+00  0.20925817497E+02  0.20925817497E+02  0.00000000000E+00 0. -1.
          2   -1    0    0  501    0  0.00000000000E+00 -0.00000000000E+00 -0.91734932282E+03  0.91734932282E+03  0.00000000000E+00 0. -1.
         35    2    1    2    0    0  0.00000000000E+00  0.00000000000E+00 -0.89642350533E+03  0.93827514032E+03  0.27710131367E+03 0.  0.
         25    1    3    3    0    0  0.12107879835E+02 -0.32779108305E+02 -0.24575016647E+03  0.27570675548E+03  0.12000000000E+03 0.  0.
         25    1    3    3    0    0 -0.12107879835E+02  0.32779108305E+02 -0.65067333885E+03  0.66256838484E+03  0.12000000000E+03 0.  0.
<mgrwt>
<rscale>  0 0.27710131E+03</rscale>
<asrwt>0</asrwt>
<pdfrwt beam="1">  1        2 0.14113069E+00 0.27710131E+03</pdfrwt>
<pdfrwt beam="2">  1       -2 0.32193560E-02 0.27710131E+03</pdfrwt>
<totfact> 0.11253556E+04</totfact>
</mgrwt>
</event>
<event>
 5    1  0.1111501E+001  0.2738474E+03  0.7818608E-02  0.1099098E+00
          1   -1    0    0  501    0  0.00000000000E+00  0.00000000000E+00  0.12676063221E+04  0.12676063221E+04  0.00000000000E+00 0. -1.
         -1   -1    0    0    0  501 -0.00000000000E+00 -0.00000000000E+00 -0.14790162580E+02  0.14790162580E+02  0.00000000000E+00 0. -1.
         35    2    1    2    0    0  0.00000000000E+00  0.00000000000E+00  0.12528161596E+04  0.12823964847E+04  0.27384742900E+03 0.  0.
         25    1    3    3    0    0 -0.41823618044E+01  0.50821638144E+02  0.43063358739E+03  0.44993957110E+03  0.12000000000E+03 0.  0.
         25    1    3    3    0    0  0.41823618044E+01 -0.50821638144E+02  0.82218257217E+03  0.83245691362E+03  0.12000000000E+03 0.  0.
<mgrwt>
<rscale>  0 0.27384743E+03</rscale>
<asrwt>0</asrwt>
<pdfrwt beam="1">  1        1 0.19501627E+00 0.27384743E+03</pdfrwt>
<pdfrwt beam="2">  1       -1 0.22754106E-02 0.27384743E+03</pdfrwt>
<totfact> 0.58272851E+03</totfact>
</mgrwt>
</event>
<event>
 5    1  0.1111501E+001  0.2754179E+03  0.7818608E-02  0.1098218E+00
          1   -1    0    0  501    0  0.00000000000E+00  0.00000000000E+00  0.12608866898E+04  0.12608866898E+04  0.00000000000E+00 0.  1.
         -1   -1    0    0    0  501 -0.00000000000E+00 -0.00000000000E+00 -0.15040017054E+02  0.15040017054E+02  0.00000000000E+00 0.  1.
         35    2    1    2    0    0  0.00000000000E+00  0.00000000000E+00  0.12458466727E+04  0.12759267068E+04  0.27541791748E+03 0.  0.
         25    1    3    3    0    0  0.19230014515E+02 -0.59913923018E+02  0.50904143966E+03  0.52676622796E+03  0.12000000000E+03 0.  0.
         25    1    3    3    0    0 -0.19230014515E+02  0.59913923018E+02  0.73680523307E+03  0.74916047887E+03  0.12000000000E+03 0.  0.
<mgrwt>
<rscale>  0 0.27541792E+03</rscale>
<asrwt>0</asrwt>
<pdfrwt beam="1">  1        1 0.19398248E+00 0.27541792E+03</pdfrwt>
<pdfrwt beam="2">  1       -1 0.23138498E-02 0.27541792E+03</pdfrwt>
<totfact> 0.57472888E+03</totfact>
</mgrwt>
</event>
<event>
 5    1  0.1111501E+001  0.2747846E+03  0.7818608E-02  0.1098572E+00
         -1   -1    0    0    0  501 -0.00000000000E+00  0.00000000000E+00  0.13682061305E+03  0.13682061305E+03  0.00000000000E+00 0.  1.
          1   -1    0    0  501    0  0.00000000000E+00 -0.00000000000E+00 -0.13796641365E+03  0.13796641365E+03  0.00000000000E+00 0.  1.
         35    2    1    2    0    0  0.00000000000E+00  0.00000000000E+00 -0.11458006036E+01  0.27478702670E+03  0.27478463782E+03 0.  0.
         25    1    3    3    0    0  0.34100110208E+02  0.52756686987E+02  0.22461269583E+02  0.13729746600E+03  0.12000000000E+03 0.  0.
         25    1    3    3    0    0 -0.34100110208E+02 -0.52756686987E+02 -0.23607070186E+02  0.13748956070E+03  0.12000000000E+03 0.  0.
<mgrwt>
<rscale>  0 0.27478464E+03</rscale>
<asrwt>0</asrwt>
<pdfrwt beam="1">  1        1 0.21225602E-01 0.27478464E+03</pdfrwt>
<pdfrwt beam="2">  1       -1 0.21049325E-01 0.27478464E+03</pdfrwt>
<totfact> 0.43538053E+03</totfact>
</mgrwt>
</event>
<event>
 5    1  0.1111501E+001  0.2745992E+03  0.7818608E-02  0.1098676E+00
          1   -1    0    0  501    0  0.00000000000E+00  0.00000000000E+00  0.44517307030E+03  0.44517307030E+03  0.00000000000E+00 0.  1.
         -1   -1    0    0    0  501 -0.00000000000E+00 -0.00000000000E+00 -0.42345742713E+02  0.42345742713E+02  0.00000000000E+00 0.  1.
         35    2    1    2    0    0  0.00000000000E+00  0.00000000000E+00  0.40282732759E+03  0.48751881301E+03  0.27459923013E+03 0.  0.
         25    1    3    3    0    0 -0.41110908402E+02 -0.52372610563E+02  0.19384229087E+03  0.23750332809E+03  0.12000000000E+03 0.  0.
         25    1    3    3    0    0  0.41110908402E+02  0.52372610563E+02  0.20898503672E+03  0.25001548492E+03  0.12000000000E+03 0.  0.
<mgrwt>
<rscale>  0 0.27459923E+03</rscale>
<asrwt>0</asrwt>
<pdfrwt beam="1">  1        1 0.68488161E-01 0.27459923E+03</pdfrwt>
<pdfrwt beam="2">  1       -1 0.65147300E-02 0.27459923E+03</pdfrwt>
<totfact> 0.61785132E+03</totfact>
</mgrwt>
</event>
<event>
 5    1  0.1111501E+001  0.2705105E+03  0.7818608E-02  0.1100988E+00
         -1   -1    0    0    0  501 -0.00000000000E+00  0.00000000000E+00  0.77567208577E+03  0.77567208577E+03  0.00000000000E+00 0. -1.
          1   -1    0    0  501    0  0.00000000000E+00 -0.00000000000E+00 -0.23584685388E+02  0.23584685388E+02  0.00000000000E+00 0. -1.
         35    2    1    2    0    0  0.00000000000E+00  0.00000000000E+00  0.75208740038E+03  0.79925677116E+03  0.27051049597E+03 0.  0.
         25    1    3    3    0    0  0.55701263441E+02  0.21570971490E+02  0.32269293236E+03  0.34942619558E+03  0.12000000000E+03 0.  0.
         25    1    3    3    0    0 -0.55701263441E+02 -0.21570971490E+02  0.42939446802E+03  0.44983057558E+03  0.12000000000E+03 0.  0.
<mgrwt>
<rscale>  0 0.27051050E+03</rscale>
<asrwt>0</asrwt>
<pdfrwt beam="1">  1        1 0.36284137E-02 0.27051050E+03</pdfrwt>
<pdfrwt beam="2">  1       -1 0.11933415E+00 0.27051050E+03</pdfrwt>
<totfact> 0.17454926E+03</totfact>
</mgrwt>
</event>
<event>
 5    1  0.1111501E+001  0.2751225E+03  0.7818608E-02  0.1098383E+00
         -3   -1    0    0    0  501 -0.00000000000E+00  0.00000000000E+00  0.36769334696E+03  0.36769334696E+03  0.00000000000E+00 0.  1.
          3   -1    0    0  501    0  0.00000000000E+00 -0.00000000000E+00 -0.51464328751E+02  0.51464328751E+02  0.00000000000E+00 0.  1.
         35    2    1    2    0    0  0.00000000000E+00  0.00000000000E+00  0.31622901821E+03  0.41915767571E+03  0.27512245483E+03 0.  0.
         25    1    3    3    0    0 -0.48545937739E+02 -0.40890975303E+02  0.12424166377E+03  0.18402383256E+03  0.12000000000E+03 0.  0.
         25    1    3    3    0    0  0.48545937739E+02  0.40890975303E+02  0.19198735443E+03  0.23513384315E+03  0.12000000000E+03 0.  0.
<mgrwt>
<rscale>  0 0.27512245E+03</rscale>
<asrwt>0</asrwt>
<pdfrwt beam="1">  1        3 0.79175893E-02 0.27512245E+03</pdfrwt>
<pdfrwt beam="2">  1       -3 0.56568206E-01 0.27512245E+03</pdfrwt>
<totfact> 0.85730082E+02</totfact>
</mgrwt>
</event>
<event>
 4    1  0.1111501E+001  0.2511289E+03  0.7818608E-02  0.1112593E+00
         -1   -1    0    0    0  501 -0.00000000000E+00  0.00000000000E+00  0.59356732171E+02  0.59356732171E+02  0.00000000000E+00 0. -1.
          1   -1    0    0  501    0  0.00000000000E+00 -0.00000000000E+00 -0.26562164883E+03  0.26562164883E+03  0.00000000000E+00 0. -1.
         25    1    1    2    0    0 -0.44202789096E-01  0.30915397073E+02 -0.12935675737E+03  0.17913384495E+03  0.12000000000E+03 0.  0.
         25    1    1    2    0    0  0.44202789096E-01 -0.30915397073E+02 -0.76908159287E+02  0.14584453605E+03  0.12000000000E+03 0.  0.
<mgrwt>
<rscale>  0 0.25112892E+03</rscale>
<asrwt>0</asrwt>
<pdfrwt beam="1">  1        1 0.40864869E-01 0.25112892E+03</pdfrwt>
<pdfrwt beam="2">  1       -1 0.91318049E-02 0.25112892E+03</pdfrwt>
<totfact> 0.70879386E+03</totfact>
</mgrwt>
</event>
<event>
 5    1  0.1111501E+001  0.2740301E+03  0.7818608E-02  0.1098995E+00
          2   -1    0    0  501    0  0.00000000000E+00  0.00000000000E+00  0.10317894541E+04  0.10317894541E+04  0.00000000000E+00 0.  1.
         -2   -1    0    0    0  501 -0.00000000000E+00 -0.00000000000E+00 -0.18194717251E+02  0.18194717251E+02  0.00000000000E+00 0.  1.
         35    2    1    2    0    0  0.00000000000E+00  0.00000000000E+00  0.10135947369E+04  0.10499841714E+04  0.27403005222E+03 0.  0.
         25    1    3    3    0    0  0.61556495924E+02  0.19773489378E+02  0.45357698074E+03  0.47361616371E+03  0.12000000000E+03 0.  0.
         25    1    3    3    0    0 -0.61556495924E+02 -0.19773489378E+02  0.56001775612E+03  0.57636800765E+03  0.12000000000E+03 0.  0.
<mgrwt>
<rscale>  0 0.27403005E+03</rscale>
<asrwt>0</asrwt>
<pdfrwt beam="1">  1        2 0.15873679E+00 0.27403005E+03</pdfrwt>
<pdfrwt beam="2">  1       -2 0.27991881E-02 0.27403005E+03</pdfrwt>
<totfact> 0.11762590E+04</totfact>
</mgrwt>
</event>
<event>
 5    1  0.1111501E+001  0.2720254E+03  0.7818608E-02  0.1100126E+00
          1   -1    0    0  501    0  0.00000000000E+00  0.00000000000E+00  0.37303878474E+03  0.37303878474E+03  0.00000000000E+00 0.  1.
         -1   -1    0    0    0  501 -0.00000000000E+00 -0.00000000000E+00 -0.49591222464E+02  0.49591222464E+02  0.00000000000E+00 0.  1.
         35    2    1    2    0    0  0.00000000000E+00  0.00000000000E+00  0.32344756227E+03  0.42263000720E+03  0.27202536177E+03 0.  0.
         25    1    3    3    0    0  0.80761953443E+01  0.58735728591E+02  0.12416744418E+03  0.18257235535E+03  0.12000000000E+03 0.  0.
         25    1    3    3    0    0 -0.80761953443E+01 -0.58735728591E+02  0.19928011809E+03  0.24005765185E+03  0.12000000000E+03 0.  0.
<mgrwt>
<rscale>  0 0.27202536E+03</rscale>
<asrwt>0</asrwt>
<pdfrwt beam="1">  1        1 0.57390580E-01 0.27202536E+03</pdfrwt>
<pdfrwt beam="2">  1       -1 0.76294191E-02 0.27202536E+03</pdfrwt>
<totfact> 0.60999828E+03</totfact>
</mgrwt>
</event>
<event>
 5    1  0.1111501E+001  0.2753394E+03  0.7818608E-02  0.1098262E+00
         -3   -1    0    0    0  501 -0.00000000000E+00  0.00000000000E+00  0.11387762321E+03  0.11387762321E+03  0.00000000000E+00 0.  1.
          3   -1    0    0  501    0  0.00000000000E+00 -0.00000000000E+00 -0.16643255068E+03  0.16643255068E+03  0.00000000000E+00 0.  1.
         35    2    1    2    0    0  0.00000000000E+00  0.00000000000E+00 -0.52554927474E+02  0.28031017389E+03  0.27533937819E+03 0.  0.
         25    1    3    3    0    0 -0.30870332460E+02  0.46796878922E+02  0.11950649243E+02  0.13298775628E+03  0.12000000000E+03 0.  0.
         25    1    3    3    0    0  0.30870332460E+02 -0.46796878922E+02 -0.64505576716E+02  0.14732241761E+03  0.12000000000E+03 0.  0.
<mgrwt>
<rscale>  0 0.27533938E+03</rscale>
<asrwt>0</asrwt>
<pdfrwt beam="1">  1        3 0.25605008E-01 0.27533938E+03</pdfrwt>
<pdfrwt beam="2">  1       -3 0.17519634E-01 0.27533938E+03</pdfrwt>
<totfact> 0.10369265E+03</totfact>
</mgrwt>
</event>
<event>
 5    1  0.1111501E+001  0.2746394E+03  0.7818608E-02  0.1098653E+00
         -3   -1    0    0    0  501 -0.00000000000E+00  0.00000000000E+00  0.31416227195E+03  0.31416227195E+03  0.00000000000E+00 0. -1.
          3   -1    0    0  501    0  0.00000000000E+00 -0.00000000000E+00 -0.60022167857E+02  0.60022167857E+02  0.00000000000E+00 0. -1.
         35    2    1    2    0    0  0.00000000000E+00  0.00000000000E+00  0.25414010409E+03  0.37418443981E+03  0.27463940447E+03 0.  0.
         25    1    3    3    0    0  0.63007983511E+02  0.14820918963E+02  0.14933424545E+03  0.20221370500E+03  0.12000000000E+03 0.  0.
         25    1    3    3    0    0 -0.63007983511E+02 -0.14820918963E+02  0.10480585864E+03  0.17197073481E+03  0.12000000000E+03 0.  0.
<mgrwt>
<rscale>  0 0.27463940E+03</rscale>
<asrwt>0</asrwt>
<pdfrwt beam="1">  1        3 0.92341799E-02 0.27463940E+03</pdfrwt>
<pdfrwt beam="2">  1       -3 0.48332656E-01 0.27463940E+03</pdfrwt>
<totfact> 0.91551336E+02</totfact>
</mgrwt>
</event>
<event>
 5    1  0.1111501E+001  0.2817742E+03  0.7818608E-02  0.1094724E+00
          2   -1    0    0  501    0  0.00000000000E+00  0.00000000000E+00  0.10744660746E+03  0.10744660746E+03  0.00000000000E+00 0. -1.
         -2   -1    0    0    0  501 -0.00000000000E+00 -0.00000000000E+00 -0.18473523686E+03  0.18473523686E+03  0.00000000000E+00 0. -1.
         35    2    1    2    0    0  0.00000000000E+00  0.00000000000E+00 -0.77288629398E+02  0.29218184432E+03  0.28177419668E+03 0.  0.
         25    1    3    3    0    0  0.15481453019E+02  0.68678140287E+02 -0.61663646010E+02  0.15218004988E+03  0.12000000000E+03 0.  0.
         25    1    3    3    0    0 -0.15481453019E+02 -0.68678140287E+02 -0.15624983388E+02  0.14000179444E+03  0.12000000000E+03 0.  0.
<mgrwt>
<rscale>  0 0.28177420E+03</rscale>
<asrwt>0</asrwt>
<pdfrwt beam="1">  1        2 0.16530247E-01 0.28177420E+03</pdfrwt>
<pdfrwt beam="2">  1       -2 0.28420806E-01 0.28177420E+03</pdfrwt>
<totfact> 0.39007323E+03</totfact>
</mgrwt>
</event>
<event>
 5    1  0.1111501E+001  0.2769570E+03  0.7818608E-02  0.1097363E+00
          4   -1    0    0  501    0  0.00000000000E+00  0.00000000000E+00  0.11056459496E+04  0.11056459496E+04  0.00000000000E+00 0. -1.
         -4   -1    0    0    0  501 -0.00000000000E+00 -0.00000000000E+00 -0.17343969128E+02  0.17343969128E+02  0.00000000000E+00 0. -1.
         35    2    1    2    0    0  0.00000000000E+00  0.00000000000E+00  0.10883019805E+04  0.11229899188E+04  0.27695695851E+03 0.  0.
         25    1    3    3    0    0  0.31787755311E+02 -0.49795922284E+02  0.39873344537E+03  0.42056920443E+03  0.12000000000E+03 0.  0.
         25    1    3    3    0    0 -0.31787755311E+02  0.49795922284E+02  0.68956853513E+03  0.70242071432E+03  0.12000000000E+03 0.  0.
<mgrwt>
<rscale>  0 0.27695696E+03</rscale>
<asrwt>0</asrwt>
<pdfrwt beam="1">  1        4 0.17009932E+00 0.27695696E+03</pdfrwt>
<pdfrwt beam="2">  1       -4 0.26683038E-02 0.27695696E+03</pdfrwt>
<totfact> 0.27536320E+02</totfact>
</mgrwt>
</event>
<event>
 5    1  0.1111501E+001  0.2747791E+03  0.7818608E-02  0.1098575E+00
         -1   -1    0    0    0  501 -0.00000000000E+00  0.00000000000E+00  0.16246482073E+02  0.16246482073E+02  0.00000000000E+00 0. -1.
          1   -1    0    0  501    0  0.00000000000E+00 -0.00000000000E+00 -0.11618443792E+04  0.11618443792E+04  0.00000000000E+00 0. -1.
         35    2    1    2    0    0  0.00000000000E+00  0.00000000000E+00 -0.11455978971E+04  0.11780908613E+04  0.27477906673E+03 0.  0.
         25    1    3    3    0    0 -0.12424462464E+02 -0.12290432922E+02 -0.29592173202E+03  0.31980477403E+03  0.12000000000E+03 0.  0.
         25    1    3    3    0    0  0.12424462464E+02  0.12290432922E+02 -0.84967616510E+03  0.85828608724E+03  0.12000000000E+03 0.  0.
<mgrwt>
<rscale>  0 0.27477907E+03</rscale>
<asrwt>0</asrwt>
<pdfrwt beam="1">  1        1 0.17874530E+00 0.27477907E+03</pdfrwt>
<pdfrwt beam="2">  1       -1 0.24994586E-02 0.27477907E+03</pdfrwt>
<totfact> 0.60169646E+03</totfact>
</mgrwt>
</event>
<event>
 5    1  0.1111501E+001  0.2747582E+03  0.7818608E-02  0.1098587E+00
          2   -1    0    0  501    0  0.00000000000E+00  0.00000000000E+00  0.51537380933E+03  0.51537380933E+03  0.00000000000E+00 0.  1.
         -2   -1    0    0    0  501 -0.00000000000E+00 -0.00000000000E+00 -0.36620052952E+02  0.36620052952E+02  0.00000000000E+00 0.  1.
         35    2    1    2    0    0  0.00000000000E+00  0.00000000000E+00  0.47875375637E+03  0.55199386228E+03  0.27475819324E+03 0.  0.
         25    1    3    3    0    0  0.43776888553E+02  0.28331836406E+02  0.15523990001E+03  0.20302348505E+03  0.12000000000E+03 0.  0.
         25    1    3    3    0    0 -0.43776888553E+02 -0.28331836406E+02  0.32351385636E+03  0.34897037723E+03  0.12000000000E+03 0.  0.
<mgrwt>
<rscale>  0 0.27475819E+03</rscale>
<asrwt>0</asrwt>
<pdfrwt beam="1">  1        2 0.79288273E-01 0.27475819E+03</pdfrwt>
<pdfrwt beam="2">  1       -2 0.56338546E-02 0.27475819E+03</pdfrwt>
<totfact> 0.97532530E+03</totfact>
</mgrwt>
</event>
<event>
 5    1  0.1111501E+001  0.2738520E+03  0.7818608E-02  0.1099095E+00
         -2   -1    0    0    0  501 -0.00000000000E+00  0.00000000000E+00  0.17820541982E+02  0.17820541982E+02  0.00000000000E+00 0. -1.
          2   -1    0    0  501    0  0.00000000000E+00 -0.00000000000E+00 -0.10520855994E+04  0.10520855994E+04  0.00000000000E+00 0. -1.
         35    2    1    2    0    0  0.00000000000E+00  0.00000000000E+00 -0.10342650574E+04  0.10699061414E+04  0.27385204467E+03 0.  0.
         25    1    3    3    0    0 -0.55652873298E+02 -0.25893549141E+02 -0.42295999361E+03  0.44391764370E+03  0.12000000000E+03 0.  0.
         25    1    3    3    0    0  0.55652873298E+02  0.25893549141E+02 -0.61130506381E+03  0.62598849768E+03  0.12000000000E+03 0.  0.
<mgrwt>
<rscale>  0 0.27385204E+03</rscale>
<asrwt>0</asrwt>
<pdfrwt beam="1">  1        2 0.16185936E+00 0.27385204E+03</pdfrwt>
<pdfrwt beam="2">  1       -2 0.27416212E-02 0.27385204E+03</pdfrwt>
<totfact> 0.11794758E+04</totfact>
</mgrwt>
</event>
<event>
 5    1  0.1111501E+001  0.2749924E+03  0.7818608E-02  0.1098456E+00
         -2   -1    0    0    0  501 -0.00000000000E+00  0.00000000000E+00  0.11434032992E+02  0.11434032992E+02  0.00000000000E+00 0.  1.
          2   -1    0    0  501    0  0.00000000000E+00 -0.00000000000E+00 -0.16534152737E+04  0.16534152737E+04  0.00000000000E+00 0.  1.
         35    2    1    2    0    0  0.00000000000E+00  0.00000000000E+00 -0.16419812408E+04  0.16648493067E+04  0.27499239837E+03 0.  0.
         25    1    3    3    0    0 -0.60685846567E+02 -0.27989917115E+02 -0.85879758618E+03  0.86971230960E+03  0.12000000000E+03 0.  0.
         25    1    3    3    0    0  0.60685846567E+02  0.27989917115E+02 -0.78318365457E+03  0.79513699714E+03  0.12000000000E+03 0.  0.
<mgrwt>
<rscale>  0 0.27499240E+03</rscale>
<asrwt>0</asrwt>
<pdfrwt beam="1">  1        2 0.25437153E+00 0.27499240E+03</pdfrwt>
<pdfrwt beam="2">  1       -2 0.17590824E-02 0.27499240E+03</pdfrwt>
<totfact> 0.10558056E+04</totfact>
</mgrwt>
</event>
<event>
 5    1  0.1111501E+001  0.2749225E+03  0.7818608E-02  0.1098495E+00
         -2   -1    0    0    0  501 -0.00000000000E+00  0.00000000000E+00  0.13780190717E+02  0.13780190717E+02  0.00000000000E+00 0.  1.
          2   -1    0    0  501    0  0.00000000000E+00 -0.00000000000E+00 -0.13712147607E+04  0.13712147607E+04  0.00000000000E+00 0.  1.
         35    2    1    2    0    0  0.00000000000E+00  0.00000000000E+00 -0.13574345700E+04  0.13849949515E+04  0.27492254121E+03 0.  0.
         25    1    3    3    0    0 -0.22285503659E+02  0.62472165548E+02 -0.72812482892E+03  0.74092184583E+03  0.12000000000E+03 0.  0.
         25    1    3    3    0    0  0.22285503659E+02 -0.62472165548E+02 -0.62930974111E+03  0.64407310563E+03  0.12000000000E+03 0.  0.
<mgrwt>
<rscale>  0 0.27492254E+03</rscale>
<asrwt>0</asrwt>
<pdfrwt beam="1">  1        2 0.21095623E+00 0.27492254E+03</pdfrwt>
<pdfrwt beam="2">  1       -2 0.21200282E-02 0.27492254E+03</pdfrwt>
<totfact> 0.11362650E+04</totfact>
</mgrwt>
</event>
<event>
 5    1  0.1111501E+001  0.2745658E+03  0.7818608E-02  0.1098695E+00
         -2   -1    0    0    0  501 -0.00000000000E+00  0.00000000000E+00  0.21803822971E+02  0.21803822971E+02  0.00000000000E+00 0.  1.
          2   -1    0    0  501    0  0.00000000000E+00 -0.00000000000E+00 -0.86437107220E+03  0.86437107220E+03  0.00000000000E+00 0.  1.
         35    2    1    2    0    0  0.00000000000E+00  0.00000000000E+00 -0.84256724923E+03  0.88617489517E+03  0.27456579422E+03 0.  0.
         25    1    3    3    0    0 -0.36604937507E+02  0.22447351755E+02 -0.58594527917E+03  0.59964629176E+03  0.12000000000E+03 0.  0.
         25    1    3    3    0    0  0.36604937507E+02 -0.22447351755E+02 -0.25662197007E+03  0.28652860341E+03  0.12000000000E+03 0.  0.
<mgrwt>
<rscale>  0 0.27456579E+03</rscale>
<asrwt>0</asrwt>
<pdfrwt beam="1">  1        2 0.13298017E+00 0.27456579E+03</pdfrwt>
<pdfrwt beam="2">  1       -2 0.33544342E-02 0.27456579E+03</pdfrwt>
<totfact> 0.11453280E+04</totfact>
</mgrwt>
</event>
<event>
 5    1  0.1111501E+001  0.2741534E+03  0.7818608E-02  0.1098926E+00
         -2   -1    0    0    0  501 -0.00000000000E+00  0.00000000000E+00  0.32247162182E+02  0.32247162182E+02  0.00000000000E+00 0. -1.
          2   -1    0    0  501    0  0.00000000000E+00 -0.00000000000E+00 -0.58268766467E+03  0.58268766467E+03  0.00000000000E+00 0. -1.
         35    2    1    2    0    0  0.00000000000E+00  0.00000000000E+00 -0.55044050249E+03  0.61493482685E+03  0.27415341416E+03 0.  0.
         25    1    3    3    0    0  0.23701032738E+01  0.20024951585E+02 -0.41678750336E+03  0.43418710142E+03  0.12000000000E+03 0.  0.
         25    1    3    3    0    0 -0.23701032738E+01 -0.20024951585E+02 -0.13365299912E+03  0.18074772543E+03  0.12000000000E+03 0.  0.
<mgrwt>
<rscale>  0 0.27415341E+03</rscale>
<asrwt>0</asrwt>
<pdfrwt beam="1">  1        2 0.89644251E-01 0.27415341E+03</pdfrwt>
<pdfrwt beam="2">  1       -2 0.49611022E-02 0.27415341E+03</pdfrwt>
<totfact> 0.10294097E+04</totfact>
</mgrwt>
</event>
<event>
 5    1  0.1111501E+001  0.2750008E+03  0.7818608E-02  0.1098451E+00
         -2   -1    0    0    0  501 -0.00000000000E+00  0.00000000000E+00  0.31192950303E+02  0.31192950303E+02  0.00000000000E+00 0.  1.
          2   -1    0    0  501    0  0.00000000000E+00 -0.00000000000E+00 -0.60611008209E+03  0.60611008209E+03  0.00000000000E+00 0.  1.
         35    2    1    2    0    0  0.00000000000E+00  0.00000000000E+00 -0.57491713179E+03  0.63730303239E+03  0.27500081213E+03 0.  0.
         25    1    3    3    0    0 -0.61553288226E+02 -0.15150711485E+02 -0.23626368806E+03  0.27246812959E+03  0.12000000000E+03 0.  0.
         25    1    3    3    0    0  0.61553288226E+02  0.15150711485E+02 -0.33865344373E+03  0.36483490280E+03  0.12000000000E+03 0.  0.
<mgrwt>
<rscale>  0 0.27500081E+03</rscale>
<asrwt>0</asrwt>
<pdfrwt beam="1">  1        2 0.93247693E-01 0.27500081E+03</pdfrwt>
<pdfrwt beam="2">  1       -2 0.47989160E-02 0.27500081E+03</pdfrwt>
<totfact> 0.10344645E+04</totfact>
</mgrwt>
</event>
<event>
 5    1  0.1111501E+001  0.2756351E+03  0.7818608E-02  0.1098097E+00
         -1   -1    0    0    0  501 -0.00000000000E+00  0.00000000000E+00  0.12588417848E+03  0.12588417848E+03  0.00000000000E+00 0.  1.
          1   -1    0    0  501    0  0.00000000000E+00 -0.00000000000E+00 -0.15088219546E+03  0.15088219546E+03  0.00000000000E+00 0.  1.
         35    2    1    2    0    0  0.00000000000E+00  0.00000000000E+00 -0.24998016979E+02  0.27676637394E+03  0.27563513000E+03 0.  0.
         25    1    3    3    0    0 -0.65141770618E+02  0.18714403642E+02 -0.12544354360E+02  0.13838728269E+03  0.12000000000E+03 0.  0.
         25    1    3    3    0    0  0.65141770618E+02 -0.18714403642E+02 -0.12453662619E+02  0.13837909125E+03  0.12000000000E+03 0.  0.
<mgrwt>
<rscale>  0 0.27563513E+03</rscale>
<asrwt>0</asrwt>
<pdfrwt beam="1">  1        1 0.23212646E-01 0.27563513E+03</pdfrwt>
<pdfrwt beam="2">  1       -1 0.19366797E-01 0.27563513E+03</pdfrwt>
<totfact> 0.44463749E+03</totfact>
</mgrwt>
</event>
<event>
 5    1  0.1111501E+001  0.2757096E+03  0.7818608E-02  0.1098056E+00
          2   -1    0    0  501    0  0.00000000000E+00  0.00000000000E+00  0.23065893391E+04  0.23065893391E+04  0.00000000000E+00 0. -1.
         -2   -1    0    0    0  501 -0.00000000000E+00 -0.00000000000E+00 -0.82389827974E+01  0.82389827974E+01  0.00000000000E+00 0. -1.
         35    2    1    2    0    0  0.00000000000E+00  0.00000000000E+00  0.22983503563E+04  0.23148283219E+04  0.27570962903E+03 0.  0.
         25    1    3    3    0    0  0.66329060005E+02 -0.12081364066E+02  0.10849884167E+04  0.10936843091E+04  0.12000000000E+03 0.  0.
         25    1    3    3    0    0 -0.66329060005E+02  0.12081364066E+02  0.12133619396E+04  0.12211440128E+04  0.12000000000E+03 0.  0.
<mgrwt>
<rscale>  0 0.27570963E+03</rscale>
<asrwt>0</asrwt>
<pdfrwt beam="1">  1        2 0.35485938E+00 0.27570963E+03</pdfrwt>
<pdfrwt beam="2">  1       -2 0.12675377E-02 0.27570963E+03</pdfrwt>
<totfact> 0.77075612E+03</totfact>
</mgrwt>
</event>
<event>
 5    1  0.1111501E+001  0.2782422E+03  0.7818608E-02  0.1096653E+00
          2   -1    0    0  501    0  0.00000000000E+00  0.00000000000E+00  0.91292019779E+03  0.91292019779E+03  0.00000000000E+00 0. -1.
         -2   -1    0    0    0  501 -0.00000000000E+00 -0.00000000000E+00 -0.21200846879E+02  0.21200846879E+02  0.00000000000E+00 0. -1.
         35    2    1    2    0    0  0.00000000000E+00  0.00000000000E+00  0.89171935091E+03  0.93412104467E+03  0.27824220619E+03 0.  0.
         25    1    3    3    0    0  0.19738649227E+01 -0.57146405533E+02  0.58367248127E+03  0.59861771875E+03  0.12000000000E+03 0.  0.
         25    1    3    3    0    0 -0.19738649227E+01  0.57146405533E+02  0.30804686964E+03  0.33550332592E+03  0.12000000000E+03 0.  0.
<mgrwt>
<rscale>  0 0.27824221E+03</rscale>
<asrwt>0</asrwt>
<pdfrwt beam="1">  1        2 0.14044923E+00 0.27824221E+03</pdfrwt>
<pdfrwt beam="2">  1       -2 0.32616695E-02 0.27824221E+03</pdfrwt>
<totfact> 0.11110162E+04</totfact>
</mgrwt>
</event>
<event>
 5    1  0.1111501E+001  0.2764056E+03  0.7818608E-02  0.1097668E+00
          2   -1    0    0  501    0  0.00000000000E+00  0.00000000000E+00  0.53048864928E+03  0.53048864928E+03  0.00000000000E+00 0. -1.
         -2   -1    0    0    0  501 -0.00000000000E+00 -0.00000000000E+00 -0.36004562941E+02  0.36004562941E+02  0.00000000000E+00 0. -1.
         35    2    1    2    0    0  0.00000000000E+00  0.00000000000E+00  0.49448408634E+03  0.56649321222E+03  0.27640558578E+03 0.  0.
         25    1    3    3    0    0 -0.45452038342E+02 -0.91399694209E+01  0.35074858692E+03  0.37359603593E+03  0.12000000000E+03 0.  0.
         25    1    3    3    0    0  0.45452038342E+02  0.91399694209E+01  0.14373549942E+03  0.19289717630E+03  0.12000000000E+03 0.  0.
<mgrwt>
<rscale>  0 0.27640559E+03</rscale>
<asrwt>0</asrwt>
<pdfrwt beam="1">  1        2 0.81613633E-01 0.27640559E+03</pdfrwt>
<pdfrwt beam="2">  1       -2 0.55391639E-02 0.27640559E+03</pdfrwt>
<totfact> 0.96903520E+03</totfact>
</mgrwt>
</event>
<event>
 5    1  0.1111501E+001  0.2764443E+03  0.7818608E-02  0.1097647E+00
         -2   -1    0    0    0  501 -0.00000000000E+00  0.00000000000E+00  0.52613483547E+02  0.52613483547E+02  0.00000000000E+00 0.  1.
          2   -1    0    0  501    0  0.00000000000E+00 -0.00000000000E+00 -0.36312676178E+03  0.36312676178E+03  0.00000000000E+00 0.  1.
         35    2    1    2    0    0  0.00000000000E+00  0.00000000000E+00 -0.31051327823E+03  0.41574024533E+03  0.27644430836E+03 0.  0.
         25    1    3    3    0    0  0.46654304526E+02  0.26125551432E+02 -0.21987459867E+03  0.25613279312E+03  0.12000000000E+03 0.  0.
         25    1    3    3    0    0 -0.46654304526E+02 -0.26125551432E+02 -0.90638679560E+02  0.15960745221E+03  0.12000000000E+03 0.  0.
<mgrwt>
<rscale>  0 0.27644431E+03</rscale>
<asrwt>0</asrwt>
<pdfrwt beam="1">  1        2 0.55865657E-01 0.27644431E+03</pdfrwt>
<pdfrwt beam="2">  1       -2 0.80943819E-02 0.27644431E+03</pdfrwt>
<totfact> 0.81846011E+03</totfact>
</mgrwt>
</event>
<event>
 5    1  0.1111501E+001  0.2756514E+03  0.7818608E-02  0.1098088E+00
          2   -1    0    0  501    0  0.00000000000E+00  0.00000000000E+00  0.45781237643E+03  0.45781237643E+03  0.00000000000E+00 0. -1.
         -2   -1    0    0    0  501 -0.00000000000E+00 -0.00000000000E+00 -0.41492819765E+02  0.41492819765E+02  0.00000000000E+00 0. -1.
         35    2    1    2    0    0  0.00000000000E+00  0.00000000000E+00  0.41631955667E+03  0.49930519620E+03  0.27565142061E+03 0.  0.
         25    1    3    3    0    0 -0.45855728636E+02  0.30118743899E+02  0.28029757887E+03  0.30980093496E+03  0.12000000000E+03 0.  0.
         25    1    3    3    0    0  0.45855728636E+02 -0.30118743899E+02  0.13602197780E+03  0.18950426124E+03  0.12000000000E+03 0.  0.
<mgrwt>
<rscale>  0 0.27565142E+03</rscale>
<asrwt>0</asrwt>
<pdfrwt beam="1">  1        2 0.70432670E-01 0.27565142E+03</pdfrwt>
<pdfrwt beam="2">  1       -2 0.63835111E-02 0.27565142E+03</pdfrwt>
<totfact> 0.91885985E+03</totfact>
</mgrwt>
</event>
<event>
 5    1  0.1111501E+001  0.2776522E+03  0.7818608E-02  0.1096978E+00
          2   -1    0    0  501    0  0.00000000000E+00  0.00000000000E+00  0.17872159782E+04  0.17872159782E+04  0.00000000000E+00 0.  1.
         -2   -1    0    0    0  501 -0.00000000000E+00 -0.00000000000E+00 -0.10783638041E+02  0.10783638041E+02  0.00000000000E+00 0.  1.
         35    2    1    2    0    0  0.00000000000E+00  0.00000000000E+00  0.17764323402E+04  0.17979996163E+04  0.27765223004E+03 0.  0.
         25    1    3    3    0    0 -0.43811688042E+02  0.41232231587E+02  0.65897829847E+03  0.67251167929E+03  0.12000000000E+03 0.  0.
         25    1    3    3    0    0  0.43811688042E+02 -0.41232231587E+02  0.11174540417E+04  0.11254879370E+04  0.12000000000E+03 0.  0.
<mgrwt>
<rscale>  0 0.27765223E+03</rscale>
<asrwt>0</asrwt>
<pdfrwt beam="1">  1        2 0.27495607E+00 0.27765223E+03</pdfrwt>
<pdfrwt beam="2">  1       -2 0.16590227E-02 0.27765223E+03</pdfrwt>
<totfact> 0.97839620E+03</totfact>
</mgrwt>
</event>
<event>
 5    1  0.1111501E+001  0.2750969E+03  0.7818608E-02  0.1098397E+00
          2   -1    0    0  501    0  0.00000000000E+00  0.00000000000E+00  0.37774278998E+03  0.37774278998E+03  0.00000000000E+00 0. -1.
         -2   -1    0    0    0  501 -0.00000000000E+00 -0.00000000000E+00 -0.50085860206E+02  0.50085860206E+02  0.00000000000E+00 0. -1.
         35    2    1    2    0    0  0.00000000000E+00  0.00000000000E+00  0.32765692977E+03  0.42782865019E+03  0.27509687437E+03 0.  0.
         25    1    3    3    0    0 -0.27966953776E+02  0.56097124206E+02  0.20162107861E+03  0.24285818328E+03  0.12000000000E+03 0.  0.
         25    1    3    3    0    0  0.27966953776E+02 -0.56097124206E+02  0.12603585117E+03  0.18497046691E+03  0.12000000000E+03 0.  0.
<mgrwt>
<rscale>  0 0.27509687E+03</rscale>
<asrwt>0</asrwt>
<pdfrwt beam="1">  1        2 0.58114274E-01 0.27509687E+03</pdfrwt>
<pdfrwt beam="2">  1       -2 0.77055172E-02 0.27509687E+03</pdfrwt>
<totfact> 0.84673812E+03</totfact>
</mgrwt>
</event>
<event>
 5    1  0.1111501E+001  0.2760980E+03  0.7818608E-02  0.1097839E+00
         -2   -1    0    0    0  501 -0.00000000000E+00  0.00000000000E+00  0.79105496761E+03  0.79105496761E+03  0.00000000000E+00 0.  1.
          2   -1    0    0  501    0  0.00000000000E+00 -0.00000000000E+00 -0.24091281954E+02  0.24091281954E+02  0.00000000000E+00 0.  1.
         35    2    1    2    0    0  0.00000000000E+00  0.00000000000E+00  0.76696368565E+03  0.81514624956E+03  0.27609801351E+03 0.  0.
         25    1    3    3    0    0  0.51393254475E+02 -0.44870232912E+02  0.38853020409E+03  0.41232308194E+03  0.12000000000E+03 0.  0.
         25    1    3    3    0    0 -0.51393254475E+02  0.44870232912E+02  0.37843348156E+03  0.40282316762E+03  0.12000000000E+03 0.  0.
<mgrwt>
<rscale>  0 0.27609801E+03</rscale>
<asrwt>0</asrwt>
<pdfrwt beam="1">  1        2 0.37063517E-02 0.27609801E+03</pdfrwt>
<pdfrwt beam="2">  1       -2 0.12170074E+00 0.27609801E+03</pdfrwt>
<totfact> 0.12606694E+03</totfact>
</mgrwt>
</event>
<event>
 5    1  0.1111501E+001  0.2899962E+03  0.7818608E-02  0.1090351E+00
          3   -1    0    0  501    0  0.00000000000E+00  0.00000000000E+00  0.24255175819E+02  0.24255175819E+02  0.00000000000E+00 0.  1.
         -3   -1    0    0    0  501 -0.00000000000E+00 -0.00000000000E+00 -0.86680230023E+03  0.86680230023E+03  0.00000000000E+00 0.  1.
         35    2    1    2    0    0  0.00000000000E+00  0.00000000000E+00 -0.84254712441E+03  0.89105747605E+03  0.28999615303E+03 0.  0.
         25    1    3    3    0    0  0.77456736596E+02 -0.22579965303E+02 -0.38831711394E+03  0.41436648255E+03  0.12000000000E+03 0.  0.
         25    1    3    3    0    0 -0.77456736596E+02  0.22579965303E+02 -0.45423001047E+03  0.47669099350E+03  0.12000000000E+03 0.  0.
<mgrwt>
<rscale>  0 0.28999615E+03</rscale>
<asrwt>0</asrwt>
<pdfrwt beam="1">  1        3 0.37315653E-02 0.28999615E+03</pdfrwt>
<pdfrwt beam="2">  1       -3 0.13335421E+00 0.28999615E+03</pdfrwt>
<totfact> 0.42248032E+02</totfact>
</mgrwt>
</event>
<event>
 5    1  0.1111501E+001  0.2744696E+03  0.7818608E-02  0.1098748E+00
          1   -1    0    0  501    0  0.00000000000E+00  0.00000000000E+00  0.34024761267E+02  0.34024761267E+02  0.00000000000E+00 0.  1.
         -1   -1    0    0    0  501 -0.00000000000E+00 -0.00000000000E+00 -0.55352030159E+03  0.55352030159E+03  0.00000000000E+00 0.  1.
         35    2    1    2    0    0  0.00000000000E+00  0.00000000000E+00 -0.51949554032E+03  0.58754506285E+03  0.27446964217E+03 0.  0.
         25    1    3    3    0    0 -0.16225518296E+02  0.51121343287E+02 -0.34420843192E+03  0.36845095167E+03  0.12000000000E+03 0.  0.
         25    1    3    3    0    0  0.16225518296E+02 -0.51121343287E+02 -0.17528710840E+03  0.21909411118E+03  0.12000000000E+03 0.  0.
<mgrwt>
<rscale>  0 0.27446964E+03</rscale>
<asrwt>0</asrwt>
<pdfrwt beam="1">  1        1 0.52345793E-02 0.27446964E+03</pdfrwt>
<pdfrwt beam="2">  1       -1 0.85156958E-01 0.27446964E+03</pdfrwt>
<totfact> 0.22298991E+03</totfact>
</mgrwt>
</event>
<event>
 5    1  0.1111501E+001  0.2749678E+03  0.7818608E-02  0.1098470E+00
          2   -1    0    0  501    0  0.00000000000E+00  0.00000000000E+00  0.52270699849E+02  0.52270699849E+02  0.00000000000E+00 0.  1.
         -2   -1    0    0    0  501 -0.00000000000E+00 -0.00000000000E+00 -0.36161422156E+03  0.36161422156E+03  0.00000000000E+00 0.  1.
         35    2    1    2    0    0  0.00000000000E+00  0.00000000000E+00 -0.30934352171E+03  0.41388492141E+03  0.27496784129E+03 0.  0.
         25    1    3    3    0    0  0.30757984676E+02 -0.32155241085E+02 -0.79083502844E+02  0.15044671340E+03  0.12000000000E+03 0.  0.
         25    1    3    3    0    0 -0.30757984676E+02  0.32155241085E+02 -0.23026001887E+03  0.26343820801E+03  0.12000000000E+03 0.  0.
<mgrwt>
<rscale>  0 0.27496784E+03</rscale>
<asrwt>0</asrwt>
<pdfrwt beam="1">  1        2 0.80416462E-02 0.27496784E+03</pdfrwt>
<pdfrwt beam="2">  1       -2 0.55632956E-01 0.27496784E+03</pdfrwt>
<totfact> 0.26037313E+03</totfact>
</mgrwt>
</event>
<event>
 5    1  0.1111501E+001  0.2737661E+03  0.7818608E-02  0.1099143E+00
          2   -1    0    0  501    0  0.00000000000E+00  0.00000000000E+00  0.43257028314E+03  0.43257028314E+03  0.00000000000E+00 0.  1.
         -2   -1    0    0    0  501 -0.00000000000E+00 -0.00000000000E+00 -0.43315446856E+02  0.43315446856E+02  0.00000000000E+00 0.  1.
         35    2    1    2    0    0  0.00000000000E+00  0.00000000000E+00  0.38925483629E+03  0.47588573000E+03  0.27376614189E+03 0.  0.
         25    1    3    3    0    0 -0.14968903221E+02  0.41358703573E+02  0.10942686503E+03  0.16825233792E+03  0.12000000000E+03 0.  0.
         25    1    3    3    0    0  0.14968903221E+02 -0.41358703573E+02  0.27982797126E+03  0.30763339208E+03  0.12000000000E+03 0.  0.
<mgrwt>
<rscale>  0 0.27376614E+03</rscale>
<asrwt>0</asrwt>
<pdfrwt beam="1">  1        2 0.66549271E-01 0.27376614E+03</pdfrwt>
<pdfrwt beam="2">  1       -2 0.66639152E-02 0.27376614E+03</pdfrwt>
<totfact> 0.91501917E+03</totfact>
</mgrwt>
</event>
<event>
 5    1  0.1111501E+001  0.2751477E+03  0.7818608E-02  0.1098369E+00
          2   -1    0    0  501    0  0.00000000000E+00  0.00000000000E+00  0.26247162513E+04  0.26247162513E+04  0.00000000000E+00 0. -1.
         -2   -1    0    0    0  501 -0.00000000000E+00 -0.00000000000E+00 -0.72108970718E+01  0.72108970718E+01  0.00000000000E+00 0. -1.
         35    2    1    2    0    0  0.00000000000E+00  0.00000000000E+00  0.26175053543E+04  0.26319271484E+04  0.27514766022E+03 0.  0.
         25    1    3    3    0    0  0.55485981301E+02 -0.34512156597E+02  0.11554728632E+04  0.11635236657E+04  0.12000000000E+03 0.  0.
         25    1    3    3    0    0 -0.55485981301E+02  0.34512156597E+02  0.14620324911E+04  0.14684034827E+04  0.12000000000E+03 0.  0.
<mgrwt>
<rscale>  0 0.27514766E+03</rscale>
<asrwt>0</asrwt>
<pdfrwt beam="1">  1        2 0.40380174E+00 0.27514766E+03</pdfrwt>
<pdfrwt beam="2">  1       -2 0.11093709E-02 0.27514766E+03</pdfrwt>
<totfact> 0.62730882E+03</totfact>
</mgrwt>
</event>
<event>
 5    1  0.1111501E+001  0.2750636E+03  0.7818608E-02  0.1098416E+00
          2   -1    0    0  501    0  0.00000000000E+00  0.00000000000E+00  0.89980460692E+03  0.89980460692E+03  0.00000000000E+00 0. -1.
         -2   -1    0    0    0  501 -0.00000000000E+00 -0.00000000000E+00 -0.21021220586E+02  0.21021220586E+02  0.00000000000E+00 0. -1.
         35    2    1    2    0    0  0.00000000000E+00  0.00000000000E+00  0.87878338634E+03  0.92082582751E+03  0.27506356448E+03 0.  0.
         25    1    3    3    0    0 -0.26459486062E+02 -0.10573375323E+02  0.64310837132E+03  0.65482843397E+03  0.12000000000E+03 0.  0.
         25    1    3    3    0    0  0.26459486062E+02  0.10573375323E+02  0.23567501501E+03  0.26599739354E+03  0.12000000000E+03 0.  0.
<mgrwt>
<rscale>  0 0.27506356E+03</rscale>
<asrwt>0</asrwt>
<pdfrwt beam="1">  1        2 0.13843145E+00 0.27506356E+03</pdfrwt>
<pdfrwt beam="2">  1       -2 0.32340346E-02 0.27506356E+03</pdfrwt>
<totfact> 0.11468731E+04</totfact>
</mgrwt>
</event>
<event>
 5    1  0.1111501E+001  0.2751076E+03  0.7818608E-02  0.1098391E+00
         -2   -1    0    0    0  501 -0.00000000000E+00  0.00000000000E+00  0.30186627877E+02  0.30186627877E+02  0.00000000000E+00 0. -1.
          2   -1    0    0  501    0  0.00000000000E+00 -0.00000000000E+00 -0.62680225788E+03  0.62680225788E+03  0.00000000000E+00 0. -1.
         35    2    1    2    0    0  0.00000000000E+00  0.00000000000E+00 -0.59661563001E+03  0.65698888576E+03  0.27510758994E+03 0.  0.
         25    1    3    3    0    0 -0.52787095558E+02 -0.19014901030E+02 -0.20981843973E+03  0.24813669936E+03  0.12000000000E+03 0.  0.
         25    1    3    3    0    0  0.52787095558E+02  0.19014901030E+02 -0.38679719027E+03  0.40885218640E+03  0.12000000000E+03 0.  0.
<mgrwt>
<rscale>  0 0.27510759E+03</rscale>
<asrwt>0</asrwt>
<pdfrwt beam="1">  1        2 0.96431115E-01 0.27510759E+03</pdfrwt>
<pdfrwt beam="2">  1       -2 0.46440967E-02 0.27510759E+03</pdfrwt>
<totfact> 0.10453320E+04</totfact>
</mgrwt>
</event>
<event>
 5    1  0.1111501E+001  0.2750853E+03  0.7818608E-02  0.1098404E+00
          2   -1    0    0  501    0  0.00000000000E+00  0.00000000000E+00  0.31614529330E+04  0.31614529330E+04  0.00000000000E+00 0.  1.
         -2   -1    0    0    0  501 -0.00000000000E+00 -0.00000000000E+00 -0.59839507814E+01  0.59839507814E+01  0.00000000000E+00 0.  1.
         35    2    1    2    0    0  0.00000000000E+00  0.00000000000E+00  0.31554689822E+04  0.31674368838E+04  0.27508528677E+03 0.  0.
         25    1    3    3    0    0 -0.24870524334E+02 -0.62310467032E+02  0.15304813632E+04  0.15366438561E+04  0.12000000000E+03 0.  0.
         25    1    3    3    0    0  0.24870524334E+02  0.62310467032E+02  0.16249876190E+04  0.16307930277E+04  0.12000000000E+03 0.  0.
<mgrwt>
<rscale>  0 0.27508529E+03</rscale>
<asrwt>0</asrwt>
<pdfrwt beam="1">  1        2 0.48637604E+00 0.27508529E+03</pdfrwt>
<pdfrwt beam="2">  1       -2 0.92061034E-03 0.27508529E+03</pdfrwt>
<totfact> 0.40043676E+03</totfact>
</mgrwt>
</event>
<event>
 5    1  0.1111501E+001  0.2757401E+03  0.7818608E-02  0.1098039E+00
          2   -1    0    0  501    0  0.00000000000E+00  0.00000000000E+00  0.18747150639E+03  0.18747150639E+03  0.00000000000E+00 0.  1.
         -2   -1    0    0    0  501 -0.00000000000E+00 -0.00000000000E+00 -0.10139223848E+03  0.10139223848E+03  0.00000000000E+00 0.  1.
         35    2    1    2    0    0  0.00000000000E+00  0.00000000000E+00  0.86079267905E+02  0.28886374487E+03  0.27574013625E+03 0.  0.
         25    1    3    3    0    0  0.14547503123E+01 -0.65131210458E+02  0.23053778156E+02  0.13847623465E+03  0.12000000000E+03 0.  0.
         25    1    3    3    0    0 -0.14547503123E+01  0.65131210458E+02  0.63025489749E+02  0.15038751023E+03  0.12000000000E+03 0.  0.
<mgrwt>
<rscale>  0 0.27574014E+03</rscale>
<asrwt>0</asrwt>
<pdfrwt beam="1">  1        2 0.28841770E-01 0.27574014E+03</pdfrwt>
<pdfrwt beam="2">  1       -2 0.15598806E-01 0.27574014E+03</pdfrwt>
<totfact> 0.58325279E+03</totfact>
</mgrwt>
</event>
<event>
 5    1  0.1111501E+001  0.2752377E+03  0.7818608E-02  0.1098319E+00
          1   -1    0    0  501    0  0.00000000000E+00  0.00000000000E+00  0.10466735469E+04  0.10466735469E+04  0.00000000000E+00 0. -1.
         -1   -1    0    0    0  501 -0.00000000000E+00 -0.00000000000E+00 -0.18094422132E+02  0.18094422132E+02  0.00000000000E+00 0. -1.
         35    2    1    2    0    0  0.00000000000E+00  0.00000000000E+00  0.10285791248E+04  0.10647679690E+04  0.27523773718E+03 0.  0.
         25    1    3    3    0    0  0.45897880814E+02 -0.45367479187E+02  0.58911648685E+03  0.60466772587E+03  0.12000000000E+03 0.  0.
         25    1    3    3    0    0 -0.45897880814E+02  0.45367479187E+02  0.43946263790E+03  0.46010024315E+03  0.12000000000E+03 0.  0.
<mgrwt>
<rscale>  0 0.27523774E+03</rscale>
<asrwt>0</asrwt>
<pdfrwt beam="1">  1        1 0.16102665E+00 0.27523774E+03</pdfrwt>
<pdfrwt beam="2">  1       -1 0.27837581E-02 0.27523774E+03</pdfrwt>
<totfact> 0.62160719E+03</totfact>
</mgrwt>
</event>
<event>
 5    1  0.1111501E+001  0.2765231E+03  0.7818608E-02  0.1097603E+00
         -2   -1    0    0    0  501 -0.00000000000E+00  0.00000000000E+00  0.10990545910E+03  0.10990545910E+03  0.00000000000E+00 0. -1.
          2   -1    0    0  501    0  0.00000000000E+00 -0.00000000000E+00 -0.17393359536E+03  0.17393359536E+03  0.00000000000E+00 0. -1.
         35    2    1    2    0    0  0.00000000000E+00  0.00000000000E+00 -0.64028136255E+02  0.28383905446E+03  0.27652306704E+03 0.  0.
         25    1    3    3    0    0 -0.23822501000E+02 -0.34383698283E+02 -0.87920665962E+02  0.15453088288E+03  0.12000000000E+03 0.  0.
         25    1    3    3    0    0  0.23822501000E+02  0.34383698283E+02  0.23892529706E+02  0.12930817158E+03  0.12000000000E+03 0.  0.
<mgrwt>
<rscale>  0 0.27652307E+03</rscale>
<asrwt>0</asrwt>
<pdfrwt beam="1">  1        2 0.26759015E-01 0.27652307E+03</pdfrwt>
<pdfrwt beam="2">  1       -2 0.16908532E-01 0.27652307E+03</pdfrwt>
<totfact> 0.55400446E+03</totfact>
</mgrwt>
</event>
<event>
 5    1  0.1111501E+001  0.2752403E+03  0.7818608E-02  0.1098317E+00
          2   -1    0    0  501    0  0.00000000000E+00  0.00000000000E+00  0.10139974158E+04  0.10139974158E+04  0.00000000000E+00 0.  1.
         -2   -1    0    0    0  501 -0.00000000000E+00 -0.00000000000E+00 -0.18677861730E+02  0.18677861730E+02  0.00000000000E+00 0.  1.
         35    2    1    2    0    0  0.00000000000E+00  0.00000000000E+00  0.99531955410E+03  0.10326752776E+04  0.27524028431E+03 0.  0.
         25    1    3    3    0    0  0.31024031657E+02 -0.10179763717E+02  0.71877353489E+03  0.72945288579E+03  0.12000000000E+03 0.  0.
         25    1    3    3    0    0 -0.31024031657E+02  0.10179763717E+02  0.27654601921E+03  0.30322239177E+03  0.12000000000E+03 0.  0.
<mgrwt>
<rscale>  0 0.27524028E+03</rscale>
<asrwt>0</asrwt>
<pdfrwt beam="1">  1        2 0.15599956E+00 0.27524028E+03</pdfrwt>
<pdfrwt beam="2">  1       -2 0.28735180E-02 0.27524028E+03</pdfrwt>
<totfact> 0.11599543E+04</totfact>
</mgrwt>
</event>
<event>
 5    1  0.1111501E+001  0.2750110E+03  0.7818608E-02  0.1098445E+00
          2   -1    0    0  501    0  0.00000000000E+00  0.00000000000E+00  0.14041435560E+04  0.14041435560E+04  0.00000000000E+00 0. -1.
         -2   -1    0    0    0  501 -0.00000000000E+00 -0.00000000000E+00 -0.13465689227E+02  0.13465689227E+02  0.00000000000E+00 0. -1.
         35    2    1    2    0    0  0.00000000000E+00  0.00000000000E+00  0.13906778667E+04  0.14176092452E+04  0.27501098709E+03 0.  0.
         25    1    3    3    0    0 -0.51309772120E+02 -0.31216843984E+02  0.54064729357E+03  0.55705177507E+03  0.12000000000E+03 0.  0.
         25    1    3    3    0    0  0.51309772120E+02  0.31216843984E+02  0.85003057317E+03  0.86055747013E+03  0.12000000000E+03 0.  0.
<mgrwt>
<rscale>  0 0.27501099E+03</rscale>
<asrwt>0</asrwt>
<pdfrwt beam="1">  1        2 0.21602197E+00 0.27501099E+03</pdfrwt>
<pdfrwt beam="2">  1       -2 0.20716456E-02 0.27501099E+03</pdfrwt>
<totfact> 0.11280611E+04</totfact>
</mgrwt>
</event>
<event>
 5    1  0.1111501E+001  0.2729669E+03  0.7818608E-02  0.1099593E+00
         -1   -1    0    0    0  501 -0.00000000000E+00  0.00000000000E+00  0.44148108678E+02  0.44148108678E+02  0.00000000000E+00 0. -1.
          1   -1    0    0  501    0  0.00000000000E+00 -0.00000000000E+00 -0.42193734828E+03  0.42193734828E+03  0.00000000000E+00 0. -1.
         35    2    1    2    0    0  0.00000000000E+00  0.00000000000E+00 -0.37778923960E+03  0.46608545696E+03  0.27296692772E+03 0.  0.
         25    1    3    3    0    0  0.22666886033E+02  0.44207106026E+02 -0.11726834500E+03  0.17498548707E+03  0.12000000000E+03 0.  0.
         25    1    3    3    0    0 -0.22666886033E+02 -0.44207106026E+02 -0.26052089460E+03  0.29109996989E+03  0.12000000000E+03 0.  0.
<mgrwt>
<rscale>  0 0.27296693E+03</rscale>
<asrwt>0</asrwt>
<pdfrwt beam="1">  1        1 0.64913434E-01 0.27296693E+03</pdfrwt>
<pdfrwt beam="2">  1       -1 0.67920171E-02 0.27296693E+03</pdfrwt>
<totfact> 0.62166598E+03</totfact>
</mgrwt>
</event>
<event>
 5    1  0.1111501E+001  0.2750940E+03  0.7818608E-02  0.1098399E+00
          2   -1    0    0  501    0  0.00000000000E+00  0.00000000000E+00  0.30292451324E+04  0.30292451324E+04  0.00000000000E+00 0.  1.
         -2   -1    0    0    0  501 -0.00000000000E+00 -0.00000000000E+00 -0.62455067106E+01  0.62455067106E+01  0.00000000000E+00 0.  1.
         35    2    1    2    0    0  0.00000000000E+00  0.00000000000E+00  0.30229996257E+04  0.30354906392E+04  0.27509395343E+03 0.  0.
         25    1    3    3    0    0 -0.52665785655E+02  0.41420523651E+02  0.14512375154E+04  0.14577310009E+04  0.12000000000E+03 0.  0.
         25    1    3    3    0    0  0.52665785655E+02 -0.41420523651E+02  0.15717621103E+04  0.15777596383E+04  0.12000000000E+03 0.  0.
<mgrwt>
<rscale>  0 0.27509395E+03</rscale>
<asrwt>0</asrwt>
<pdfrwt beam="1">  1        2 0.46603654E+00 0.27509395E+03</pdfrwt>
<pdfrwt beam="2">  1       -2 0.96084961E-03 0.27509395E+03</pdfrwt>
<totfact> 0.45231028E+03</totfact>
</mgrwt>
</event>
<event>
 5    1  0.1111501E+001  0.2746413E+03  0.7818608E-02  0.1098652E+00
         -4   -1    0    0    0  501 -0.00000000000E+00  0.00000000000E+00  0.23625548439E+02  0.23625548439E+02  0.00000000000E+00 0.  1.
          4   -1    0    0  501    0  0.00000000000E+00 -0.00000000000E+00 -0.79815944069E+03  0.79815944069E+03  0.00000000000E+00 0.  1.
         35    2    1    2    0    0  0.00000000000E+00  0.00000000000E+00 -0.77453389225E+03  0.82178498913E+03  0.27464125348E+03 0.  0.
         25    1    3    3    0    0  0.30650810511E+02  0.59263326280E+02 -0.38035208518E+03  0.40437522516E+03  0.12000000000E+03 0.  0.
         25    1    3    3    0    0 -0.30650810511E+02 -0.59263326280E+02 -0.39418180707E+03  0.41740976397E+03  0.12000000000E+03 0.  0.
<mgrwt>
<rscale>  0 0.27464125E+03</rscale>
<asrwt>0</asrwt>
<pdfrwt beam="1">  1        4 0.12279375E+00 0.27464125E+03</pdfrwt>
<pdfrwt beam="2">  1       -4 0.36347002E-02 0.27464125E+03</pdfrwt>
<totfact> 0.38974675E+02</totfact>
</mgrwt>
</event>
<event>
 5    1  0.1111501E+001  0.2743642E+03  0.7818608E-02  0.1098808E+00
          1   -1    0    0  501    0  0.00000000000E+00  0.00000000000E+00  0.66971082847E+03  0.66971082847E+03  0.00000000000E+00 0. -1.
         -1   -1    0    0    0  501 -0.00000000000E+00 -0.00000000000E+00 -0.28100089248E+02  0.28100089248E+02  0.00000000000E+00 0. -1.
         35    2    1    2    0    0  0.00000000000E+00  0.00000000000E+00  0.64161073922E+03  0.69781091772E+03  0.27436424002E+03 0.  0.
         25    1    3    3    0    0 -0.20464141885E+02 -0.48839662165E+02  0.42301105384E+03  0.44287971886E+03  0.12000000000E+03 0.  0.
         25    1    3    3    0    0  0.20464141885E+02  0.48839662165E+02  0.21859968538E+03  0.25493119886E+03  0.12000000000E+03 0.  0.
<mgrwt>
<rscale>  0 0.27436424E+03</rscale>
<asrwt>0</asrwt>
<pdfrwt beam="1">  1        1 0.10303242E+00 0.27436424E+03</pdfrwt>
<pdfrwt beam="2">  1       -1 0.43230911E-02 0.27436424E+03</pdfrwt>
<totfact> 0.65639333E+03</totfact>
</mgrwt>
</event>
<event>
 5    1  0.1111501E+001  0.2741938E+03  0.7818608E-02  0.1098903E+00
         -2   -1    0    0    0  501 -0.00000000000E+00  0.00000000000E+00  0.56245253574E+01  0.56245253574E+01  0.00000000000E+00 0.  1.
          2   -1    0    0  501    0  0.00000000000E+00 -0.00000000000E+00 -0.33417160635E+04  0.33417160635E+04  0.00000000000E+00 0.  1.
         35    2    1    2    0    0  0.00000000000E+00  0.00000000000E+00 -0.33360915381E+04  0.33473405888E+04  0.27419384921E+03 0.  0.
         25    1    3    3    0    0  0.83673054898E+01  0.29170183504E+02 -0.94843432595E+03  0.95647717278E+03  0.12000000000E+03 0.  0.
         25    1    3    3    0    0 -0.83673054898E+01 -0.29170183504E+02 -0.23876572122E+04  0.23908634160E+04  0.12000000000E+03 0.  0.
<mgrwt>
<rscale>  0 0.27419385E+03</rscale>
<asrwt>0</asrwt>
<pdfrwt beam="1">  1        2 0.51411098E+00 0.27419385E+03</pdfrwt>
<pdfrwt beam="2">  1       -2 0.86531022E-03 0.27419385E+03</pdfrwt>
<totfact> 0.33807276E+03</totfact>
</mgrwt>
</event>
<event>
 5    1  0.1111501E+001  0.2763328E+03  0.7818608E-02  0.1097709E+00
          1   -1    0    0  501    0  0.00000000000E+00  0.00000000000E+00  0.12916049930E+04  0.12916049930E+04  0.00000000000E+00 0.  1.
         -1   -1    0    0    0  501 -0.00000000000E+00 -0.00000000000E+00 -0.14780026811E+02  0.14780026811E+02  0.00000000000E+00 0.  1.
         35    2    1    2    0    0  0.00000000000E+00  0.00000000000E+00  0.12768249662E+04  0.13063850198E+04  0.27633281691E+03 0.  0.
         25    1    3    3    0    0  0.44178247846E+02 -0.47178544215E+02  0.74542963227E+03  0.75778814274E+03  0.12000000000E+03 0.  0.
         25    1    3    3    0    0 -0.44178247846E+02  0.47178544215E+02  0.53139533394E+03  0.54859687708E+03  0.12000000000E+03 0.  0.
<mgrwt>
<rscale>  0 0.27633282E+03</rscale>
<asrwt>0</asrwt>
<pdfrwt beam="1">  1        1 0.19870837E+00 0.27633282E+03</pdfrwt>
<pdfrwt beam="2">  1       -1 0.22738513E-02 0.27633282E+03</pdfrwt>
<totfact> 0.56166641E+03</totfact>
</mgrwt>
</event>
<event>
 5    1  0.1111501E+001  0.2751942E+03  0.7818608E-02  0.1098343E+00
         -2   -1    0    0    0  501 -0.00000000000E+00  0.00000000000E+00  0.20412014339E+03  0.20412014339E+03  0.00000000000E+00 0. -1.
          2   -1    0    0  501    0  0.00000000000E+00 -0.00000000000E+00 -0.92753976942E+02  0.92753976942E+02  0.00000000000E+00 0. -1.
         35    2    1    2    0    0  0.00000000000E+00  0.00000000000E+00  0.11136616645E+03  0.29687412034E+03  0.27519415018E+03 0.  0.
         25    1    3    3    0    0 -0.58819221276E+01 -0.54888453356E+02  0.97263265650E+02  0.16403500286E+03  0.12000000000E+03 0.  0.
         25    1    3    3    0    0  0.58819221276E+01  0.54888453356E+02  0.14102900802E+02  0.13283911747E+03  0.12000000000E+03 0.  0.
<mgrwt>
<rscale>  0 0.27519415E+03</rscale>
<asrwt>0</asrwt>
<pdfrwt beam="1">  1        2 0.14269843E-01 0.27519415E+03</pdfrwt>
<pdfrwt beam="2">  1       -2 0.31403099E-01 0.27519415E+03</pdfrwt>
<totfact> 0.38695701E+03</totfact>
</mgrwt>
</event>
<event>
 5    1  0.1111501E+001  0.2740883E+03  0.7818608E-02  0.1098962E+00
          2   -1    0    0  501    0  0.00000000000E+00  0.00000000000E+00  0.20416964455E+04  0.20416964455E+04  0.00000000000E+00 0.  1.
         -2   -1    0    0    0  501 -0.00000000000E+00 -0.00000000000E+00 -0.91987730950E+01  0.91987730950E+01  0.00000000000E+00 0.  1.
         35    2    1    2    0    0  0.00000000000E+00  0.00000000000E+00  0.20324976724E+04  0.20508952186E+04  0.27408832395E+03 0.  0.
         25    1    3    3    0    0  0.15929183326E+02  0.20102072216E+02  0.55967059455E+03  0.57296510068E+03  0.12000000000E+03 0.  0.
         25    1    3    3    0    0 -0.15929183326E+02 -0.20102072216E+02  0.14728270779E+04  0.14779301179E+04  0.12000000000E+03 0.  0.
<mgrwt>
<rscale>  0 0.27408832E+03</rscale>
<asrwt>0</asrwt>
<pdfrwt beam="1">  1        2 0.31410679E+00 0.27408832E+03</pdfrwt>
<pdfrwt beam="2">  1       -2 0.14151975E-02 0.27408832E+03</pdfrwt>
<totfact> 0.90734583E+03</totfact>
</mgrwt>
</event>
<event>
 5    1  0.1111501E+001  0.2714885E+03  0.7818608E-02  0.1100431E+00
          2   -1    0    0  501    0  0.00000000000E+00  0.00000000000E+00  0.17908224912E+04  0.17908224912E+04  0.00000000000E+00 0. -1.
         -2   -1    0    0    0  501 -0.00000000000E+00 -0.00000000000E+00 -0.10289406641E+02  0.10289406641E+02  0.00000000000E+00 0. -1.
         35    2    1    2    0    0  0.00000000000E+00  0.00000000000E+00  0.17805330845E+04  0.18011118978E+04  0.27148849577E+03 0.  0.
         25    1    3    3    0    0 -0.62812551591E+02 -0.79996871869E+01  0.86284132052E+03  0.87344407722E+03  0.12000000000E+03 0.  0.
         25    1    3    3    0    0  0.62812551591E+02  0.79996871869E+01  0.91769176399E+03  0.92766782058E+03  0.12000000000E+03 0.  0.
<mgrwt>
<rscale>  0 0.27148850E+03</rscale>
<asrwt>0</asrwt>
<pdfrwt beam="1">  1        2 0.27551091E+00 0.27148850E+03</pdfrwt>
<pdfrwt beam="2">  1       -2 0.15829871E-02 0.27148850E+03</pdfrwt>
<totfact> 0.10430958E+04</totfact>
</mgrwt>
</event>
<event>
 5    1  0.1111501E+001  0.2743657E+03  0.7818608E-02  0.1098807E+00
         -2   -1    0    0    0  501 -0.00000000000E+00  0.00000000000E+00  0.10491771026E+02  0.10491771026E+02  0.00000000000E+00 0.  1.
          2   -1    0    0  501    0  0.00000000000E+00 -0.00000000000E+00 -0.17937041208E+04  0.17937041208E+04  0.00000000000E+00 0.  1.
         35    2    1    2    0    0  0.00000000000E+00  0.00000000000E+00 -0.17832123498E+04  0.18041958919E+04  0.27436568972E+03 0.  0.
         25    1    3    3    0    0  0.29864980420E+02 -0.47174630625E+02 -0.11288642672E+04  0.11365966287E+04  0.12000000000E+03 0.  0.
         25    1    3    3    0    0 -0.29864980420E+02  0.47174630625E+02 -0.65434808265E+03  0.66759926311E+03  0.12000000000E+03 0.  0.
<mgrwt>
<rscale>  0 0.27436569E+03</rscale>
<asrwt>0</asrwt>
<pdfrwt beam="1">  1        2 0.27595407E+00 0.27436569E+03</pdfrwt>
<pdfrwt beam="2">  1       -2 0.16141210E-02 0.27436569E+03</pdfrwt>
<totfact> 0.10104055E+04</totfact>
</mgrwt>
</event>
<event>
 5    1  0.1111501E+001  0.2755003E+03  0.7818608E-02  0.1098172E+00
         -2   -1    0    0    0  501 -0.00000000000E+00  0.00000000000E+00  0.30898694423E+02  0.30898694423E+02  0.00000000000E+00 0. -1.
          2   -1    0    0  501    0  0.00000000000E+00 -0.00000000000E+00 -0.61410712079E+03  0.61410712079E+03  0.00000000000E+00 0. -1.
         35    2    1    2    0    0  0.00000000000E+00  0.00000000000E+00 -0.58320842637E+03  0.64500581521E+03  0.27550033226E+03 0.  0.
         25    1    3    3    0    0  0.59224344208E+02  0.20360908112E+02 -0.35143219132E+03  0.37659882451E+03  0.12000000000E+03 0.  0.
         25    1    3    3    0    0 -0.59224344208E+02 -0.20360908112E+02 -0.23177623505E+03  0.26840699071E+03  0.12000000000E+03 0.  0.
<mgrwt>
<rscale>  0 0.27550033E+03</rscale>
<asrwt>0</asrwt>
<pdfrwt beam="1">  1        2 0.94478012E-01 0.27550033E+03</pdfrwt>
<pdfrwt beam="2">  1       -2 0.47536456E-02 0.27550033E+03</pdfrwt>
<totfact> 0.10335861E+04</totfact>
</mgrwt>
</event>
<event>
 5    1  0.1111501E+001  0.2749504E+03  0.7818608E-02  0.1098479E+00
         -2   -1    0    0    0  501 -0.00000000000E+00  0.00000000000E+00  0.47922397498E+02  0.47922397498E+02  0.00000000000E+00 0.  1.
          2   -1    0    0  501    0  0.00000000000E+00 -0.00000000000E+00 -0.39437561441E+03  0.39437561441E+03  0.00000000000E+00 0.  1.
         35    2    1    2    0    0  0.00000000000E+00  0.00000000000E+00 -0.34645321692E+03  0.44229801191E+03  0.27495035885E+03 0.  0.
         25    1    3    3    0    0 -0.34870212835E+02  0.39739356155E+02 -0.23963619261E+03  0.27316781103E+03  0.12000000000E+03 0.  0.
         25    1    3    3    0    0  0.34870212835E+02 -0.39739356155E+02 -0.10681702430E+03  0.16913020089E+03  0.12000000000E+03 0.  0.
<mgrwt>
<rscale>  0 0.27495036E+03</rscale>
<asrwt>0</asrwt>
<pdfrwt beam="1">  1        2 0.60673172E-01 0.27495036E+03</pdfrwt>
<pdfrwt beam="2">  1       -2 0.73726765E-02 0.27495036E+03</pdfrwt>
<totfact> 0.86555760E+03</totfact>
</mgrwt>
</event>
<event>
 5    1  0.1111501E+001  0.2759045E+03  0.7818608E-02  0.1097947E+00
          2   -1    0    0  501    0  0.00000000000E+00  0.00000000000E+00  0.40709134062E+03  0.40709134062E+03  0.00000000000E+00 0. -1.
         -2   -1    0    0    0  501 -0.00000000000E+00 -0.00000000000E+00 -0.46748284635E+02  0.46748284635E+02  0.00000000000E+00 0. -1.
         35    2    1    2    0    0  0.00000000000E+00  0.00000000000E+00  0.36034305598E+03  0.45383962525E+03  0.27590448973E+03 0.  0.
         25    1    3    3    0    0 -0.23133440631E+02 -0.19502450954E+02  0.28043477576E+03  0.30652759276E+03  0.12000000000E+03 0.  0.
         25    1    3    3    0    0  0.23133440631E+02  0.19502450954E+02  0.79908280224E+02  0.14731203249E+03  0.12000000000E+03 0.  0.
<mgrwt>
<rscale>  0 0.27590449E+03</rscale>
<asrwt>0</asrwt>
<pdfrwt beam="1">  1        2 0.62629435E-01 0.27590449E+03</pdfrwt>
<pdfrwt beam="2">  1       -2 0.71920441E-02 0.27590449E+03</pdfrwt>
<totfact> 0.86915147E+03</totfact>
</mgrwt>
</event>
<event>
 5    1  0.1111501E+001  0.2743550E+03  0.7818608E-02  0.1098813E+00
         -1   -1    0    0    0  501 -0.00000000000E+00  0.00000000000E+00  0.42378052445E+02  0.42378052445E+02  0.00000000000E+00 0. -1.
          1   -1    0    0  501    0  0.00000000000E+00 -0.00000000000E+00 -0.44404266638E+03  0.44404266638E+03  0.00000000000E+00 0. -1.
         35    2    1    2    0    0  0.00000000000E+00  0.00000000000E+00 -0.40166461393E+03  0.48642071882E+03  0.27435497738E+03 0.  0.
         25    1    3    3    0    0  0.59830893597E+02 -0.12017209937E+02 -0.24752263370E+03  0.28176515639E+03  0.12000000000E+03 0.  0.
         25    1    3    3    0    0 -0.59830893597E+02  0.12017209937E+02 -0.15414198023E+03  0.20465556243E+03  0.12000000000E+03 0.  0.
<mgrwt>
<rscale>  0 0.27435498E+03</rscale>
<asrwt>0</asrwt>
<pdfrwt beam="1">  1        1 0.68314261E-01 0.27435498E+03</pdfrwt>
<pdfrwt beam="2">  1       -1 0.65197000E-02 0.27435498E+03</pdfrwt>
<totfact> 0.61916611E+03</totfact>
</mgrwt>
</event>
<event>
 5    1  0.1111501E+001  0.2750186E+03  0.7818608E-02  0.1098441E+00
          1   -1    0    0  501    0  0.00000000000E+00  0.00000000000E+00  0.18129398380E+04  0.18129398380E+04  0.00000000000E+00 0. -1.
         -1   -1    0    0    0  501 -0.00000000000E+00 -0.00000000000E+00 -0.10429915138E+02  0.10429915138E+02  0.00000000000E+00 0. -1.
         35    2    1    2    0    0  0.00000000000E+00  0.00000000000E+00  0.18025099228E+04  0.18233697531E+04  0.27501860781E+03 0.  0.
         25    1    3    3    0    0 -0.32065789919E+02 -0.37607166755E+02  0.12026310602E+04  0.12096131534E+04  0.12000000000E+03 0.  0.
         25    1    3    3    0    0  0.32065789919E+02  0.37607166755E+02  0.59987886260E+03  0.61375659970E+03  0.12000000000E+03 0.  0.
<mgrwt>
<rscale>  0 0.27501861E+03</rscale>
<asrwt>0</asrwt>
<pdfrwt beam="1">  1        1 0.27891357E+00 0.27501861E+03</pdfrwt>
<pdfrwt beam="2">  1       -1 0.16046038E-02 0.27501861E+03</pdfrwt>
<totfact> 0.42221547E+03</totfact>
</mgrwt>
</event>
<event>
 5    1  0.1111501E+001  0.2769881E+03  0.7818608E-02  0.1097345E+00
         -2   -1    0    0    0  501 -0.00000000000E+00  0.00000000000E+00  0.13165431696E+02  0.13165431696E+02  0.00000000000E+00 0. -1.
          2   -1    0    0  501    0  0.00000000000E+00 -0.00000000000E+00 -0.14568913146E+04  0.14568913146E+04  0.00000000000E+00 0. -1.
         35    2    1    2    0    0  0.00000000000E+00  0.00000000000E+00 -0.14437258829E+04  0.14700567463E+04  0.27698810871E+03 0.  0.
         25    1    3    3    0    0  0.57203015619E+02  0.37361148660E+02 -0.66555493390E+03  0.67972892426E+03  0.12000000000E+03 0.  0.
         25    1    3    3    0    0 -0.57203015619E+02 -0.37361148660E+02 -0.77817094899E+03  0.79032782203E+03  0.12000000000E+03 0.  0.
<mgrwt>
<rscale>  0 0.27698811E+03</rscale>
<asrwt>0</asrwt>
<pdfrwt beam="1">  1        2 0.22413709E+00 0.27698811E+03</pdfrwt>
<pdfrwt beam="2">  1       -2 0.20254514E-02 0.27698811E+03</pdfrwt>
<totfact> 0.10922206E+04</totfact>
</mgrwt>
</event>
<event>
 5    1  0.1111501E+001  0.2748373E+03  0.7818608E-02  0.1098543E+00
         -2   -1    0    0    0  501 -0.00000000000E+00  0.00000000000E+00  0.25318667378E+02  0.25318667378E+02  0.00000000000E+00 0.  1.
          2   -1    0    0  501    0  0.00000000000E+00 -0.00000000000E+00 -0.74584831955E+03  0.74584831955E+03  0.00000000000E+00 0.  1.
         35    2    1    2    0    0  0.00000000000E+00  0.00000000000E+00 -0.72052965217E+03  0.77116698693E+03  0.27483730109E+03 0.  0.
         25    1    3    3    0    0 -0.45178950673E+02 -0.84783298339E+01 -0.49688858994E+03  0.51323609623E+03  0.12000000000E+03 0.  0.
         25    1    3    3    0    0  0.45178950673E+02  0.84783298339E+01 -0.22364106224E+03  0.25793089070E+03  0.12000000000E+03 0.  0.
<mgrwt>
<rscale>  0 0.27483730E+03</rscale>
<asrwt>0</asrwt>
<pdfrwt beam="1">  1        2 0.11474588E+00 0.27483730E+03</pdfrwt>
<pdfrwt beam="2">  1       -2 0.38951801E-02 0.27483730E+03</pdfrwt>
<totfact> 0.11050868E+04</totfact>
</mgrwt>
</event>
<event>
 5    1  0.1111501E+001  0.2749065E+03  0.7818608E-02  0.1098504E+00
         -4   -1    0    0    0  501 -0.00000000000E+00  0.00000000000E+00  0.42699934196E+02  0.42699934196E+02  0.00000000000E+00 0. -1.
          4   -1    0    0  501    0  0.00000000000E+00 -0.00000000000E+00 -0.44246903127E+03  0.44246903127E+03  0.00000000000E+00 0. -1.
         35    2    1    2    0    0  0.00000000000E+00  0.00000000000E+00 -0.39976909707E+03  0.48516896547E+03  0.27490651880E+03 0.  0.
         25    1    3    3    0    0  0.32685748113E+02 -0.35829743759E+02 -0.11821809887E+03  0.17529303343E+03  0.12000000000E+03 0.  0.
         25    1    3    3    0    0 -0.32685748113E+02  0.35829743759E+02 -0.28155099820E+03  0.30987593204E+03  0.12000000000E+03 0.  0.
<mgrwt>
<rscale>  0 0.27490652E+03</rscale>
<asrwt>0</asrwt>
<pdfrwt beam="1">  1        4 0.68072158E-01 0.27490652E+03</pdfrwt>
<pdfrwt beam="2">  1       -4 0.65692207E-02 0.27490652E+03</pdfrwt>
<totfact> 0.58056997E+02</totfact>
</mgrwt>
</event>
<event>
 5    1  0.1111501E+001  0.2754833E+03  0.7818608E-02  0.1098182E+00
          2   -1    0    0  501    0  0.00000000000E+00  0.00000000000E+00  0.13177052806E+03  0.13177052806E+03  0.00000000000E+00 0. -1.
         -2   -1    0    0    0  501 -0.00000000000E+00 -0.00000000000E+00 -0.14398337296E+03  0.14398337296E+03  0.00000000000E+00 0. -1.
         35    2    1    2    0    0  0.00000000000E+00  0.00000000000E+00 -0.12212844902E+02  0.27575390102E+03  0.27548332135E+03 0.  0.
         25    1    3    3    0    0  0.33329652480E+02 -0.58806022954E+02 -0.41677661806E+01  0.13779108950E+03  0.12000000000E+03 0.  0.
         25    1    3    3    0    0 -0.33329652480E+02  0.58806022954E+02 -0.80450787215E+01  0.13796281152E+03  0.12000000000E+03 0.  0.
<mgrwt>
<rscale>  0 0.27548332E+03</rscale>
<asrwt>0</asrwt>
<pdfrwt beam="1">  1        2 0.20272389E-01 0.27548332E+03</pdfrwt>
<pdfrwt beam="2">  1       -2 0.22151288E-01 0.27548332E+03</pdfrwt>
<totfact> 0.47798115E+03</totfact>
</mgrwt>
</event>
<event>
 5    1  0.1111501E+001  0.2753976E+03  0.7818608E-02  0.1098230E+00
         -2   -1    0    0    0  501 -0.00000000000E+00  0.00000000000E+00  0.16850233937E+03  0.16850233937E+03  0.00000000000E+00 0.  1.
          2   -1    0    0  501    0  0.00000000000E+00 -0.00000000000E+00 -0.11252634860E+03  0.11252634860E+03  0.00000000000E+00 0.  1.
         35    2    1    2    0    0  0.00000000000E+00  0.00000000000E+00  0.55975990768E+02  0.28102868797E+03  0.27539755250E+03 0.  0.
         25    1    3    3    0    0  0.35269154093E+02 -0.57568430605E+02  0.26245584152E+02  0.14016728620E+03  0.12000000000E+03 0.  0.
         25    1    3    3    0    0 -0.35269154093E+02  0.57568430605E+02  0.29730406616E+02  0.14086140178E+03  0.12000000000E+03 0.  0.
<mgrwt>
<rscale>  0 0.27539755E+03</rscale>
<asrwt>0</asrwt>
<pdfrwt beam="1">  1        2 0.17311746E-01 0.27539755E+03</pdfrwt>
<pdfrwt beam="2">  1       -2 0.25923437E-01 0.27539755E+03</pdfrwt>
<totfact> 0.43528703E+03</totfact>
</mgrwt>
</event>
<event>
 5    1  0.1111501E+001  0.2751543E+03  0.7818608E-02  0.1098365E+00
         -2   -1    0    0    0  501 -0.00000000000E+00  0.00000000000E+00  0.20699823616E+02  0.20699823616E+02  0.00000000000E+00 0. -1.
          2   -1    0    0  501    0  0.00000000000E+00 -0.00000000000E+00 -0.91437867159E+03  0.91437867159E+03  0.00000000000E+00 0. -1.
         35    2    1    2    0    0  0.00000000000E+00  0.00000000000E+00 -0.89367884797E+03  0.93507849520E+03  0.27515433647E+03 0.  0.
         25    1    3    3    0    0  0.42732602319E+02  0.16552948536E+02 -0.61427299641E+03  0.62755986927E+03  0.12000000000E+03 0.  0.
         25    1    3    3    0    0 -0.42732602319E+02 -0.16552948536E+02 -0.27940585156E+03  0.30751862593E+03  0.12000000000E+03 0.  0.
<mgrwt>
<rscale>  0 0.27515434E+03</rscale>
<asrwt>0</asrwt>
<pdfrwt beam="1">  1        2 0.14067363E+00 0.27515434E+03</pdfrwt>
<pdfrwt beam="2">  1       -2 0.31845885E-02 0.27515434E+03</pdfrwt>
<totfact> 0.11484867E+04</totfact>
</mgrwt>
</event>
<event>
 5    1  0.1111501E+001  0.2747729E+03  0.7818608E-02  0.1098579E+00
          1   -1    0    0  501    0  0.00000000000E+00  0.00000000000E+00  0.46443805672E+03  0.46443805672E+03  0.00000000000E+00 0. -1.
         -1   -1    0    0    0  501 -0.00000000000E+00 -0.00000000000E+00 -0.40640602902E+02  0.40640602902E+02  0.00000000000E+00 0. -1.
         35    2    1    2    0    0  0.00000000000E+00  0.00000000000E+00  0.42379745382E+03  0.50507865962E+03  0.27477294361E+03 0.  0.
         25    1    3    3    0    0  0.62348182688E+02  0.14125331587E+02  0.24811677068E+03  0.28292888289E+03  0.12000000000E+03 0.  0.
         25    1    3    3    0    0 -0.62348182688E+02 -0.14125331587E+02  0.17568068314E+03  0.22214977674E+03  0.12000000000E+03 0.  0.
<mgrwt>
<rscale>  0 0.27477294E+03</rscale>
<asrwt>0</asrwt>
<pdfrwt beam="1">  1        1 0.71452005E-01 0.27477294E+03</pdfrwt>
<pdfrwt beam="2">  1       -1 0.62524008E-02 0.27477294E+03</pdfrwt>
<totfact> 0.62209839E+03</totfact>
</mgrwt>
</event>
<event>
 5    1  0.1111501E+001  0.2748359E+03  0.7818608E-02  0.1098543E+00
         -1   -1    0    0    0  501 -0.00000000000E+00  0.00000000000E+00  0.75897024457E+03  0.75897024457E+03  0.00000000000E+00 0. -1.
          1   -1    0    0  501    0  0.00000000000E+00 -0.00000000000E+00 -0.24880683159E+02  0.24880683159E+02  0.00000000000E+00 0. -1.
         35    2    1    2    0    0  0.00000000000E+00  0.00000000000E+00  0.73408956141E+03  0.78385092773E+03  0.27483593784E+03 0.  0.
         25    1    3    3    0    0  0.54567553920E+02 -0.25303304882E+01  0.47749305080E+03  0.49536212419E+03  0.12000000000E+03 0.  0.
         25    1    3    3    0    0 -0.54567553920E+02  0.25303304882E+01  0.25659651061E+03  0.28848880354E+03  0.12000000000E+03 0.  0.
<mgrwt>
<rscale>  0 0.27483594E+03</rscale>
<asrwt>0</asrwt>
<pdfrwt beam="1">  1        1 0.38277980E-02 0.27483594E+03</pdfrwt>
<pdfrwt beam="2">  1       -1 0.11676464E+00 0.27483594E+03</pdfrwt>
<totfact> 0.17057692E+03</totfact>
</mgrwt>
</event>
<event>
 5    1  0.1111501E+001  0.2737576E+03  0.7818608E-02  0.1099148E+00
          2   -1    0    0  501    0  0.00000000000E+00  0.00000000000E+00  0.71393174563E+03  0.71393174563E+03  0.00000000000E+00 0. -1.
         -2   -1    0    0    0  501 -0.00000000000E+00 -0.00000000000E+00 -0.26243131867E+02  0.26243131867E+02  0.00000000000E+00 0. -1.
         35    2    1    2    0    0  0.00000000000E+00  0.00000000000E+00  0.68768861376E+03  0.74017487750E+03  0.27375759310E+03 0.  0.
         25    1    3    3    0    0 -0.57976501604E+02 -0.26497599957E+02  0.38846924426E+03  0.41154799389E+03  0.12000000000E+03 0.  0.
         25    1    3    3    0    0  0.57976501604E+02  0.26497599957E+02  0.29921936951E+03  0.32862688361E+03  0.12000000000E+03 0.  0.
<mgrwt>
<rscale>  0 0.27375759E+03</rscale>
<asrwt>0</asrwt>
<pdfrwt beam="1">  1        2 0.10983564E+00 0.27375759E+03</pdfrwt>
<pdfrwt beam="2">  1       -2 0.40374054E-02 0.27375759E+03</pdfrwt>
<totfact> 0.11048022E+04</totfact>
</mgrwt>
</event>
<event>
 5    1  0.1111501E+001  0.2748540E+03  0.7818608E-02  0.1098533E+00
         -2   -1    0    0    0  501 -0.00000000000E+00  0.00000000000E+00  0.13348472726E+02  0.13348472726E+02  0.00000000000E+00 0.  1.
          2   -1    0    0  501    0  0.00000000000E+00 -0.00000000000E+00 -0.14148574105E+04  0.14148574105E+04  0.00000000000E+00 0.  1.
         35    2    1    2    0    0  0.00000000000E+00  0.00000000000E+00 -0.14015089377E+04  0.14282058832E+04  0.27485403803E+03 0.  0.
         25    1    3    3    0    0 -0.34381124350E+02 -0.37342259660E+02 -0.47367967037E+03  0.49127277167E+03  0.12000000000E+03 0.  0.
         25    1    3    3    0    0  0.34381124350E+02  0.37342259660E+02 -0.92782926737E+03  0.93693311152E+03  0.12000000000E+03 0.  0.
<mgrwt>
<rscale>  0 0.27485404E+03</rscale>
<asrwt>0</asrwt>
<pdfrwt beam="1">  1        2 0.21767033E+00 0.27485404E+03</pdfrwt>
<pdfrwt beam="2">  1       -2 0.20536116E-02 0.27485404E+03</pdfrwt>
<totfact> 0.11274802E+04</totfact>
</mgrwt>
</event>
<event>
 5    1  0.1111501E+001  0.2755094E+03  0.7818608E-02  0.1098167E+00
          2   -1    0    0  501    0  0.00000000000E+00  0.00000000000E+00  0.16211884411E+04  0.16211884411E+04  0.00000000000E+00 0. -1.
         -2   -1    0    0    0  501 -0.00000000000E+00 -0.00000000000E+00 -0.11705212826E+02  0.11705212826E+02  0.00000000000E+00 0. -1.
         35    2    1    2    0    0  0.00000000000E+00  0.00000000000E+00  0.16094832283E+04  0.16328936539E+04  0.27550938811E+03 0.  0.
         25    1    3    3    0    0  0.53966533007E+01 -0.61809838582E+02  0.64496187623E+03  0.65895781488E+03  0.12000000000E+03 0.  0.
         25    1    3    3    0    0 -0.53966533007E+01  0.61809838582E+02  0.96452135203E+03  0.97393583902E+03  0.12000000000E+03 0.  0.
<mgrwt>
<rscale>  0 0.27550939E+03</rscale>
<asrwt>0</asrwt>
<pdfrwt beam="1">  1        2 0.24941343E+00 0.27550939E+03</pdfrwt>
<pdfrwt beam="2">  1       -2 0.18008033E-02 0.27550939E+03</pdfrwt>
<totfact> 0.10609421E+04</totfact>
</mgrwt>
</event>
<event>
 5    1  0.1111501E+001  0.2708136E+03  0.7818608E-02  0.1100815E+00
          2   -1    0    0  501    0  0.00000000000E+00  0.00000000000E+00  0.16233375151E+04  0.16233375151E+04  0.00000000000E+00 0. -1.
         -2   -1    0    0    0  501 -0.00000000000E+00 -0.00000000000E+00 -0.11294629215E+02  0.11294629215E+02  0.00000000000E+00 0. -1.
         35    2    1    2    0    0  0.00000000000E+00  0.00000000000E+00  0.16120428859E+04  0.16346321443E+04  0.27081355449E+03 0.  0.
         25    1    3    3    0    0 -0.22910651663E+02 -0.56727002803E+02  0.88969026124E+03  0.89982865689E+03  0.12000000000E+03 0.  0.
         25    1    3    3    0    0  0.22910651663E+02  0.56727002803E+02  0.72235262465E+03  0.73480348743E+03  0.12000000000E+03 0.  0.
<mgrwt>
<rscale>  0 0.27081355E+03</rscale>
<asrwt>0</asrwt>
<pdfrwt beam="1">  1        2 0.24974405E+00 0.27081355E+03</pdfrwt>
<pdfrwt beam="2">  1       -2 0.17376366E-02 0.27081355E+03</pdfrwt>
<totfact> 0.11147165E+04</totfact>
</mgrwt>
</event>
<event>
 5    1  0.1111501E+001  0.2724637E+03  0.7818608E-02  0.1099878E+00
          2   -1    0    0  501    0  0.00000000000E+00  0.00000000000E+00  0.27762195883E+03  0.27762195883E+03  0.00000000000E+00 0.  1.
         -2   -1    0    0    0  501 -0.00000000000E+00 -0.00000000000E+00 -0.66850310154E+02  0.66850310154E+02  0.00000000000E+00 0.  1.
         35    2    1    2    0    0  0.00000000000E+00  0.00000000000E+00  0.21077164867E+03  0.34447226898E+03  0.27246367870E+03 0.  0.
         25    1    3    3    0    0 -0.47289098457E+01 -0.39776207583E+02  0.41484845682E+02  0.13313715371E+03  0.12000000000E+03 0.  0.
         25    1    3    3    0    0  0.47289098457E+01  0.39776207583E+02  0.16928680299E+03  0.21133511527E+03  0.12000000000E+03 0.  0.
<mgrwt>
<rscale>  0 0.27246368E+03</rscale>
<asrwt>0</asrwt>
<pdfrwt beam="1">  1        2 0.42711070E-01 0.27246368E+03</pdfrwt>
<pdfrwt beam="2">  1       -2 0.10284663E-01 0.27246368E+03</pdfrwt>
<totfact> 0.74854040E+03</totfact>
</mgrwt>
</event>
<event>
 5    1  0.1111501E+001  0.2749567E+03  0.7818608E-02  0.1098476E+00
         -1   -1    0    0    0  501 -0.00000000000E+00  0.00000000000E+00  0.13723500336E+03  0.13723500336E+03  0.00000000000E+00 0. -1.
          1   -1    0    0  501    0  0.00000000000E+00 -0.00000000000E+00 -0.13772214598E+03  0.13772214598E+03  0.00000000000E+00 0. -1.
         35    2    1    2    0    0  0.00000000000E+00  0.00000000000E+00 -0.48714261668E+00  0.27495714935E+03  0.27495671781E+03 0.  0.
         25    1    3    3    0    0 -0.48806083831E+02 -0.10922611663E+02  0.44466250626E+02  0.13739936211E+03  0.12000000000E+03 0.  0.
         25    1    3    3    0    0  0.48806083831E+02  0.10922611663E+02 -0.44953393243E+02  0.13755778723E+03  0.12000000000E+03 0.  0.
<mgrwt>
<rscale>  0 0.27495672E+03</rscale>
<asrwt>0</asrwt>
<pdfrwt beam="1">  1        1 0.21188022E-01 0.27495672E+03</pdfrwt>
<pdfrwt beam="2">  1       -1 0.21113077E-01 0.27495672E+03</pdfrwt>
<totfact> 0.43422981E+03</totfact>
</mgrwt>
</event>
<event>
 5    1  0.1111501E+001  0.2745039E+03  0.7818608E-02  0.1098729E+00
         -3   -1    0    0    0  501 -0.00000000000E+00  0.00000000000E+00  0.14647831626E+03  0.14647831626E+03  0.00000000000E+00 0. -1.
          3   -1    0    0  501    0  0.00000000000E+00 -0.00000000000E+00 -0.12860671262E+03  0.12860671262E+03  0.00000000000E+00 0. -1.
         35    2    1    2    0    0  0.00000000000E+00  0.00000000000E+00  0.17871603645E+02  0.27508502888E+03  0.27450387775E+03 0.  0.
         25    1    3    3    0    0 -0.18953948266E+02 -0.29584819223E+02 -0.47784212094E+02  0.13385755342E+03  0.12000000000E+03 0.  0.
         25    1    3    3    0    0  0.18953948266E+02  0.29584819223E+02  0.65655815740E+02  0.14122747546E+03  0.12000000000E+03 0.  0.
<mgrwt>
<rscale>  0 0.27450388E+03</rscale>
<asrwt>0</asrwt>
<pdfrwt beam="1">  1        3 0.19785648E-01 0.27450388E+03</pdfrwt>
<pdfrwt beam="2">  1       -3 0.22535125E-01 0.27450388E+03</pdfrwt>
<totfact> 0.10545887E+03</totfact>
</mgrwt>
</event>
<event>
 5    1  0.1111501E+001  0.2737137E+03  0.7818608E-02  0.1099173E+00
         -2   -1    0    0    0  501 -0.00000000000E+00  0.00000000000E+00  0.14681863812E+02  0.14681863812E+02  0.00000000000E+00 0. -1.
          2   -1    0    0  501    0  0.00000000000E+00 -0.00000000000E+00 -0.12757094636E+04  0.12757094636E+04  0.00000000000E+00 0. -1.
         35    2    1    2    0    0  0.00000000000E+00  0.00000000000E+00 -0.12610275998E+04  0.12903913274E+04  0.27371366505E+03 0.  0.
         25    1    3    3    0    0  0.40609614739E+02 -0.24743556904E+02 -0.41610476593E+03  0.43566565236E+03  0.12000000000E+03 0.  0.
         25    1    3    3    0    0 -0.40609614739E+02  0.24743556904E+02 -0.84492283388E+03  0.85472567508E+03  0.12000000000E+03 0.  0.
<mgrwt>
<rscale>  0 0.27371367E+03</rscale>
<asrwt>0</asrwt>
<pdfrwt beam="1">  1        2 0.19626299E+00 0.27371367E+03</pdfrwt>
<pdfrwt beam="2">  1       -2 0.22587483E-02 0.27371367E+03</pdfrwt>
<totfact> 0.11680842E+04</totfact>
</mgrwt>
</event>
<event>
 5    1  0.1111501E+001  0.2749745E+03  0.7818608E-02  0.1098466E+00
         -1   -1    0    0    0  501 -0.00000000000E+00  0.00000000000E+00  0.10793929374E+02  0.10793929374E+02  0.00000000000E+00 0. -1.
          1   -1    0    0  501    0  0.00000000000E+00 -0.00000000000E+00 -0.17512379303E+04  0.17512379303E+04  0.00000000000E+00 0. -1.
         35    2    1    2    0    0  0.00000000000E+00  0.00000000000E+00 -0.17404440009E+04  0.17620318597E+04  0.27497446090E+03 0.  0.
         25    1    3    3    0    0  0.11138889259E+02 -0.16432369652E+02 -0.12809653029E+04  0.12867269348E+04  0.12000000000E+03 0.  0.
         25    1    3    3    0    0 -0.11138889259E+02  0.16432369652E+02 -0.45947869805E+03  0.47530492485E+03  0.12000000000E+03 0.  0.
<mgrwt>
<rscale>  0 0.27497446E+03</rscale>
<asrwt>0</asrwt>
<pdfrwt beam="1">  1        1 0.26942133E+00 0.27497446E+03</pdfrwt>
<pdfrwt beam="2">  1       -1 0.16606038E-02 0.27497446E+03</pdfrwt>
<totfact> 0.44050741E+03</totfact>
</mgrwt>
</event>
<event>
 5    1  0.1111501E+001  0.2750401E+03  0.7818608E-02  0.1098429E+00
          1   -1    0    0  501    0  0.00000000000E+00  0.00000000000E+00  0.24765808800E+03  0.24765808800E+03  0.00000000000E+00 0.  1.
         -1   -1    0    0    0  501 -0.00000000000E+00 -0.00000000000E+00 -0.76362413911E+02  0.76362413911E+02  0.00000000000E+00 0.  1.
         35    2    1    2    0    0  0.00000000000E+00  0.00000000000E+00  0.17129567409E+03  0.32402050191E+03  0.27504013834E+03 0.  0.
         25    1    3    3    0    0  0.65753302220E+02 -0.10362023011E+02  0.96244125258E+02  0.16761205183E+03  0.12000000000E+03 0.  0.
         25    1    3    3    0    0 -0.65753302220E+02  0.10362023011E+02  0.75051548835E+02  0.15640845008E+03  0.12000000000E+03 0.  0.
<mgrwt>
<rscale>  0 0.27504014E+03</rscale>
<asrwt>0</asrwt>
<pdfrwt beam="1">  1        1 0.38101244E-01 0.27504014E+03</pdfrwt>
<pdfrwt beam="2">  1       -1 0.11748064E-01 0.27504014E+03</pdfrwt>
<totfact> 0.52576843E+03</totfact>
</mgrwt>
</event>
<event>
 5    1  0.1111501E+001  0.2750096E+03  0.7818608E-02  0.1098446E+00
         -1   -1    0    0    0  501 -0.00000000000E+00  0.00000000000E+00  0.73061143101E+03  0.73061143101E+03  0.00000000000E+00 0. -1.
          1   -1    0    0  501    0  0.00000000000E+00 -0.00000000000E+00 -0.25879099417E+02  0.25879099417E+02  0.00000000000E+00 0. -1.
         35    2    1    2    0    0  0.00000000000E+00  0.00000000000E+00  0.70473233160E+03  0.75649053043E+03  0.27500956971E+03 0.  0.
         25    1    3    3    0    0 -0.39561490857E+02 -0.51888965899E+02  0.39585888775E+03  0.41876226591E+03  0.12000000000E+03 0.  0.
         25    1    3    3    0    0  0.39561490857E+02  0.51888965899E+02  0.30887344385E+03  0.33772826452E+03  0.12000000000E+03 0.  0.
<mgrwt>
<rscale>  0 0.27500957E+03</rscale>
<asrwt>0</asrwt>
<pdfrwt beam="1">  1        1 0.39814005E-02 0.27500957E+03</pdfrwt>
<pdfrwt beam="2">  1       -1 0.11240174E+00 0.27500957E+03</pdfrwt>
<totfact> 0.17647676E+03</totfact>
</mgrwt>
</event>
